GROningen MAchine for Chemical Simulation
51006
    1C5    HO5'    1   3.340   5.199   3.350
    1C5     O5'    2   3.357   5.209   3.444
    1C5     C5'    3   3.425   5.326   3.489
    1C5     H5'    4   3.364   5.409   3.454
    1C5    H5''    5   3.520   5.324   3.434
    1C5     C4'    6   3.454   5.344   3.637
    1C5     H4'    7   3.475   5.450   3.652
    1C5     O4'    8   3.334   5.320   3.715
    1C5     C1'    9   3.370   5.288   3.848
    1C5     H1'   10   3.326   5.361   3.916
    1C5      N1   11   3.306   5.162   3.887
    1C5      C6   12   3.252   5.077   3.795
    1C5      H6   13   3.258   5.102   3.690
    1C5      C5   14   3.191   4.964   3.832
    1C5      H5   15   3.148   4.898   3.756
    1C5      C4   16   3.186   4.935   3.971
    1C5      N4   17   3.125   4.823   4.015
    1C5     H41   18   3.124   4.807   4.114
    1C5     H42   19   3.083   4.760   3.949
    1C5      N3   20   3.240   5.016   4.062
    1C5      C2   21   3.302   5.130   4.022
    1C5      O2   22   3.355   5.209   4.102
    1C5     C3'   23   3.552   5.251   3.705
    1C5     H3'   24   3.592   5.150   3.693
    1C5     C2'   25   3.522   5.276   3.851
    1C5     H2'   26   3.577   5.193   3.894
    1C5     O2'   27   3.576   5.398   3.898
    1C5    HO2'   28   3.569   5.397   3.994
    1C5     O3'   29   3.685   5.288   3.679
    2U        P   30   3.800   5.178   3.696
    2U      OP1   31   3.928   5.245   3.660
    2U      OP2   32   3.757   5.054   3.626
    2U      O5'   33   3.803   5.150   3.853
    2U      C5'   34   3.843   5.253   3.942
    2U      H5'   35   3.780   5.341   3.928
    2U     H5''   36   3.947   5.279   3.921
    2U      C4'   37   3.831   5.207   4.085
    2U      H4'   38   3.859   5.290   4.150
    2U      O4'   39   3.692   5.181   4.116
    2U      C1'   40   3.685   5.083   4.219
    2U      H1'   41   3.626   5.118   4.304
    2U       N1   42   3.607   4.969   4.169
    2U       C6   43   3.580   4.952   4.036
    2U       H6   44   3.622   5.021   3.965
    2U       C5   45   3.508   4.849   3.991
    2U       H5   46   3.492   4.835   3.884
    2U       C4   47   3.457   4.752   4.082
    2U       O4   48   3.394   4.650   4.052
    2U       N3   49   3.489   4.774   4.213
    2U       H3   50   3.451   4.701   4.285
    2U       C2   51   3.562   4.878   4.263
    2U       O2   52   3.587   4.888   4.382
    2U      C3'   53   3.899   5.076   4.121
    2U      H3'   54   3.933   4.984   4.073
    2U      C2'   55   3.829   5.043   4.251
    2U      H2'   56   3.864   4.941   4.263
    2U      O2'   57   3.875   5.122   4.359
    2U     HO2'   58   3.841   5.083   4.439
    2U      O3'   59   4.039   5.095   4.141
    3G        P   60   4.139   4.969   4.133
    3G      OP1   61   4.275   5.030   4.139
    3G      OP2   62   4.102   4.878   4.020
    3G      O5'   63   4.112   4.887   4.268
    3G      C5'   64   4.124   4.947   4.396
    3G      H5'   65   4.061   5.036   4.406
    3G     H5''   66   4.228   4.975   4.410
    3G      C4'   67   4.085   4.848   4.503
    3G      H4'   68   4.106   4.886   4.603
    3G      O4'   69   3.942   4.825   4.502
    3G      C1'   70   3.915   4.691   4.538
    3G      H1'   71   3.846   4.689   4.623
    3G       N9   72   3.839   4.628   4.430
    3G       C8   73   3.836   4.664   4.299
    3G       H8   74   3.894   4.747   4.262
    3G       N7   75   3.757   4.587   4.229
    3G       C5   76   3.706   4.498   4.320
    3G       C6   77   3.615   4.392   4.303
    3G       O6   78   3.558   4.356   4.200
    3G       N1   79   3.590   4.326   4.422
    3G       H1   80   3.525   4.250   4.420
    3G       C2   81   3.647   4.356   4.543
    3G       N2   82   3.608   4.279   4.648
    3G      H21   83   3.541   4.203   4.647
    3G      H22   84   3.648   4.301   4.738
    3G       N3   85   3.734   4.455   4.559
    3G       C4   86   3.758   4.520   4.445
    3G      C3'   87   4.141   4.710   4.478
    3G      H3'   88   4.185   4.654   4.396
    3G      C2'   89   4.048   4.620   4.557
    3G      H2'   90   4.076   4.525   4.510
    3G      O2'   91   4.078   4.614   4.695
    3G     HO2'   92   4.027   4.541   4.731
    3G      O3'   93   4.271   4.701   4.528
    4G        P   94   4.367   4.588   4.471
    4G      OP1   95   4.506   4.633   4.495
    4G      OP2   96   4.320   4.552   4.334
    4G      O5'   97   4.337   4.465   4.565
    4G      C5'   98   4.326   4.337   4.511
    4G      H5'   99   4.421   4.284   4.519
    4G     H5''  100   4.297   4.343   4.406
    4G      C4'  101   4.222   4.262   4.586
    4G      H4'  102   4.239   4.272   4.693
    4G      O4'  103   4.093   4.321   4.564
    4G      C1'  104   3.994   4.219   4.560
    4G      H1'  105   3.911   4.247   4.624
    4G       N9  106   3.937   4.220   4.427
    4G       C8  107   3.969   4.304   4.324
    4G       H8  108   4.044   4.381   4.337
    4G       N7  109   3.901   4.281   4.216
    4G       C5  110   3.819   4.174   4.249
    4G       C6  111   3.725   4.106   4.171
    4G       O6  112   3.698   4.120   4.051
    4G       N1  113   3.660   4.008   4.246
    4G       H1  114   3.588   3.955   4.200
    4G       C2  115   3.687   3.978   4.376
    4G       N2  116   3.614   3.878   4.430
    4G      H21  117   3.541   3.824   4.385
    4G      H22  118   3.633   3.856   4.527
    4G       N3  119   3.778   4.040   4.449
    4G       C4  120   3.840   4.137   4.379
    4G      C3'  121   4.206   4.119   4.543
    4G      H3'  122   4.236   4.050   4.464
    4G      C2'  123   4.064   4.086   4.588
    4G      H2'  124   4.052   3.996   4.528
    4G      O2'  125   4.053   4.053   4.725
    4G     HO2'  126   3.965   4.015   4.737
    4G      O3'  127   4.305   4.044   4.611
    5G        P  128   4.386   3.931   4.533
    5G      OP1  129   4.493   3.882   4.624
    5G      OP2  130   4.422   3.990   4.401
    5G      O5'  131   4.279   3.816   4.515
    5G      C5'  132   4.220   3.755   4.628
    5G      H5'  133   4.187   3.831   4.699
    5G     H5''  134   4.293   3.690   4.676
    5G      C4'  135   4.101   3.672   4.586
    5G      H4'  136   4.050   3.635   4.675
    5G      O4'  137   4.004   3.759   4.522
    5G      C1'  138   3.930   3.685   4.425
    5G      H1'  139   3.824   3.683   4.449
    5G       N9  140   3.936   3.755   4.297
    5G       C8  141   4.019   3.856   4.258
    5G       H8  142   4.098   3.891   4.323
    5G       N7  143   3.991   3.904   4.139
    5G       C5  144   3.884   3.827   4.096
    5G       C6  145   3.806   3.833   3.975
    5G       O6  146   3.818   3.911   3.879
    5G       N1  147   3.707   3.735   3.974
    5G       H1  148   3.647   3.731   3.894
    5G       C2  149   3.684   3.644   4.075
    5G       N2  150   3.583   3.556   4.055
    5G      H21  151   3.522   3.552   3.974
    5G      H22  152   3.566   3.490   4.129
    5G       N3  153   3.755   3.638   4.187
    5G       C4  154   3.851   3.732   4.191
    5G      C3'  155   4.126   3.565   4.481
    5G      H3'  156   4.201   3.539   4.406
    5G      C2'  157   3.987   3.543   4.422
    5G      H2'  158   4.016   3.490   4.332
    5G      O2'  159   3.907   3.459   4.504
    5G     HO2'  160   3.830   3.435   4.452
    5G      O3'  161   4.172   3.445   4.541
    6U        P  162   4.261   3.341   4.456
    6U      OP1  163   4.387   3.319   4.531
    6U      OP2  164   4.266   3.394   4.317
    6U      O5'  165   4.178   3.205   4.462
    6U      C5'  166   4.172   3.132   4.584
    6U      H5'  167   4.153   3.201   4.667
    6U     H5''  168   4.268   3.082   4.599
    6U      C4'  169   4.062   3.029   4.579
    6U      H4'  170   4.054   2.981   4.676
    6U      O4'  171   3.935   3.095   4.560
    6U      C1'  172   3.851   3.014   4.480
    6U      H1'  173   3.751   3.007   4.521
    6U       N1  174   3.830   3.084   4.354
    6U       C6  175   3.913   3.185   4.316
    6U       H6  176   3.997   3.211   4.380
    6U       C5  177   3.897   3.250   4.202
    6U       H5  178   3.964   3.332   4.174
    6U       C4  179   3.791   3.213   4.114
    6U       O4  180   3.764   3.265   4.006
    6U       N3  181   3.712   3.110   4.159
    6U       H3  182   3.630   3.079   4.094
    6U       C2  183   3.726   3.042   4.276
    6U       O2  184   3.651   2.951   4.309
    6U      C3'  185   4.070   2.932   4.464
    6U      H3'  186   4.118   2.924   4.366
    6U      C2'  187   3.926   2.884   4.452
    6U      H2'  188   3.935   2.835   4.356
    6U      O2'  189   3.886   2.790   4.549
    6U     HO2'  190   3.801   2.754   4.521
    6U      O3'  191   4.159   2.827   4.495
    7C        P  192   4.275   2.789   4.392
    7C      OP1  193   4.354   2.675   4.449
    7C      OP2  194   4.343   2.915   4.352
    7C      O5'  195   4.193   2.734   4.267
    7C      C5'  196   4.095   2.634   4.286
    7C      H5'  197   4.044   2.646   4.381
    7C     H5''  198   4.145   2.537   4.283
    7C      C4'  199   3.993   2.640   4.174
    7C      H4'  200   3.909   2.575   4.196
    7C      O4'  201   3.937   2.774   4.172
    7C      C1'  202   3.904   2.809   4.039
    7C      H1'  203   3.801   2.845   4.037
    7C       N1  204   3.982   2.924   3.998
    7C       C6  205   4.087   2.972   4.072
    7C       H6  206   4.113   2.923   4.165
    7C       C5  207   4.158   3.077   4.032
    7C       H5  208   4.241   3.113   4.093
    7C       C4  209   4.120   3.138   3.909
    7C       N4  210   4.185   3.245   3.863
    7C      H41  211   4.154   3.285   3.775
    7C      H42  212   4.263   3.284   3.914
    7C       N3  213   4.018   3.092   3.837
    7C       C2  214   3.948   2.985   3.880
    7C       O2  215   3.852   2.938   3.816
    7C      C3'  216   4.048   2.623   4.033
    7C      H3'  217   4.143   2.631   3.981
    7C      C2'  218   3.939   2.690   3.950
    7C      H2'  219   3.994   2.695   3.856
    7C      O2'  220   3.824   2.611   3.933
    7C     HO2'  221   3.771   2.654   3.865
    7C      O3'  222   4.061   2.486   4.000
    8G        P  223   4.201   2.431   3.945
    8G      OP1  224   4.173   2.353   3.821
    8G      OP2  225   4.271   2.366   4.059
    8G      O5'  226   4.282   2.562   3.905
    8G      C5'  227   4.348   2.566   3.781
    8G      H5'  228   4.414   2.479   3.771
    8G     H5''  229   4.407   2.657   3.773
    8G      C4'  230   4.246   2.564   3.669
    8G      H4'  231   4.181   2.478   3.684
    8G      O4'  232   4.159   2.678   3.682
    8G      C1'  233   4.193   2.778   3.587
    8G      H1'  234   4.102   2.832   3.562
    8G       N9  235   4.272   2.876   3.659
    8G       C8  236   4.328   2.857   3.784
    8G       H8  237   4.307   2.768   3.840
    8G       N7  238   4.403   2.956   3.822
    8G       C5  239   4.396   3.047   3.717
    8G       C6  240   4.459   3.172   3.700
    8G       O6  241   4.539   3.229   3.776
    8G       N1  242   4.421   3.232   3.581
    8G       H1  243   4.459   3.323   3.561
    8G       C2  244   4.336   3.179   3.489
    8G       N2  245   4.311   3.256   3.381
    8G      H21  246   4.347   3.348   3.362
    8G      H22  247   4.247   3.218   3.312
    8G       N3  248   4.279   3.060   3.501
    8G       C4  249   4.313   3.000   3.617
    8G      C3'  250   4.299   2.575   3.530
    8G      H3'  251   4.404   2.549   3.546
    8G      C2'  252   4.289   2.718   3.483
    8G      H2'  253   4.395   2.743   3.478
    8G      O2'  254   4.234   2.720   3.354
    8G     HO2'  255   4.246   2.808   3.319
    8G      O3'  256   4.319   2.463   3.449
    9C        P  257   4.459   2.391   3.458
    9C      OP1  258   4.466   2.285   3.354
    9C      OP2  259   4.483   2.356   3.601
    9C      O5'  260   4.561   2.507   3.424
    9C      C5'  261   4.696   2.492   3.460
    9C      H5'  262   4.730   2.388   3.460
    9C     H5''  263   4.706   2.533   3.560
    9C      C4'  264   4.781   2.571   3.366
    9C      H4'  265   4.888   2.554   3.380
    9C      O4'  266   4.755   2.527   3.231
    9C      C1'  267   4.771   2.636   3.142
    9C      H1'  268   4.847   2.615   3.067
    9C       N1  269   4.649   2.653   3.063
    9C       C6  270   4.540   2.572   3.082
    9C       H6  271   4.539   2.500   3.162
    9C       C5  272   4.433   2.582   3.002
    9C       H5  273   4.348   2.516   3.019
    9C       C4  274   4.438   2.679   2.897
    9C       N4  275   4.337   2.691   2.812
    9C      H41  276   4.345   2.761   2.740
    9C      H42  277   4.256   2.630   2.821
    9C       N3  278   4.542   2.761   2.881
    9C       C2  279   4.648   2.751   2.964
    9C       O2  280   4.744   2.828   2.956
    9C      C3'  281   4.743   2.717   3.360
    9C      H3'  282   4.656   2.779   3.381
    9C      C2'  283   4.803   2.759   3.227
    9C      H2'  284   4.756   2.857   3.217
    9C      O2'  285   4.943   2.775   3.232
    9C     HO2'  286   4.970   2.817   3.150
    9C      O3'  287   4.799   2.789   3.467
   10A        P  288   4.708   2.891   3.549
   10A      OP1  289   4.792   2.942   3.661
   10A      OP2  290   4.581   2.820   3.579
   10A      O5'  291   4.685   3.012   3.448
   10A      C5'  292   4.796   3.082   3.396
   10A      H5'  293   4.881   3.015   3.381
   10A     H5''  294   4.825   3.160   3.467
   10A      C4'  295   4.760   3.145   3.265
   10A      H4'  296   4.848   3.182   3.214
   10A      O4'  297   4.708   3.041   3.179
   10A      C1'  298   4.604   3.094   3.098
   10A      H1'  299   4.623   3.086   2.991
   10A       N9  300   4.484   3.013   3.117
   10A       C8  301   4.457   2.921   3.216
   10A       H8  302   4.527   2.908   3.297
   10A       N7  303   4.341   2.861   3.203
   10A       C5  304   4.286   2.918   3.088
   10A       C6  305   4.163   2.896   3.019
   10A       N6  306   4.070   2.808   3.057
   10A      H61  307   3.985   2.798   3.003
   10A      H62  308   4.085   2.751   3.139
   10A       N1  309   4.140   2.971   2.909
   10A       C2  310   4.234   3.058   2.871
   10A       H2  311   4.217   3.119   2.783
   10A       N3  312   4.353   3.086   2.925
   10A       C4  313   4.373   3.012   3.035
   10A      C3'  314   4.648   3.247   3.273
   10A      H3'  315   4.572   3.281   3.343
   10A      C2'  316   4.588   3.242   3.132
   10A      H2'  317   4.494   3.291   3.157
   10A      O2'  318   4.658   3.320   3.036
   10A     HO2'  319   4.601   3.326   2.959
   10A      O3'  320   4.701   3.375   3.305
   11G        P  321   4.646   3.455   3.434
   11G      OP1  322   4.739   3.567   3.467
   11G      OP2  323   4.610   3.355   3.537
   11G      O5'  324   4.513   3.524   3.382
   11G      C5'  325   4.522   3.636   3.295
   11G      H5'  326   4.538   3.605   3.192
   11G     H5''  327   4.606   3.697   3.329
   11G      C4'  328   4.396   3.716   3.305
   11G      H4'  329   4.385   3.785   3.221
   11G      O4'  330   4.289   3.621   3.287
   11G      C1'  331   4.179   3.660   3.366
   11G      H1'  332   4.091   3.675   3.304
   11G       N9  333   4.142   3.547   3.449
   11G       C8  334   4.207   3.498   3.559
   11G       H8  335   4.297   3.544   3.597
   11G       N7  336   4.148   3.393   3.610
   11G       C5  337   4.038   3.373   3.528
   11G       C6  338   3.936   3.274   3.532
   11G       O6  339   3.920   3.182   3.614
   11G       N1  340   3.846   3.290   3.427
   11G       H1  341   3.771   3.224   3.421
   11G       C2  342   3.852   3.389   3.332
   11G       N2  343   3.757   3.387   3.236
   11G      H21  344   3.682   3.319   3.226
   11G      H22  345   3.762   3.459   3.165
   11G       N3  346   3.944   3.483   3.329
   11G       C4  347   4.034   3.468   3.429
   11G      C3'  348   4.369   3.780   3.440
   11G      H3'  349   4.408   3.776   3.542
   11G      C2'  350   4.216   3.785   3.444
   11G      H2'  351   4.208   3.798   3.551
   11G      O2'  352   4.159   3.897   3.378
   11G     HO2'  353   4.067   3.902   3.405
   11G      O3'  354   4.415   3.915   3.446
   12U        P  355   4.553   3.959   3.376
   12U      OP1  356   4.561   3.911   3.234
   12U      OP2  357   4.660   3.922   3.473
   12U      O5'  358   4.540   4.118   3.369
   12U      C5'  359   4.413   4.182   3.380
   12U      H5'  360   4.403   4.229   3.478
   12U     H5''  361   4.335   4.107   3.367
   12U      C4'  362   4.398   4.288   3.273
   12U      H4'  363   4.328   4.365   3.305
   12U      O4'  364   4.525   4.355   3.266
   12U      C1'  365   4.550   4.398   3.134
   12U      H1'  366   4.547   4.506   3.122
   12U       N1  367   4.688   4.364   3.100
   12U       C6  368   4.751   4.253   3.152
   12U       H6  369   4.693   4.184   3.212
   12U       C5  370   4.879   4.225   3.128
   12U       H5  371   4.927   4.136   3.171
   12U       C4  372   4.957   4.312   3.044
   12U       O4  373   5.076   4.298   3.016
   12U       N3  374   4.887   4.420   2.993
   12U       H3  375   4.943   4.488   2.928
   12U       C2  376   4.755   4.451   3.016
   12U       O2  377   4.700   4.549   2.966
   12U      C3'  378   4.373   4.238   3.131
   12U      H3'  379   4.367   4.142   3.080
   12U      C2'  380   4.443   4.340   3.041
   12U      H2'  381   4.462   4.268   2.962
   12U      O2'  382   4.362   4.444   2.991
   12U     HO2'  383   4.410   4.485   2.919
   12U      O3'  384   4.232   4.228   3.107
   13A        P  385   4.131   4.347   3.154
   13A      OP1  386   4.206   4.472   3.187
   13A      OP2  387   4.039   4.287   3.255
   13A      O5'  388   4.041   4.377   3.026
   13A      C5'  389   4.093   4.446   2.914
   13A      H5'  390   4.202   4.446   2.918
   13A     H5''  391   4.057   4.549   2.916
   13A      C4'  392   4.048   4.380   2.787
   13A      H4'  393   4.055   4.449   2.704
   13A      O4'  394   4.134   4.269   2.750
   13A      C1'  395   4.056   4.170   2.683
   13A      H1'  396   4.088   4.152   2.580
   13A       N9  397   4.082   4.042   2.748
   13A       C8  398   4.169   4.017   2.853
   13A       H8  399   4.223   4.098   2.899
   13A       N7  400   4.171   3.892   2.890
   13A       C5  401   4.080   3.830   2.805
   13A       C6  402   4.035   3.698   2.795
   13A       N6  403   4.077   3.599   2.875
   13A      H61  404   4.041   3.506   2.862
   13A      H62  405   4.144   3.618   2.948
   13A       N1  406   3.944   3.670   2.699
   13A       C2  407   3.901   3.769   2.620
   13A       H2  408   3.829   3.749   2.543
   13A       N3  409   3.934   3.898   2.621
   13A       C4  410   4.025   3.922   2.717
   13A      C3'  411   3.911   4.316   2.800
   13A      H3'  412   3.840   4.287   2.876
   13A      C2'  413   3.909   4.214   2.687
   13A      H2'  414   3.829   4.153   2.727
   13A      O2'  415   3.869   4.270   2.563
   13A     HO2'  416   3.849   4.196   2.505
   13A      O3'  417   3.815   4.417   2.788
   14A        P  418   3.718   4.445   2.911
   14A      OP1  419   3.684   4.590   2.912
   14A      OP2  420   3.782   4.383   3.031
   14A      O5'  421   3.591   4.359   2.871
   14A      C5'  422   3.558   4.344   2.735
   14A      H5'  423   3.638   4.379   2.669
   14A     H5''  424   3.468   4.404   2.718
   14A      C4'  425   3.529   4.201   2.704
   14A      H4'  426   3.486   4.190   2.605
   14A      O4'  427   3.650   4.124   2.700
   14A      C1'  428   3.621   3.989   2.734
   14A      H1'  429   3.643   3.919   2.654
   14A       N9  430   3.711   3.948   2.841
   14A       C8  431   3.806   4.023   2.905
   14A       H8  432   3.817   4.128   2.883
   14A       N7  433   3.873   3.956   2.996
   14A       C5  434   3.817   3.829   2.992
   14A       C6  435   3.843   3.711   3.065
   14A       N6  436   3.935   3.701   3.161
   14A      H61  437   3.948   3.614   3.210
   14A      H62  438   3.991   3.782   3.185
   14A       N1  439   3.769   3.602   3.036
   14A       C2  440   3.675   3.612   2.941
   14A       H2  441   3.615   3.526   2.916
   14A       N3  442   3.641   3.716   2.867
   14A       C4  443   3.717   3.823   2.897
   14A      C3'  444   3.451   4.131   2.813
   14A      H3'  445   3.431   4.141   2.919
   14A      C2'  446   3.475   3.985   2.779
   14A      H2'  447   3.441   3.941   2.872
   14A      O2'  448   3.390   3.943   2.674
   14A     HO2'  449   3.396   3.847   2.670
   14A      O3'  450   3.316   4.165   2.807
   15C        P  451   3.243   4.210   2.942
   15C      OP1  452   3.116   4.278   2.908
   15C      OP2  453   3.348   4.279   3.022
   15C      O5'  454   3.210   4.071   3.011
   15C      C5'  455   3.136   3.973   2.941
   15C      H5'  456   3.163   3.968   2.836
   15C     H5''  457   3.030   4.001   2.950
   15C      C4'  458   3.157   3.840   3.005
   15C      H4'  459   3.098   3.762   2.957
   15C      O4'  460   3.294   3.799   2.985
   15C      C1'  461   3.338   3.724   3.097
   15C      H1'  462   3.379   3.628   3.064
   15C       N1  463   3.452   3.792   3.158
   15C       C6  464   3.483   3.922   3.127
   15C       H6  465   3.421   3.977   3.059
   15C       C5  466   3.590   3.981   3.181
   15C       H5  467   3.612   4.085   3.155
   15C       C4  468   3.670   3.904   3.271
   15C       N4  469   3.780   3.958   3.328
   15C      H41  470   3.833   3.900   3.391
   15C      H42  471   3.807   4.053   3.307
   15C       N3  472   3.639   3.778   3.302
   15C       C2  473   3.531   3.720   3.247
   15C       O2  474   3.498   3.605   3.275
   15C      C3'  475   3.145   3.842   3.155
   15C      H3'  476   3.151   3.914   3.237
   15C      C2'  477   3.220   3.716   3.193
   15C      H2'  478   3.227   3.732   3.301
   15C      O2'  479   3.143   3.600   3.168
   15C     HO2'  480   3.189   3.527   3.210
   15C      O3'  481   3.011   3.839   3.196
   16C        P  482   2.972   3.904   3.337
   16C      OP1  483   2.825   3.923   3.339
   16C      OP2  484   3.063   4.020   3.355
   16C      O5'  485   3.009   3.788   3.439
   16C      C5'  486   2.968   3.654   3.414
   16C      H5'  487   3.000   3.619   3.316
   16C     H5''  488   2.859   3.654   3.418
   16C      C4'  489   3.022   3.562   3.520
   16C      H4'  490   2.981   3.462   3.511
   16C      O4'  491   3.166   3.544   3.503
   16C      C1'  492   3.228   3.530   3.631
   16C      H1'  493   3.289   3.440   3.633
   16C       N1  494   3.326   3.639   3.649
   16C       C6  495   3.326   3.748   3.566
   16C       H6  496   3.251   3.758   3.490
   16C       C5  497   3.420   3.844   3.578
   16C       H5  498   3.418   3.929   3.510
   16C       C4  499   3.517   3.828   3.680
   16C       N4  500   3.615   3.920   3.694
   16C      H41  501   3.683   3.905   3.768
   16C      H42  502   3.619   4.000   3.632
   16C       N3  503   3.516   3.723   3.763
   16C       C2  504   3.420   3.628   3.751
   16C       O2  505   3.414   3.530   3.828
   16C      C3'  506   3.015   3.619   3.659
   16C      H3'  507   3.007   3.717   3.707
   16C      C2'  508   3.115   3.535   3.734
   16C      H2'  509   3.121   3.591   3.827
   16C      O2'  510   3.063   3.406   3.760
   16C     HO2'  511   3.123   3.363   3.821
   16C      O3'  512   2.888   3.607   3.715
   17C        P  513   2.848   3.705   3.833
   17C      OP1  514   2.707   3.678   3.868
   17C      OP2  515   2.892   3.840   3.789
   17C      O5'  516   2.943   3.658   3.951
   17C      C5'  517   2.927   3.530   4.011
   17C      H5'  518   2.958   3.452   3.942
   17C     H5''  519   2.822   3.517   4.036
   17C      C4'  520   3.010   3.520   4.137
   17C      H4'  521   2.993   3.424   4.185
   17C      O4'  522   3.151   3.519   4.102
   17C      C1'  523   3.225   3.591   4.200
   17C      H1'  524   3.314   3.535   4.228
   17C       N1  525   3.278   3.712   4.136
   17C       C6  526   3.226   3.758   4.018
   17C       H6  527   3.142   3.708   3.973
   17C       C5  528   3.278   3.866   3.958
   17C       H5  529   3.236   3.900   3.864
   17C       C4  530   3.389   3.929   4.021
   17C       N4  531   3.447   4.035   3.964
   17C      H41  532   3.525   4.077   4.012
   17C      H42  533   3.413   4.071   3.876
   17C       N3  534   3.439   3.886   4.137
   17C       C2  535   3.384   3.778   4.197
   17C       O2  536   3.426   3.737   4.305
   17C      C3'  537   2.999   3.638   4.232
   17C      H3'  538   2.967   3.742   4.231
   17C      C2'  539   3.127   3.625   4.312
   17C      H2'  540   3.126   3.721   4.364
   17C      O2'  541   3.117   3.520   4.406
   17C     HO2'  542   3.192   3.527   4.464
   17C      O3'  543   2.887   3.626   4.316
   18C        P  544   2.827   3.758   4.383
   18C      OP1  545   2.703   3.715   4.453
   18C      OP2  546   2.823   3.866   4.281
   18C      O5'  547   2.936   3.799   4.492
   18C      C5'  548   2.959   3.717   4.606
   18C      H5'  549   2.985   3.614   4.580
   18C     H5''  550   2.866   3.718   4.663
   18C      C4'  551   3.069   3.776   4.689
   18C      H4'  552   3.093   3.713   4.775
   18C      O4'  553   3.190   3.778   4.610
   18C      C1'  554   3.270   3.889   4.648
   18C      H1'  555   3.372   3.857   4.668
   18C       N1  556   3.284   3.977   4.532
   18C       C6  557   3.206   3.962   4.422
   18C       H6  558   3.129   3.886   4.420
   18C       C5  559   3.223   4.039   4.315
   18C       H5  560   3.159   4.026   4.228
   18C       C4  561   3.325   4.138   4.321
   18C       N4  562   3.348   4.217   4.217
   18C      H41  563   3.422   4.285   4.226
   18C      H42  564   3.293   4.208   4.133
   18C       N3  565   3.401   4.154   4.429
   18C       C2  566   3.381   4.076   4.537
   18C       O2  567   3.445   4.092   4.643
   18C      C3'  568   3.052   3.923   4.723
   18C      H3'  569   2.999   4.009   4.684
   18C      C2'  570   3.194   3.962   4.757
   18C      H2'  571   3.180   4.070   4.762
   18C      O2'  572   3.235   3.915   4.883
   18C     HO2'  573   3.318   3.959   4.904
   18C      O3'  574   2.969   3.943   4.833
   19A        P  575   2.876   4.072   4.835
   19A      OP1  576   2.777   4.049   4.943
   19A      OP2  577   2.831   4.092   4.695
   19A      O5'  578   2.973   4.190   4.875
   19A      C5'  579   3.038   4.186   5.000
   19A      H5'  580   3.070   4.085   5.026
   19A     H5''  581   2.968   4.223   5.075
   19A      C4'  582   3.158   4.276   4.998
   19A      H4'  583   3.222   4.258   5.085
   19A      O4'  584   3.241   4.238   4.885
   19A      C1'  585   3.311   4.352   4.837
   19A      H1'  586   3.419   4.340   4.836
   19A       N9  587   3.278   4.371   4.696
   19A       C8  588   3.191   4.301   4.617
   19A       H8  589   3.127   4.226   4.660
   19A       N7  590   3.191   4.340   4.491
   19A       C5  591   3.283   4.444   4.489
   19A       C6  592   3.330   4.527   4.385
   19A       N6  593   3.289   4.518   4.258
   19A      H61  594   3.327   4.580   4.188
   19A      H62  595   3.221   4.448   4.232
   19A       N1  596   3.422   4.622   4.417
   19A       C2  597   3.463   4.630   4.544
   19A       H2  598   3.535   4.705   4.572
   19A       N3  599   3.426   4.558   4.650
   19A       C4  600   3.336   4.465   4.615
   19A      C3'  601   3.131   4.422   4.972
   19A      H3'  602   3.052   4.486   4.931
   19A      C2'  603   3.266   4.471   4.921
   19A      H2'  604   3.235   4.567   4.882
   19A      O2'  605   3.359   4.491   5.025
   19A     HO2'  606   3.433   4.538   4.988
   19A      O3'  607   3.099   4.490   5.091
   20G        P  608   3.027   4.633   5.084
   20G      OP1  609   2.989   4.667   5.224
   20G      OP2  610   2.923   4.619   4.978
   20G      O5'  611   3.142   4.735   5.038
   20G      C5'  612   3.238   4.784   5.130
   20G      H5'  613   3.304   4.705   5.166
   20G     H5''  614   3.183   4.827   5.214
   20G      C4'  615   3.321   4.891   5.065
   20G      H4'  616   3.420   4.907   5.106
   20G      O4'  617   3.345   4.847   4.929
   20G      C1'  618   3.281   4.934   4.838
   20G      H1'  619   3.358   5.002   4.800
   20G       N9  620   3.231   4.867   4.717
   20G       C8  621   3.159   4.750   4.705
   20G       H8  622   3.132   4.692   4.792
   20G       N7  623   3.131   4.721   4.581
   20G       C5  624   3.187   4.824   4.507
   20G       C6  625   3.191   4.846   4.366
   20G       O6  626   3.143   4.775   4.275
   20G       N1  627   3.258   4.964   4.335
   20G       H1  628   3.266   4.988   4.238
   20G       C2  629   3.314   5.050   4.426
   20G       N2  630   3.373   5.161   4.375
   20G      H21  631   3.381   5.187   4.278
   20G      H22  632   3.416   5.225   4.442
   20G       N3  633   3.312   5.029   4.557
   20G       C4  634   3.248   4.915   4.590
   20G      C3'  635   3.241   5.021   5.053
   20G      H3'  636   3.163   5.049   5.124
   20G      C2'  637   3.185   5.025   4.912
   20G      H2'  638   3.078   5.011   4.928
   20G      O2'  639   3.208   5.152   4.858
   20G     HO2'  640   3.161   5.157   4.775
   20G      O3'  641   3.306   5.145   5.079
   21U        P  642   3.406   5.159   5.202
   21U      OP1  643   3.384   5.038   5.285
   21U      OP2  644   3.387   5.294   5.260
   21U      O5'  645   3.549   5.149   5.134
   21U      C5'  646   3.661   5.105   5.208
   21U      H5'  647   3.681   4.999   5.193
   21U     H5''  648   3.642   5.124   5.314
   21U      C4'  649   3.780   5.184   5.165
   21U      H4'  650   3.876   5.145   5.200
   21U      O4'  651   3.786   5.173   5.022
   21U      C1'  652   3.817   5.297   4.965
   21U      H1'  653   3.913   5.300   4.912
   21U       N1  654   3.721   5.324   4.858
   21U       C6  655   3.597   5.266   4.860
   21U       H6  656   3.566   5.212   4.949
   21U       C5  657   3.509   5.280   4.760
   21U       H5  658   3.415   5.226   4.761
   21U       C4  659   3.545   5.357   4.646
   21U       O4  660   3.480   5.366   4.542
   21U       N3  661   3.669   5.415   4.652
   21U       H3  662   3.697   5.477   4.567
   21U       C2  663   3.760   5.405   4.753
   21U       O2  664   3.867   5.463   4.750
   21U      C3'  665   3.764   5.332   5.195
   21U      H3'  666   3.689   5.395   5.241
   21U      C2'  667   3.824   5.404   5.074
   21U      H2'  668   3.754   5.487   5.085
   21U      O2'  669   3.956   5.452   5.085
   21U     HO2'  670   3.968   5.516   5.014
   21U      O3'  671   3.820   5.361   5.323
   22U        P  672   3.978   5.336   5.352
   22U      OP1  673   4.028   5.454   5.427
   22U      OP2  674   4.049   5.293   5.230
   22U      O5'  675   3.981   5.209   5.449
   22U      C5'  676   4.063   5.097   5.418
   22U      H5'  677   4.166   5.115   5.451
   22U     H5''  678   4.062   5.078   5.311
   22U      C4'  679   4.009   4.976   5.490
   22U      H4'  680   4.073   4.889   5.479
   22U      O4'  681   4.011   5.006   5.630
   22U      C1'  682   3.888   4.974   5.689
   22U      H1'  683   3.890   4.893   5.763
   22U       N1  684   3.844   5.090   5.769
   22U       C6  685   3.866   5.220   5.728
   22U       H6  686   3.899   5.236   5.626
   22U       C5  687   3.842   5.326   5.806
   22U       H5  688   3.871   5.426   5.775
   22U       C4  689   3.791   5.306   5.938
   22U       O4  690   3.780   5.393   6.025
   22U       N3  691   3.765   5.173   5.969
   22U       H3  692   3.722   5.155   6.068
   22U       C2  693   3.787   5.063   5.890
   22U       O2  694   3.759   4.951   5.924
   22U      C3'  695   3.865   4.946   5.454
   22U      H3'  696   3.792   4.986   5.383
   22U      C2'  697   3.795   4.911   5.585
   22U      H2'  698   3.699   4.953   5.554
   22U      O2'  699   3.780   4.773   5.611
   22U     HO2'  700   3.715   4.765   5.682
   22U      O3'  701   3.865   4.847   5.352
   23A        P  702   3.953   4.712   5.369
   23A      OP1  703   3.945   4.656   5.507
   23A      OP2  704   4.084   4.737   5.308
   23A      O5'  705   3.879   4.612   5.271
   23A      C5'  706   3.738   4.596   5.280
   23A      H5'  707   3.702   4.670   5.353
   23A     H5''  708   3.713   4.496   5.316
   23A      C4'  709   3.670   4.620   5.147
   23A      H4'  710   3.563   4.609   5.164
   23A      O4'  711   3.685   4.756   5.103
   23A      C1'  712   3.671   4.760   4.962
   23A      H1'  713   3.580   4.810   4.929
   23A       N9  714   3.777   4.844   4.908
   23A       C8  715   3.906   4.858   4.952
   23A       H8  716   3.942   4.797   5.034
   23A       N7  717   3.977   4.943   4.883
   23A       C5  718   3.890   4.988   4.785
   23A       C6  719   3.904   5.080   4.681
   23A       N6  720   4.015   5.147   4.656
   23A      H61  721   4.019   5.212   4.578
   23A      H62  722   4.097   5.134   4.714
   23A       N1  723   3.797   5.101   4.602
   23A       C2  724   3.684   5.036   4.628
   23A       H2  725   3.597   5.052   4.566
   23A       N3  726   3.658   4.948   4.723
   23A       C4  727   3.766   4.928   4.799
   23A      C3'  728   3.721   4.538   5.031
   23A      H3'  729   3.805   4.476   5.000
   23A      C2'  730   3.669   4.616   4.911
   23A      H2'  731   3.735   4.577   4.833
   23A      O2'  732   3.537   4.574   4.886
   23A     HO2'  733   3.512   4.609   4.800
   23A      O3'  734   3.654   4.413   5.037
   24A        P  735   3.740   4.277   5.034
   24A      OP1  736   3.883   4.316   5.052
   24A      OP2  737   3.698   4.202   4.913
   24A      O5'  738   3.691   4.196   5.162
   24A      C5'  739   3.735   4.231   5.293
   24A      H5'  740   3.706   4.334   5.318
   24A     H5''  741   3.843   4.222   5.295
   24A      C4'  742   3.675   4.137   5.393
   24A      H4'  743   3.708   4.161   5.494
   24A      O4'  744   3.531   4.153   5.398
   24A      C1'  745   3.471   4.029   5.430
   24A      H1'  746   3.409   4.034   5.519
   24A       N9  747   3.376   3.995   5.325
   24A       C8  748   3.371   4.040   5.196
   24A       H8  749   3.448   4.107   5.159
   24A       N7  750   3.272   3.991   5.126
   24A       C5  751   3.206   3.908   5.216
   24A       C6  752   3.092   3.824   5.205
   24A       N6  753   3.020   3.809   5.093
   24A      H61  754   2.940   3.748   5.093
   24A      H62  755   3.046   3.859   5.009
   24A       N1  756   3.055   3.754   5.314
   24A       C2  757   3.128   3.767   5.426
   24A       H2  758   3.100   3.711   5.514
   24A       N3  759   3.236   3.841   5.448
   24A       C4  760   3.270   3.910   5.339
   24A      C3'  761   3.690   3.991   5.358
   24A      H3'  762   3.706   3.931   5.268
   24A      C2'  763   3.583   3.927   5.443
   24A      H2'  764   3.583   3.826   5.400
   24A      O2'  765   3.619   3.920   5.579
   24A     HO2'  766   3.554   3.864   5.622
   24A      O3'  767   3.819   3.947   5.392
   25C        P  768   3.885   3.828   5.308
   25C      OP1  769   4.024   3.808   5.357
   25C      OP2  770   3.860   3.856   5.165
   25C      O5'  771   3.799   3.701   5.350
   25C      C5'  772   3.791   3.665   5.485
   25C      H5'  773   3.763   3.750   5.549
   25C     H5''  774   3.890   3.630   5.514
   25C      C4'  775   3.692   3.555   5.504
   25C      H4'  776   3.689   3.520   5.607
   25C      O4'  777   3.558   3.605   5.479
   25C      C1'  778   3.476   3.498   5.432
   25C      H1'  779   3.392   3.487   5.500
   25C       N1  780   3.414   3.538   5.305
   25C       C6  781   3.466   3.640   5.230
   25C       H6  782   3.553   3.693   5.264
   25C       C5  783   3.410   3.675   5.113
   25C       H5  784   3.453   3.757   5.055
   25C       C4  785   3.294   3.602   5.070
   25C       N4  786   3.233   3.633   4.955
   25C      H41  787   3.152   3.579   4.929
   25C      H42  788   3.268   3.708   4.897
   25C       N3  789   3.243   3.502   5.143
   25C       C2  790   3.301   3.468   5.261
   25C       O2  791   3.255   3.376   5.331
   25C      C3'  792   3.704   3.445   5.402
   25C      H3'  793   3.743   3.429   5.302
   25C      C2'  794   3.568   3.377   5.414
   25C      H2'  795   3.574   3.317   5.324
   25C      O2'  796   3.556   3.293   5.527
   25C     HO2'  797   3.476   3.241   5.515
   25C      O3'  798   3.811   3.359   5.435
   26A        P  799   3.874   3.266   5.321
   26A      OP1  800   3.987   3.188   5.380
   26A      OP2  801   3.898   3.355   5.206
   26A      O5'  802   3.755   3.165   5.288
   26A      C5'  803   3.729   3.122   5.155
   26A      H5'  804   3.776   3.025   5.138
   26A     H5''  805   3.769   3.195   5.085
   26A      C4'  806   3.580   3.110   5.134
   26A      H4'  807   3.534   3.066   5.223
   26A      O4'  808   3.521   3.242   5.124
   26A      C1'  809   3.416   3.240   5.029
   26A      H1'  810   3.321   3.282   5.064
   26A       N9  811   3.453   3.330   4.920
   26A       C8  812   3.563   3.410   4.915
   26A       H8  813   3.640   3.402   4.990
   26A       N7  814   3.567   3.487   4.809
   26A       C5  815   3.452   3.454   4.740
   26A       C6  816   3.396   3.502   4.621
   26A       N6  817   3.451   3.601   4.549
   26A      H61  818   3.407   3.632   4.464
   26A      H62  819   3.537   3.644   4.580
   26A       N1  820   3.281   3.447   4.579
   26A       C2  821   3.226   3.350   4.652
   26A       H2  822   3.134   3.304   4.620
   26A       N3  823   3.268   3.298   4.766
   26A       C4  824   3.382   3.355   4.806
   26A      C3'  825   3.537   3.041   5.006
   26A      H3'  826   3.578   3.007   4.911
   26A      C2'  827   3.397   3.096   4.984
   26A      H2'  828   3.384   3.064   4.881
   26A      O2'  829   3.300   3.034   5.065
   26A     HO2'  830   3.214   3.061   5.032
   26A      O3'  831   3.532   2.903   5.031
   27A        P  832   3.601   2.802   4.928
   27A      OP1  833   3.595   2.667   4.991
   27A      OP2  834   3.731   2.861   4.887
   27A      O5'  835   3.500   2.805   4.806
   27A      C5'  836   3.361   2.789   4.828
   27A      H5'  837   3.327   2.845   4.915
   27A     H5''  838   3.343   2.682   4.844
   27A      C4'  839   3.286   2.834   4.708
   27A      H4'  840   3.179   2.813   4.716
   27A      O4'  841   3.292   2.978   4.698
   27A      C1'  842   3.289   3.016   4.562
   27A      H1'  843   3.207   3.082   4.535
   27A       N9  844   3.407   3.097   4.535
   27A       C8  845   3.525   3.106   4.604
   27A       H8  846   3.545   3.039   4.687
   27A       N7  847   3.607   3.195   4.556
   27A       C5  848   3.539   3.247   4.447
   27A       C6  849   3.571   3.347   4.354
   27A       N6  850   3.684   3.418   4.358
   27A      H61  851   3.702   3.489   4.288
   27A      H62  852   3.753   3.400   4.430
   27A       N1  853   3.482   3.373   4.257
   27A       C2  854   3.367   3.303   4.256
   27A       H2  855   3.294   3.323   4.179
   27A       N3  856   3.325   3.208   4.338
   27A       C4  857   3.417   3.185   4.432
   27A      C3'  858   3.347   2.789   4.577
   27A      H3'  859   3.442   2.752   4.539
   27A      C2'  860   3.288   2.888   4.479
   27A      H2'  861   3.354   2.868   4.394
   27A      O2'  862   3.155   2.856   4.444
   27A     HO2'  863   3.132   2.911   4.369
   27A      O3'  864   3.305   2.659   4.547
   28A        P  865   3.399   2.565   4.458
   28A      OP1  866   3.376   2.428   4.510
   28A      OP2  867   3.536   2.623   4.458
   28A      O5'  868   3.336   2.574   4.312
   28A      C5'  869   3.212   2.510   4.284
   28A      H5'  870   3.139   2.529   4.362
   28A     H5''  871   3.231   2.402   4.277
   28A      C4'  872   3.158   2.558   4.153
   28A      H4'  873   3.055   2.524   4.139
   28A      O4'  874   3.147   2.703   4.158
   28A      C1'  875   3.165   2.755   4.028
   28A      H1'  876   3.085   2.821   3.996
   28A       N9  877   3.279   2.843   4.031
   28A       C8  878   3.403   2.826   4.087
   28A       H8  879   3.430   2.733   4.134
   28A       N7  880   3.481   2.930   4.073
   28A       C5  881   3.403   3.020   4.001
   28A       C6  882   3.427   3.149   3.954
   28A       N6  883   3.541   3.214   3.972
   28A      H61  884   3.552   3.307   3.935
   28A      H62  885   3.616   3.170   4.022
   28A       N1  886   3.327   3.210   3.886
   28A       C2  887   3.213   3.145   3.867
   28A       H2  888   3.132   3.191   3.813
   28A       N3  889   3.179   3.023   3.907
   28A       C4  890   3.280   2.966   3.974
   28A      C3'  891   3.245   2.535   4.031
   28A      H3'  892   3.349   2.512   4.008
   28A      C2'  893   3.194   2.639   3.934
   28A      H2'  894   3.274   2.635   3.861
   28A      O2'  895   3.073   2.602   3.873
   28A     HO2'  896   3.057   2.664   3.801
   28A      O3'  897   3.220   2.408   3.976
   29A        P  898   3.299   2.364   3.845
   29A      OP1  899   3.240   2.232   3.805
   29A      OP2  900   3.444   2.375   3.875
   29A      O5'  901   3.264   2.474   3.735
   29A      C5'  902   3.152   2.457   3.649
   29A      H5'  903   3.061   2.448   3.709
   29A     H5''  904   3.166   2.366   3.591
   29A      C4'  905   3.138   2.575   3.555
   29A      H4'  906   3.038   2.570   3.513
   29A      O4'  907   3.139   2.697   3.633
   29A      C1'  908   3.179   2.804   3.550
   29A      H1'  909   3.106   2.886   3.552
   29A       N9  910   3.297   2.865   3.609
   29A       C8  911   3.394   2.813   3.691
   29A       H8  912   3.390   2.709   3.721
   29A       N7  913   3.489   2.898   3.720
   29A       C5  914   3.451   3.013   3.654
   29A       C6  915   3.510   3.141   3.643
   29A       N6  916   3.623   3.175   3.703
   29A      H61  917   3.660   3.268   3.691
   29A      H62  918   3.673   3.107   3.759
   29A       N1  919   3.446   3.233   3.569
   29A       C2  920   3.331   3.199   3.509
   29A       H2  921   3.278   3.272   3.449
   29A       N3  922   3.267   3.084   3.511
   29A       C4  923   3.333   2.994   3.586
   29A      C3'  924   3.247   2.601   3.453
   29A      H3'  925   3.353   2.581   3.436
   29A      C2'  926   3.216   2.745   3.415
   29A      H2'  927   3.309   2.767   3.362
   29A      O2'  928   3.109   2.753   3.324
   29A     HO2'  929   3.107   2.842   3.290
   29A      O3'  930   3.234   2.523   3.337
   30C        P  931   3.353   2.523   3.229
   30C      OP1  932   3.313   2.436   3.117
   30C      OP2  933   3.480   2.499   3.300
   30C      O5'  934   3.356   2.671   3.172
   30C      C5'  935   3.255   2.716   3.086
   30C      H5'  936   3.155   2.705   3.128
   30C     H5''  937   3.263   2.658   2.995
   30C      C4'  938   3.278   2.860   3.055
   30C      H4'  939   3.192   2.910   3.011
   30C      O4'  940   3.299   2.926   3.181
   30C      C1'  941   3.395   3.029   3.165
   30C      H1'  942   3.354   3.124   3.200
   30C       N1  943   3.506   3.003   3.257
   30C       C6  944   3.524   2.881   3.316
   30C       H6  945   3.457   2.800   3.293
   30C       C5  946   3.624   2.861   3.403
   30C       H5  947   3.636   2.763   3.449
   30C       C4  948   3.711   2.971   3.430
   30C       N4  949   3.811   2.957   3.516
   30C      H41  950   3.870   3.037   3.532
   30C      H42  951   3.826   2.869   3.563
   30C       N3  952   3.695   3.089   3.370
   30C       C2  953   3.593   3.107   3.283
   30C       O2  954   3.575   3.215   3.224
   30C      C3'  955   3.408   2.885   2.980
   30C      H3'  956   3.501   2.835   2.958
   30C      C2'  957   3.436   3.030   3.018
   30C      H2'  958   3.538   3.037   2.981
   30C      O2'  959   3.353   3.121   2.948
   30C     HO2'  960   3.389   3.209   2.965
   30C      O3'  961   3.387   2.870   2.841
   31A        P  962   3.511   2.876   2.741
   31A      OP1  963   3.455   2.870   2.604
   31A      OP2  964   3.614   2.777   2.785
   31A      O5'  965   3.569   3.022   2.762
   31A      C5'  966   3.510   3.133   2.696
   31A      H5'  967   3.420   3.168   2.746
   31A     H5''  968   3.485   3.102   2.594
   31A      C4'  969   3.609   3.243   2.690
   31A      H4'  970   3.568   3.336   2.651
   31A      O4'  971   3.645   3.275   2.827
   31A      C1'  972   3.784   3.300   2.835
   31A      H1'  973   3.816   3.397   2.872
   31A       N9  974   3.841   3.207   2.933
   31A       C8  975   3.790   3.088   2.979
   31A       H8  976   3.705   3.042   2.930
   31A       N7  977   3.857   3.037   3.079
   31A       C5  978   3.961   3.127   3.098
   31A       C6  979   4.066   3.131   3.191
   31A       N6  980   4.083   3.042   3.289
   31A      H61  981   4.161   3.051   3.352
   31A      H62  982   4.018   2.965   3.299
   31A       N1  983   4.154   3.232   3.180
   31A       C2  984   4.136   3.324   3.084
   31A       H2  985   4.205   3.406   3.074
   31A       N3  986   4.040   3.332   2.993
   31A       C4  987   3.955   3.229   3.005
   31A      C3'  988   3.741   3.204   2.624
   31A      H3'  989   3.791   3.114   2.590
   31A      C2'  990   3.842   3.294   2.694
   31A      H2'  991   3.933   3.242   2.664
   31A      O2'  992   3.844   3.425   2.641
   31A     HO2'  993   3.921   3.469   2.677
   31A      O3'  994   3.733   3.231   2.486
   32A        P  995   3.834   3.161   2.384
   32A      OP1  996   3.751   3.083   2.291
   32A      OP2  997   3.941   3.093   2.462
   32A      O5'  998   3.896   3.285   2.305
   32A      C5'  999   3.813   3.390   2.256
   32A      H5' 1000   3.731   3.408   2.326
   32A     H5'' 1001   3.773   3.362   2.159
   32A      C4' 1002   3.895   3.516   2.242
   32A      H4' 1003   3.836   3.596   2.196
   32A      O4' 1004   3.928   3.567   2.374
   32A      C1' 1005   4.065   3.607   2.378
   32A      H1' 1006   4.083   3.706   2.419
   32A       N9 1007   4.134   3.518   2.472
   32A       C8 1008   4.107   3.386   2.495
   32A       H8 1009   4.036   3.333   2.434
   32A       N7 1010   4.181   3.333   2.590
   32A       C5 1011   4.262   3.438   2.632
   32A       C6 1012   4.362   3.448   2.732
   32A       N6 1013   4.397   3.347   2.814
   32A      H61 1014   4.469   3.361   2.883
   32A      H62 1015   4.350   3.258   2.806
   32A       N1 1016   4.425   3.566   2.745
   32A       C2 1017   4.388   3.668   2.666
   32A       H2 1018   4.437   3.764   2.676
   32A       N3 1019   4.296   3.672   2.570
   32A       C4 1020   4.235   3.552   2.558
   32A      C3' 1021   4.029   3.495   2.174
   32A      H3' 1022   4.092   3.409   2.149
   32A      C2' 1023   4.116   3.605   2.234
   32A      H2' 1024   4.214   3.570   2.202
   32A      O2' 1025   4.089   3.731   2.174
   32A     HO2' 1026   4.158   3.791   2.203
   32A      O3' 1027   4.017   3.502   2.032
   33G3       P 1028   4.080   3.384   1.940
   33G3     OP1 1029   4.070   3.425   1.797
   33G3     OP2 1030   4.021   3.254   1.985
   33G3     O5' 1031   4.233   3.380   1.983
   33G3     C5' 1032   4.266   3.335   2.111
   33G3     H5' 1033   4.268   3.226   2.111
   33G3    H5'' 1034   4.191   3.370   2.182
   33G3     C4' 1035   4.401   3.386   2.152
   33G3     H4' 1036   4.421   3.487   2.115
   33G3     O4' 1037   4.399   3.401   2.296
   33G3     C1' 1038   4.494   3.315   2.354
   33G3     H1' 1039   4.535   3.359   2.444
   33G3      N9 1040   4.421   3.198   2.403
   33G3      C8 1041   4.298   3.153   2.362
   33G3      H8 1042   4.243   3.205   2.285
   33G3      N7 1043   4.258   3.046   2.425
   33G3      C5 1044   4.362   3.018   2.513
   33G3      C6 1045   4.376   2.914   2.607
   33G3      O6 1046   4.298   2.823   2.632
   33G3      N1 1047   4.496   2.924   2.676
   33G3      H1 1048   4.516   2.855   2.746
   33G3      C2 1049   4.590   3.023   2.657
   33G3      N2 1050   4.698   3.017   2.737
   33G3     H21 1051   4.716   2.950   2.810
   33G3     H22 1052   4.767   3.090   2.724
   33G3      N3 1053   4.578   3.119   2.568
   33G3      C4 1054   4.463   3.111   2.500
   33G3     C3' 1055   4.512   3.289   2.118
   33G3     H3' 1056   4.524   3.195   2.064
   33G3     C2' 1057   4.598   3.286   2.245
   33G3     H2' 1058   4.641   3.188   2.225
   33G3     O2' 1059   4.701   3.382   2.252
   33G3    HO2' 1060   4.760   3.356   2.323
   33G3     O3' 1061   4.576   3.333   1.998
   33G3    HO3' 1062   4.649   3.278   1.968
   34pq0     N1 1063   3.736   3.646   3.522
   34pq0     C2 1064   3.655   3.517   3.567
   34pq0     N3 1065   3.703   3.465   3.672
   34pq0     C4 1066   3.809   3.500   3.748
   34pq0     C5 1067   3.884   3.607   3.717
   34pq0     C6 1068   3.841   3.691   3.589
   34pq0     O6 1069   3.908   3.785   3.563
   34pq0     C7 1070   3.999   3.631   3.816
   34pq0    C10 1071   4.099   3.740   3.810
   34pq0    N11 1072   4.173   3.828   3.801
   34pq0     C8 1073   3.988   3.532   3.906
   34pq0     N9 1074   3.885   3.446   3.885
   34pq0     N2 1075   3.546   3.476   3.492
   34pq0     H1 1076   3.698   3.679   3.452
   34pq0     H2 1077   4.042   3.516   3.976
   34pq0     H3 1078   3.840   3.376   3.907
   34pq0     H4 1079   3.525   3.540   3.436
   34pq0     H5 1080   3.502   3.411   3.545
   35K+      K+ 1081   5.052   3.772   4.149
   36K+      K+ 1082   4.880   4.122   5.447
   37K+      K+ 1083   2.239   4.477   4.007
   38K+      K+ 1084   4.036   2.095   4.823
   39K+      K+ 1085   5.150   4.709   3.709
   40K+      K+ 1086   5.018   2.993   4.479
   41K+      K+ 1087   3.766   1.626   3.123
   42K+      K+ 1088   2.370   2.903   4.516
   43K+      K+ 1089   4.362   5.368   3.063
   44K+      K+ 1090   3.087   3.545   2.121
   45K+      K+ 1091   4.924   5.050   5.007
   46K+      K+ 1092   2.887   4.583   6.057
   47K+      K+ 1093   3.942   2.273   2.122
   48K+      K+ 1094   3.960   1.630   4.142
   49K+      K+ 1095   2.534   4.694   3.374
   50K+      K+ 1096   4.711   3.014   5.357
   51K+      K+ 1097   2.349   3.136   3.333
   52K+      K+ 1098   4.236   4.168   6.300
   53K+      K+ 1099   2.093   4.372   5.117
   54K+      K+ 1100   5.456   3.512   2.741
   55K+      K+ 1101   5.052   1.924   4.149
   56K+      K+ 1102   3.121   5.004   2.806
   57K+      K+ 1103   3.084   6.028   5.101
   58K+      K+ 1104   3.214   2.637   5.784
   59K+      K+ 1105   4.520   5.875   4.460
   60K+      K+ 1106   4.859   4.362   2.103
   61K+      K+ 1107   2.864   2.329   2.521
   62K+      K+ 1108   2.716   1.737   4.215
   63K+      K+ 1109   3.545   4.354   1.705
   64K+      K+ 1110   2.168   3.378   5.263
   65K+      K+ 1111   5.400   3.297   3.778
   66K+      K+ 1112   4.457   5.587   5.845
   67K+      K+ 1113   2.438   5.482   4.539
   68K+      K+ 1114   4.273   3.082   1.086
   69K+      K+ 1115   4.999   1.836   3.045
   70K+      K+ 1116   4.005   3.269   6.266
   71K+      K+ 1117   2.397   4.026   2.736
   72K+      K+ 1118   4.069   6.156   3.480
   73K+      K+ 1119   3.087   5.393   5.922
   74K+      K+ 1120   2.978   2.026   5.095
   75K+      K+ 1121   3.517   2.886   1.666
   76K+      K+ 1122   5.318   4.304   4.523
   77K+      K+ 1123   3.980   6.219   7.017
   78K+      K+ 1124   1.844   3.568   4.040
   79K+      K+ 1125   5.475   2.943   1.353
   80K+      K+ 1126   6.143   4.751   2.616
   81K+      K+ 1127   2.723   6.283   3.056
   82K+      K+ 1128   2.689   1.537   3.171
   83K+      K+ 1129   4.139   2.202   5.484
   84K+      K+ 1130   3.460   4.993   7.288
   85K+      K+ 1131   6.086   2.097   3.156
   86K+      K+ 1132   4.310   6.815   5.504
   87K+      K+ 1133   3.891   5.041   2.107
   88Cl-    Cl- 1134   3.189   5.450   6.582
   89Cl-    Cl- 1135   5.570   4.053   2.203
   90Cl-    Cl- 1136   2.469   2.547   5.444
   91Cl-    Cl- 1137   3.647   5.779   2.462
   92Cl-    Cl- 1138   5.891   3.596   4.396
   93Cl-    Cl- 1139   3.222   1.289   3.720
   94Cl-    Cl- 1140   4.248   6.483   6.159
   95Cl-    Cl- 1141   1.905   4.151   3.231
   96Cl-    Cl- 1142   3.246   3.584   1.351
   97Cl-    Cl- 1143   4.544   2.784   6.217
   98Cl-    Cl- 1144   1.625   3.736   4.836
   99Cl-    Cl- 1145   5.663   1.532   3.825
  100Cl-    Cl- 1146   2.480   5.587   3.258
  101Cl-    Cl- 1147   4.613   2.383   1.345
  102Cl-    Cl- 1148   4.682   6.753   4.688
  103Cl-    Cl- 1149   3.660   1.508   5.385
  104Cl-    Cl- 1150   3.529   4.204   6.869
  105Cl-    Cl- 1151   4.420   4.694   1.474
  106Cl-    Cl- 1152   5.576   4.542   5.338
  107Cl-    Cl- 1153   3.500   1.681   2.477
  108Cl-    Cl- 1154   6.159   3.082   2.987
  109WAT      O 1155   6.904   6.688   6.379
  109WAT     H1 1156   6.880   6.737   6.311
  109WAT     H2 1157   6.991   6.681   6.369
  109WAT    EPW 1158   6.913   6.694   6.368
  110WAT      O 1159   6.885   7.380   6.846
  110WAT     H1 1160   6.833   7.439   6.883
  110WAT     H2 1161   6.925   7.343   6.915
  110WAT    EPW 1162   6.883   7.383   6.862
  111WAT      O 1163   5.846   7.173   6.043
  111WAT     H1 1164   5.769   7.189   6.007
  111WAT     H2 1165   5.850   7.086   6.045
  111WAT    EPW 1166   5.835   7.162   6.038
  112WAT      O 1167   7.152   7.486   6.514
  112WAT     H1 1168   7.160   7.487   6.427
  112WAT     H2 1169   7.094   7.423   6.529
  112WAT    EPW 1170   7.145   7.477   6.503
  113WAT      O 1171   6.551   6.797   6.295
  113WAT     H1 1172   6.544   6.865   6.240
  113WAT     H2 1173   6.625   6.758   6.270
  113WAT    EPW 1174   6.561   6.801   6.283
  114WAT      O 1175   6.011   7.519   6.438
  114WAT     H1 1176   5.964   7.480   6.375
  114WAT     H2 1177   6.081   7.468   6.447
  114WAT    EPW 1178   6.014   7.506   6.430
  115WAT      O 1179   6.461   7.080   6.972
  115WAT     H1 1180   6.529   7.082   6.917
  115WAT     H2 1181   6.457   6.997   6.997
  115WAT    EPW 1182   6.471   7.068   6.968
  116WAT      O 1183   6.211   7.329   6.440
  116WAT     H1 1184   6.292   7.311   6.464
  116WAT     H2 1185   6.163   7.268   6.480
  116WAT    EPW 1186   6.216   7.318   6.449
  117WAT      O 1187   6.834   7.285   7.456
  117WAT     H1 1188   6.749   7.276   7.438
  117WAT     H2 1189   6.837   7.360   7.501
  117WAT    EPW 1190   6.822   7.295   7.460
  118WAT      O 1191   6.270   6.839   6.367
  118WAT     H1 1192   6.241   6.889   6.302
  118WAT     H2 1193   6.357   6.847   6.361
  118WAT    EPW 1194   6.279   6.847   6.356
  119WAT      O 1195   7.289   6.581   7.367
  119WAT     H1 1196   7.274   6.658   7.329
  119WAT     H2 1197   7.212   6.559   7.402
  119WAT    EPW 1198   7.276   6.590   7.367
  120WAT      O 1199   6.568   6.753   6.589
  120WAT     H1 1200   6.576   6.839   6.602
  120WAT     H2 1201   6.565   6.745   6.502
  120WAT    EPW 1202   6.569   6.765   6.578
  121WAT      O 1203   7.036   7.046   5.819
  121WAT     H1 1204   6.991   7.114   5.849
  121WAT     H2 1205   7.047   6.995   5.889
  121WAT    EPW 1206   7.031   7.048   5.834
  122WAT      O 1207   5.856   7.295   6.739
  122WAT     H1 1208   5.831   7.379   6.731
  122WAT     H2 1209   5.790   7.257   6.781
  122WAT    EPW 1210   5.843   7.302   6.744
  123WAT      O 1211   6.159   6.777   6.788
  123WAT     H1 1212   6.107   6.714   6.757
  123WAT     H2 1213   6.218   6.733   6.835
  123WAT    EPW 1214   6.160   6.761   6.790
  124WAT      O 1215   7.575   7.043   6.448
  124WAT     H1 1216   7.540   7.111   6.491
  124WAT     H2 1217   7.511   6.983   6.450
  124WAT    EPW 1218   7.561   7.044   6.455
  125WAT      O 1219   6.063   6.950   7.616
  125WAT     H1 1220   5.985   6.911   7.609
  125WAT     H2 1221   6.112   6.909   7.557
  125WAT    EPW 1222   6.059   6.938   7.606
  126WAT      O 1223   6.728   6.714   7.533
  126WAT     H1 1224   6.746   6.634   7.506
  126WAT     H2 1225   6.714   6.759   7.459
  126WAT    EPW 1226   6.728   6.709   7.518
  127WAT      O 1227   6.787   7.207   6.410
  127WAT     H1 1228   6.816   7.184   6.331
  127WAT     H2 1229   6.861   7.215   6.457
  127WAT    EPW 1230   6.802   7.205   6.406
  128WAT      O 1231   6.860   7.241   5.922
  128WAT     H1 1232   6.888   7.320   5.947
  128WAT     H2 1233   6.782   7.257   5.886
  128WAT    EPW 1234   6.852   7.255   5.921
  129WAT      O 1235   5.798   7.005   7.375
  129WAT     H1 1236   5.797   7.064   7.439
  129WAT     H2 1237   5.857   7.036   7.319
  129WAT    EPW 1238   5.807   7.018   7.376
  130WAT      O 1239   7.096   6.848   6.009
  130WAT     H1 1240   7.150   6.779   6.017
  130WAT     H2 1241   7.102   6.887   6.087
  130WAT    EPW 1242   7.105   6.843   6.022
  131WAT      O 1243   5.892   6.964   6.266
  131WAT     H1 1244   5.880   6.878   6.269
  131WAT     H2 1245   5.844   6.994   6.333
  131WAT    EPW 1246   5.883   6.956   6.277
  132WAT      O 1247   6.822   7.085   6.141
  132WAT     H1 1248   6.771   7.019   6.115
  132WAT     H2 1249   6.827   7.136   6.070
  132WAT    EPW 1250   6.815   7.083   6.127
  133WAT      O 1251   6.822   6.779   6.130
  133WAT     H1 1252   6.776   6.739   6.067
  133WAT     H2 1253   6.899   6.795   6.092
  133WAT    EPW 1254   6.827   6.776   6.115
  134WAT      O 1255   6.682   7.016   6.582
  134WAT     H1 1256   6.689   7.073   6.516
  134WAT     H2 1257   6.694   7.065   6.653
  134WAT    EPW 1258   6.685   7.032   6.583
  135WAT      O 1259   6.143   6.598   6.417
  135WAT     H1 1260   6.196   6.667   6.416
  135WAT     H2 1261   6.143   6.571   6.334
  135WAT    EPW 1262   6.150   6.604   6.405
  136WAT      O 1263   7.061   7.033   7.171
  136WAT     H1 1264   7.051   7.065   7.252
  136WAT     H2 1265   7.002   6.969   7.167
  136WAT    EPW 1266   7.051   7.028   7.182
  137WAT      O 1267   7.187   6.627   6.455
  137WAT     H1 1268   7.191   6.596   6.536
  137WAT     H2 1269   7.219   6.563   6.405
  137WAT    EPW 1270   7.192   6.613   6.459
  138WAT      O 1271   7.433   7.051   7.285
  138WAT     H1 1272   7.510   7.029   7.319
  138WAT     H2 1273   7.385   7.073   7.355
  138WAT    EPW 1274   7.437   7.051   7.301
  139WAT      O 1275   6.187   6.979   6.582
  139WAT     H1 1276   6.215   6.936   6.512
  139WAT     H2 1277   6.170   6.916   6.639
  139WAT    EPW 1278   6.189   6.964   6.580
  140WAT      O 1279   6.001   7.090   6.891
  140WAT     H1 1280   6.086   7.112   6.886
  140WAT     H2 1281   5.963   7.147   6.837
  140WAT    EPW 1282   6.008   7.101   6.882
  141WAT      O 1283   7.246   7.403   5.963
  141WAT     H1 1284   7.224   7.476   5.920
  141WAT     H2 1285   7.201   7.408   6.037
  141WAT    EPW 1286   7.236   7.414   5.967
  142WAT      O 1287   7.465   6.844   6.136
  142WAT     H1 1288   7.539   6.804   6.156
  142WAT     H2 1289   7.491   6.916   6.093
  142WAT    EPW 1290   7.479   6.849   6.133
  143WAT      O 1291   7.110   7.073   6.643
  143WAT     H1 1292   7.144   7.088   6.722
  143WAT     H2 1293   7.065   6.999   6.654
  143WAT    EPW 1294   7.108   7.065   6.656
  144WAT      O 1295   6.558   6.995   6.089
  144WAT     H1 1296   6.557   6.984   6.002
  144WAT     H2 1297   6.539   7.080   6.098
  144WAT    EPW 1298   6.555   7.006   6.077
  145WAT      O 1299   6.144   7.339   7.538
  145WAT     H1 1300   6.091   7.288   7.585
  145WAT     H2 1301   6.146   7.300   7.460
  145WAT    EPW 1302   6.137   7.325   7.534
  146WAT      O 1303   6.193   7.278   6.052
  146WAT     H1 1304   6.180   7.234   6.126
  146WAT     H2 1305   6.135   7.244   5.997
  146WAT    EPW 1306   6.182   7.267   6.055
  147WAT      O 1307   6.210   7.461   6.712
  147WAT     H1 1308   6.131   7.456   6.674
  147WAT     H2 1309   6.217   7.386   6.756
  147WAT    EPW 1310   6.199   7.450   6.713
  148WAT      O 1311   6.253   7.435   7.059
  148WAT     H1 1312   6.255   7.368   7.004
  148WAT     H2 1313   6.188   7.485   7.028
  148WAT    EPW 1314   6.243   7.432   7.046
  149WAT      O 1315   7.242   7.206   6.899
  149WAT     H1 1316   7.176   7.239   6.945
  149WAT     H2 1317   7.261   7.270   6.842
  149WAT    EPW 1318   7.235   7.221   6.897
  150WAT      O 1319   6.907   6.797   7.241
  150WAT     H1 1320   6.921   6.715   7.217
  150WAT     H2 1321   6.944   6.803   7.320
  150WAT    EPW 1322   6.914   6.786   7.249
  151WAT      O 1323   7.061   7.003   6.250
  151WAT     H1 1324   7.110   7.075   6.242
  151WAT     H2 1325   6.982   7.029   6.223
  151WAT    EPW 1326   7.057   7.018   6.245
  152WAT      O 1327   6.720   7.150   6.822
  152WAT     H1 1328   6.768   7.220   6.843
  152WAT     H2 1329   6.757   7.086   6.867
  152WAT    EPW 1330   6.732   7.151   6.832
  153WAT      O 1331   6.938   7.467   6.050
  153WAT     H1 1332   6.938   7.539   6.001
  153WAT     H2 1333   6.875   7.481   6.107
  153WAT    EPW 1334   6.929   7.480   6.051
  154WAT      O 1335   6.398   6.701   6.016
  154WAT     H1 1336   6.407   6.691   6.102
  154WAT     H2 1337   6.327   6.752   6.009
  154WAT    EPW 1338   6.389   6.707   6.027
  155WAT      O 1339   7.471   6.676   7.555
  155WAT     H1 1340   7.407   6.636   7.511
  155WAT     H2 1341   7.473   6.632   7.631
  155WAT    EPW 1342   7.462   6.663   7.560
  156WAT      O 1343   5.810   6.698   6.237
  156WAT     H1 1344   5.823   6.627   6.188
  156WAT     H2 1345   5.773   6.666   6.309
  156WAT    EPW 1346   5.806   6.683   6.240
  157WAT      O 1347   6.779   7.466   6.282
  157WAT     H1 1348   6.785   7.531   6.340
  157WAT     H2 1349   6.760   7.397   6.332
  157WAT    EPW 1350   6.777   7.466   6.298
  158WAT      O 1351   6.229   6.918   5.934
  158WAT     H1 1352   6.177   6.923   5.863
  158WAT     H2 1353   6.307   6.942   5.904
  158WAT    EPW 1354   6.233   6.922   5.919
  159WAT      O 1355   6.409   7.157   6.631
  159WAT     H1 1356   6.494   7.138   6.640
  159WAT     H2 1357   6.372   7.080   6.617
  159WAT    EPW 1358   6.416   7.143   6.630
  160WAT      O 1359   5.891   7.291   6.296
  160WAT     H1 1360   5.940   7.262   6.362
  160WAT     H2 1361   5.904   7.232   6.233
  160WAT    EPW 1362   5.900   7.278   6.297
  161WAT      O 1363   6.344   7.435   5.845
  161WAT     H1 1364   6.283   7.394   5.892
  161WAT     H2 1365   6.305   7.446   5.767
  161WAT    EPW 1366   6.329   7.430   5.840
  162WAT      O 1367   6.489   7.281   6.116
  162WAT     H1 1368   6.516   7.363   6.122
  162WAT     H2 1369   6.403   7.288   6.106
  162WAT    EPW 1370   6.480   7.294   6.115
  163WAT      O 1371   7.286   6.993   7.579
  163WAT     H1 1372   7.234   7.039   7.631
  163WAT     H2 1373   7.250   6.913   7.578
  163WAT    EPW 1374   7.273   6.988   7.587
  164WAT      O 1375   5.837   6.878   6.769
  164WAT     H1 1376   5.842   6.912   6.689
  164WAT     H2 1377   5.913   6.901   6.806
  164WAT    EPW 1378   5.849   6.886   6.763
  165WAT      O 1379   7.136   7.350   7.587
  165WAT     H1 1380   7.143   7.360   7.673
  165WAT     H2 1381   7.072   7.406   7.564
  165WAT    EPW 1382   7.127   7.360   7.596
  166WAT      O 1383   7.362   7.382   7.423
  166WAT     H1 1384   7.394   7.460   7.443
  166WAT     H2 1385   7.325   7.355   7.497
  166WAT    EPW 1386   7.362   7.389   7.437
  167WAT      O 1387   7.342   7.208   6.542
  167WAT     H1 1388   7.268   7.175   6.574
  167WAT     H2 1389   7.342   7.290   6.570
  167WAT    EPW 1390   7.331   7.215   6.551
  168WAT      O 1391   7.233   6.841   7.288
  168WAT     H1 1392   7.308   6.886   7.282
  168WAT     H2 1393   7.177   6.888   7.241
  168WAT    EPW 1394   7.236   6.854   7.280
  169WAT      O 1395   6.422   7.129   7.270
  169WAT     H1 1396   6.438   7.055   7.313
  169WAT     H2 1397   6.418   7.104   7.186
  169WAT    EPW 1398   6.424   7.115   7.264
  170WAT      O 1399   7.362   6.639   7.055
  170WAT     H1 1400   7.334   6.721   7.051
  170WAT     H2 1401   7.433   6.644   7.105
  170WAT    EPW 1402   7.368   6.652   7.062
  171WAT      O 1403   6.597   6.710   7.258
  171WAT     H1 1404   6.668   6.742   7.218
  171WAT     H2 1405   6.621   6.629   7.281
  171WAT    EPW 1406   6.611   6.703   7.255
  172WAT      O 1407   7.504   7.264   5.941
  172WAT     H1 1408   7.542   7.332   5.901
  172WAT     H2 1409   7.420   7.286   5.944
  172WAT    EPW 1410   7.497   7.277   5.935
  173WAT      O 1411   6.248   7.215   6.864
  173WAT     H1 1412   6.292   7.205   6.789
  173WAT     H2 1413   6.303   7.184   6.925
  173WAT    EPW 1414   6.263   7.209   6.862
  174WAT      O 1415   7.050   7.126   7.423
  174WAT     H1 1416   6.985   7.173   7.458
  174WAT     H2 1417   7.106   7.117   7.489
  174WAT    EPW 1418   7.049   7.131   7.438
  175WAT      O 1419   7.019   7.279   7.053
  175WAT     H1 1420   7.049   7.321   7.123
  175WAT     H2 1421   7.022   7.195   7.076
  175WAT    EPW 1422   7.024   7.273   7.067
  176WAT      O 1423   7.273   7.224   6.278
  176WAT     H1 1424   7.294   7.204   6.361
  176WAT     H2 1425   7.349   7.251   6.244
  176WAT    EPW 1426   7.288   7.225   6.285
  177WAT      O 1427   6.603   6.714   6.869
  177WAT     H1 1428   6.520   6.699   6.892
  177WAT     H2 1429   6.599   6.717   6.782
  177WAT    EPW 1430   6.590   6.712   6.859
  178WAT      O 1431   7.376   6.832   6.426
  178WAT     H1 1432   7.304   6.785   6.443
  178WAT     H2 1433   7.359   6.866   6.347
  178WAT    EPW 1434   7.363   6.830   6.417
  179WAT      O 1435   5.859   6.754   7.472
  179WAT     H1 1436   5.845   6.833   7.439
  179WAT     H2 1437   5.781   6.729   7.501
  179WAT    EPW 1438   5.846   6.762   7.472
  180WAT      O 1439   6.166   7.028   6.195
  180WAT     H1 1440   6.178   6.995   6.115
  180WAT     H2 1441   6.085   7.003   6.215
  180WAT    EPW 1442   6.156   7.020   6.186
  181WAT      O 1443   7.085   7.410   7.297
  181WAT     H1 1444   7.059   7.338   7.339
  181WAT     H2 1445   7.167   7.422   7.324
  181WAT    EPW 1446   7.093   7.401   7.307
  182WAT      O 1447   6.163   7.229   7.236
  182WAT     H1 1448   6.201   7.291   7.188
  182WAT     H2 1449   6.231   7.182   7.265
  182WAT    EPW 1450   6.179   7.231   7.233
  183WAT      O 1451   5.941   7.074   7.164
  183WAT     H1 1452   5.949   7.057   7.079
  183WAT     H2 1453   6.016   7.115   7.184
  183WAT    EPW 1454   5.953   7.077   7.154
  184WAT      O 1455   7.497   7.338   6.208
  184WAT     H1 1456   7.507   7.332   6.121
  184WAT     H2 1457   7.571   7.305   6.240
  184WAT    EPW 1458   7.509   7.332   6.200
  185WAT      O 1459   6.196   6.815   7.405
  185WAT     H1 1460   6.188   6.731   7.426
  185WAT     H2 1461   6.165   6.819   7.324
  185WAT    EPW 1462   6.191   6.803   7.396
  186WAT      O 1463   7.407   7.353   7.143
  186WAT     H1 1464   7.407   7.266   7.156
  186WAT     H2 1465   7.414   7.385   7.224
  186WAT    EPW 1466   7.408   7.345   7.157
  187WAT      O 1467   6.026   7.190   5.848
  187WAT     H1 1468   5.959   7.192   5.904
  187WAT     H2 1469   6.036   7.105   5.830
  187WAT    EPW 1470   6.018   7.178   5.854
  188WAT      O 1471   6.995   6.833   7.522
  188WAT     H1 1472   7.004   6.904   7.571
  188WAT     H2 1473   6.931   6.788   7.561
  188WAT    EPW 1474   6.987   6.836   7.535
  189WAT      O 1475   6.894   6.852   6.607
  189WAT     H1 1476   6.824   6.903   6.601
  189WAT     H2 1477   6.898   6.814   6.529
  189WAT    EPW 1478   6.885   6.854   6.595
  190WAT      O 1479   7.254   6.903   6.887
  190WAT     H1 1480   7.340   6.913   6.902
  190WAT     H2 1481   7.217   6.958   6.944
  190WAT    EPW 1482   7.261   6.913   6.898
  191WAT      O 1483   7.285   7.431   6.736
  191WAT     H1 1484   7.351   7.485   6.752
  191WAT     H2 1485   7.250   7.462   6.662
  191WAT    EPW 1486   7.289   7.444   6.728
  192WAT      O 1487   6.400   6.823   7.070
  192WAT     H1 1488   6.313   6.832   7.078
  192WAT     H2 1489   6.422   6.772   7.137
  192WAT    EPW 1490   6.390   6.817   7.081
  193WAT      O 1491   6.810   6.898   6.907
  193WAT     H1 1492   6.736   6.853   6.918
  193WAT     H2 1493   6.867   6.858   6.959
  193WAT    EPW 1494   6.808   6.886   6.917
  194WAT      O 1495   6.560   7.331   7.428
  194WAT     H1 1496   6.528   7.274   7.371
  194WAT     H2 1497   6.525   7.407   7.403
  194WAT    EPW 1498   6.550   7.334   7.416
  195WAT      O 1499   6.640   6.656   5.890
  195WAT     H1 1500   6.648   6.681   5.807
  195WAT     H2 1501   6.566   6.694   5.916
  195WAT    EPW 1502   6.630   6.666   5.882
  196WAT      O 1503   6.122   6.832   7.135
  196WAT     H1 1504   6.088   6.755   7.111
  196WAT     H2 1505   6.052   6.884   7.141
  196WAT    EPW 1506   6.107   6.828   7.132
  197WAT      O 1507   7.026   6.717   6.832
  197WAT     H1 1508   7.093   6.772   6.845
  197WAT     H2 1509   6.976   6.760   6.775
  197WAT    EPW 1510   7.029   6.732   6.826
  198WAT      O 1511   6.962   7.298   6.582
  198WAT     H1 1512   7.017   7.237   6.612
  198WAT     H2 1513   6.920   7.324   6.653
  198WAT    EPW 1514   6.964   7.293   6.596
  199WAT      O 1515   5.987   7.163   6.530
  199WAT     H1 1516   5.950   7.193   6.603
  199WAT     H2 1517   6.041   7.100   6.559
  199WAT    EPW 1518   5.990   7.158   6.545
  200WAT      O 1519   7.159   7.481   6.238
  200WAT     H1 1520   7.166   7.396   6.256
  200WAT     H2 1521   7.077   7.490   6.210
  200WAT    EPW 1522   7.148   7.470   6.236
  201WAT      O 1523   7.549   7.075   7.627
  201WAT     H1 1524   7.530   7.139   7.682
  201WAT     H2 1525   7.477   7.026   7.626
  201WAT    EPW 1526   7.536   7.077   7.635
  202WAT      O 1527   7.539   7.169   6.924
  202WAT     H1 1528   7.456   7.194   6.917
  202WAT     H2 1529   7.534   7.085   6.947
  202WAT    EPW 1530   7.526   7.160   6.926
  203WAT      O 1531   6.465   6.868   7.443
  203WAT     H1 1532   6.489   6.810   7.382
  203WAT     H2 1533   6.381   6.850   7.457
  203WAT    EPW 1534   6.456   6.857   7.436
  204WAT      O 1535   6.904   6.688   4.479
  204WAT     H1 1536   6.880   6.737   4.411
  204WAT     H2 1537   6.991   6.681   4.469
  204WAT    EPW 1538   6.913   6.694   4.467
  205WAT      O 1539   6.885   7.380   4.946
  205WAT     H1 1540   6.833   7.439   4.982
  205WAT     H2 1541   6.925   7.343   5.014
  205WAT    EPW 1542   6.883   7.383   4.961
  206WAT      O 1543   5.846   7.173   4.142
  206WAT     H1 1544   5.769   7.189   4.106
  206WAT     H2 1545   5.850   7.086   4.144
  206WAT    EPW 1546   5.835   7.162   4.137
  207WAT      O 1547   7.152   7.486   4.613
  207WAT     H1 1548   7.160   7.487   4.526
  207WAT     H2 1549   7.094   7.423   4.628
  207WAT    EPW 1550   7.145   7.477   4.603
  208WAT      O 1551   6.551   6.797   4.394
  208WAT     H1 1552   6.544   6.865   4.340
  208WAT     H2 1553   6.625   6.758   4.369
  208WAT    EPW 1554   6.561   6.801   4.382
  209WAT      O 1555   6.011   7.519   4.537
  209WAT     H1 1556   5.964   7.480   4.474
  209WAT     H2 1557   6.081   7.468   4.546
  209WAT    EPW 1558   6.014   7.506   4.529
  210WAT      O 1559   6.461   7.080   5.072
  210WAT     H1 1560   6.529   7.082   5.017
  210WAT     H2 1561   6.457   6.997   5.096
  210WAT    EPW 1562   6.471   7.068   5.067
  211WAT      O 1563   6.211   7.329   4.539
  211WAT     H1 1564   6.292   7.311   4.564
  211WAT     H2 1565   6.163   7.268   4.579
  211WAT    EPW 1566   6.216   7.318   4.549
  212WAT      O 1567   6.834   7.285   5.555
  212WAT     H1 1568   6.749   7.276   5.538
  212WAT     H2 1569   6.837   7.360   5.601
  212WAT    EPW 1570   6.822   7.295   5.559
  213WAT      O 1571   6.270   6.839   4.466
  213WAT     H1 1572   6.241   6.889   4.401
  213WAT     H2 1573   6.357   6.847   4.460
  213WAT    EPW 1574   6.279   6.847   4.456
  214WAT      O 1575   7.289   6.581   5.467
  214WAT     H1 1576   7.274   6.658   5.429
  214WAT     H2 1577   7.212   6.559   5.501
  214WAT    EPW 1578   7.276   6.590   5.466
  215WAT      O 1579   6.568   6.753   4.688
  215WAT     H1 1580   6.576   6.839   4.701
  215WAT     H2 1581   6.565   6.745   4.601
  215WAT    EPW 1582   6.569   6.765   4.677
  216WAT      O 1583   7.036   7.046   3.918
  216WAT     H1 1584   6.991   7.114   3.949
  216WAT     H2 1585   7.047   6.995   3.988
  216WAT    EPW 1586   7.031   7.048   3.933
  217WAT      O 1587   5.856   7.295   4.838
  217WAT     H1 1588   5.831   7.379   4.831
  217WAT     H2 1589   5.790   7.257   4.880
  217WAT    EPW 1590   5.843   7.302   4.843
  218WAT      O 1591   6.159   6.777   4.887
  218WAT     H1 1592   6.107   6.714   4.857
  218WAT     H2 1593   6.218   6.733   4.935
  218WAT    EPW 1594   6.160   6.761   4.890
  219WAT      O 1595   6.490   6.990   5.817
  219WAT     H1 1596   6.501   6.945   5.744
  219WAT     H2 1597   6.519   7.070   5.797
  219WAT    EPW 1598   6.496   6.996   5.803
  220WAT      O 1599   7.575   7.043   4.548
  220WAT     H1 1600   7.540   7.111   4.590
  220WAT     H2 1601   7.511   6.983   4.549
  220WAT    EPW 1602   7.561   7.044   4.554
  221WAT      O 1603   6.063   6.950   5.716
  221WAT     H1 1604   5.985   6.911   5.708
  221WAT     H2 1605   6.112   6.909   5.657
  221WAT    EPW 1606   6.059   6.938   5.706
  222WAT      O 1607   6.728   6.714   5.632
  222WAT     H1 1608   6.746   6.634   5.605
  222WAT     H2 1609   6.714   6.759   5.559
  222WAT    EPW 1610   6.728   6.709   5.617
  223WAT      O 1611   6.787   7.207   4.510
  223WAT     H1 1612   6.816   7.184   4.431
  223WAT     H2 1613   6.861   7.215   4.557
  223WAT    EPW 1614   6.802   7.205   4.505
  224WAT      O 1615   6.860   7.241   4.022
  224WAT     H1 1616   6.888   7.320   4.047
  224WAT     H2 1617   6.782   7.257   3.986
  224WAT    EPW 1618   6.852   7.255   4.020
  225WAT      O 1619   5.798   7.005   5.474
  225WAT     H1 1620   5.797   7.064   5.539
  225WAT     H2 1621   5.857   7.036   5.419
  225WAT    EPW 1622   5.807   7.018   5.476
  226WAT      O 1623   7.096   6.848   4.109
  226WAT     H1 1624   7.150   6.779   4.116
  226WAT     H2 1625   7.102   6.887   4.186
  226WAT    EPW 1626   7.105   6.843   4.121
  227WAT      O 1627   5.892   6.964   4.366
  227WAT     H1 1628   5.880   6.878   4.369
  227WAT     H2 1629   5.844   6.994   4.433
  227WAT    EPW 1630   5.883   6.956   4.376
  228WAT      O 1631   6.822   7.085   4.240
  228WAT     H1 1632   6.771   7.019   4.215
  228WAT     H2 1633   6.827   7.136   4.169
  228WAT    EPW 1634   6.815   7.083   4.226
  229WAT      O 1635   6.822   6.779   4.229
  229WAT     H1 1636   6.776   6.739   4.167
  229WAT     H2 1637   6.899   6.795   4.192
  229WAT    EPW 1638   6.827   6.776   4.215
  230WAT      O 1639   6.682   7.016   4.682
  230WAT     H1 1640   6.689   7.073   4.616
  230WAT     H2 1641   6.694   7.065   4.753
  230WAT    EPW 1642   6.685   7.032   4.682
  231WAT      O 1643   6.143   6.598   4.516
  231WAT     H1 1644   6.196   6.667   4.515
  231WAT     H2 1645   6.143   6.571   4.434
  231WAT    EPW 1646   6.150   6.604   4.504
  232WAT      O 1647   7.061   7.033   5.270
  232WAT     H1 1648   7.051   7.065   5.351
  232WAT     H2 1649   7.002   6.969   5.267
  232WAT    EPW 1650   7.051   7.028   5.282
  233WAT      O 1651   7.187   6.627   4.554
  233WAT     H1 1652   7.191   6.596   4.635
  233WAT     H2 1653   7.219   6.563   4.505
  233WAT    EPW 1654   7.192   6.613   4.559
  234WAT      O 1655   7.433   7.051   5.385
  234WAT     H1 1656   7.510   7.029   5.418
  234WAT     H2 1657   7.385   7.073   5.455
  234WAT    EPW 1658   7.437   7.051   5.400
  235WAT      O 1659   6.187   6.979   4.682
  235WAT     H1 1660   6.215   6.936   4.611
  235WAT     H2 1661   6.170   6.916   4.739
  235WAT    EPW 1662   6.189   6.964   4.680
  236WAT      O 1663   6.001   7.090   4.990
  236WAT     H1 1664   6.086   7.112   4.986
  236WAT     H2 1665   5.963   7.147   4.937
  236WAT    EPW 1666   6.008   7.101   4.981
  237WAT      O 1667   7.246   7.403   4.062
  237WAT     H1 1668   7.224   7.476   4.020
  237WAT     H2 1669   7.201   7.408   4.137
  237WAT    EPW 1670   7.236   7.414   4.067
  238WAT      O 1671   6.587   7.258   5.802
  238WAT     H1 1672   6.538   7.316   5.846
  238WAT     H2 1673   6.584   7.288   5.720
  238WAT    EPW 1674   6.579   7.271   5.796
  239WAT      O 1675   7.465   6.844   4.235
  239WAT     H1 1676   7.539   6.804   4.255
  239WAT     H2 1677   7.491   6.916   4.193
  239WAT    EPW 1678   7.479   6.849   4.232
  240WAT      O 1679   7.110   7.073   4.743
  240WAT     H1 1680   7.144   7.088   4.821
  240WAT     H2 1681   7.065   6.999   4.754
  240WAT    EPW 1682   7.108   7.065   4.756
  241WAT      O 1683   6.558   6.995   4.188
  241WAT     H1 1684   6.557   6.984   4.102
  241WAT     H2 1685   6.539   7.080   4.197
  241WAT    EPW 1686   6.555   7.006   4.177
  242WAT      O 1687   6.144   7.339   5.638
  242WAT     H1 1688   6.091   7.288   5.684
  242WAT     H2 1689   6.146   7.300   5.560
  242WAT    EPW 1690   6.137   7.325   5.633
  243WAT      O 1691   6.193   7.278   4.152
  243WAT     H1 1692   6.180   7.234   4.225
  243WAT     H2 1693   6.135   7.244   4.096
  243WAT    EPW 1694   6.182   7.267   4.154
  244WAT      O 1695   6.210   7.461   4.812
  244WAT     H1 1696   6.131   7.456   4.773
  244WAT     H2 1697   6.217   7.386   4.855
  244WAT    EPW 1698   6.199   7.450   4.812
  245WAT      O 1699   6.253   7.435   5.158
  245WAT     H1 1700   6.255   7.368   5.103
  245WAT     H2 1701   6.188   7.485   5.127
  245WAT    EPW 1702   6.243   7.432   5.146
  246WAT      O 1703   7.242   7.206   4.998
  246WAT     H1 1704   7.176   7.239   5.044
  246WAT     H2 1705   7.261   7.270   4.941
  246WAT    EPW 1706   7.235   7.221   4.996
  247WAT      O 1707   6.907   6.797   5.341
  247WAT     H1 1708   6.921   6.715   5.317
  247WAT     H2 1709   6.944   6.803   5.419
  247WAT    EPW 1710   6.914   6.786   5.349
  248WAT      O 1711   7.061   7.003   4.349
  248WAT     H1 1712   7.110   7.075   4.341
  248WAT     H2 1713   6.982   7.029   4.323
  248WAT    EPW 1714   7.057   7.018   4.344
  249WAT      O 1715   6.720   7.150   4.922
  249WAT     H1 1716   6.768   7.220   4.942
  249WAT     H2 1717   6.757   7.086   4.967
  249WAT    EPW 1718   6.732   7.151   4.931
  250WAT      O 1719   6.938   7.467   4.149
  250WAT     H1 1720   6.938   7.539   4.100
  250WAT     H2 1721   6.875   7.481   4.207
  250WAT    EPW 1722   6.929   7.480   4.150
  251WAT      O 1723   6.398   6.701   4.115
  251WAT     H1 1724   6.407   6.691   4.201
  251WAT     H2 1725   6.327   6.752   4.109
  251WAT    EPW 1726   6.389   6.707   4.127
  252WAT      O 1727   7.471   6.676   5.655
  252WAT     H1 1728   7.407   6.636   5.611
  252WAT     H2 1729   7.473   6.632   5.731
  252WAT    EPW 1730   7.462   6.663   5.659
  253WAT      O 1731   5.810   6.698   4.336
  253WAT     H1 1732   5.823   6.627   4.287
  253WAT     H2 1733   5.773   6.666   4.409
  253WAT    EPW 1734   5.806   6.683   4.340
  254WAT      O 1735   6.779   7.466   4.382
  254WAT     H1 1736   6.785   7.531   4.440
  254WAT     H2 1737   6.760   7.397   4.431
  254WAT    EPW 1738   6.777   7.466   4.398
  255WAT      O 1739   6.229   6.918   4.033
  255WAT     H1 1740   6.177   6.923   3.962
  255WAT     H2 1741   6.307   6.942   4.003
  255WAT    EPW 1742   6.233   6.922   4.018
  256WAT      O 1743   6.409   7.157   4.730
  256WAT     H1 1744   6.494   7.138   4.740
  256WAT     H2 1745   6.372   7.080   4.716
  256WAT    EPW 1746   6.416   7.143   4.729
  257WAT      O 1747   5.891   7.291   4.396
  257WAT     H1 1748   5.940   7.262   4.462
  257WAT     H2 1749   5.904   7.232   4.333
  257WAT    EPW 1750   5.900   7.278   4.396
  258WAT      O 1751   6.344   7.435   3.944
  258WAT     H1 1752   6.283   7.394   3.992
  258WAT     H2 1753   6.305   7.446   3.867
  258WAT    EPW 1754   6.329   7.430   3.940
  259WAT      O 1755   6.489   7.281   4.215
  259WAT     H1 1756   6.516   7.363   4.222
  259WAT     H2 1757   6.403   7.288   4.206
  259WAT    EPW 1758   6.480   7.294   4.215
  260WAT      O 1759   7.286   6.993   5.678
  260WAT     H1 1760   7.234   7.039   5.731
  260WAT     H2 1761   7.250   6.913   5.678
  260WAT    EPW 1762   7.273   6.988   5.686
  261WAT      O 1763   5.837   6.878   4.869
  261WAT     H1 1764   5.842   6.912   4.789
  261WAT     H2 1765   5.913   6.901   4.905
  261WAT    EPW 1766   5.849   6.886   4.862
  262WAT      O 1767   7.136   7.350   5.686
  262WAT     H1 1768   7.143   7.360   5.772
  262WAT     H2 1769   7.072   7.406   5.664
  262WAT    EPW 1770   7.127   7.360   5.695
  263WAT      O 1771   7.362   7.382   5.522
  263WAT     H1 1772   7.394   7.460   5.543
  263WAT     H2 1773   7.325   7.355   5.597
  263WAT    EPW 1774   7.362   7.389   5.536
  264WAT      O 1775   7.342   7.208   4.641
  264WAT     H1 1776   7.268   7.175   4.673
  264WAT     H2 1777   7.342   7.290   4.669
  264WAT    EPW 1778   7.331   7.215   4.650
  265WAT      O 1779   7.233   6.841   5.387
  265WAT     H1 1780   7.308   6.886   5.381
  265WAT     H2 1781   7.177   6.888   5.341
  265WAT    EPW 1782   7.236   6.854   5.380
  266WAT      O 1783   6.422   7.129   5.369
  266WAT     H1 1784   6.438   7.055   5.412
  266WAT     H2 1785   6.418   7.104   5.286
  266WAT    EPW 1786   6.424   7.115   5.363
  267WAT      O 1787   7.362   6.639   5.154
  267WAT     H1 1788   7.334   6.721   5.150
  267WAT     H2 1789   7.433   6.644   5.204
  267WAT    EPW 1790   7.368   6.652   5.161
  268WAT      O 1791   6.597   6.710   5.357
  268WAT     H1 1792   6.668   6.742   5.317
  268WAT     H2 1793   6.621   6.629   5.380
  268WAT    EPW 1794   6.611   6.703   5.355
  269WAT      O 1795   7.504   7.264   4.040
  269WAT     H1 1796   7.542   7.332   4.000
  269WAT     H2 1797   7.420   7.286   4.043
  269WAT    EPW 1798   7.497   7.277   4.035
  270WAT      O 1799   6.248   7.215   4.963
  270WAT     H1 1800   6.292   7.205   4.889
  270WAT     H2 1801   6.303   7.184   5.024
  270WAT    EPW 1802   6.263   7.209   4.961
  271WAT      O 1803   7.050   7.126   5.523
  271WAT     H1 1804   6.985   7.173   5.557
  271WAT     H2 1805   7.106   7.117   5.589
  271WAT    EPW 1806   7.049   7.131   5.538
  272WAT      O 1807   7.019   7.279   5.152
  272WAT     H1 1808   7.049   7.321   5.223
  272WAT     H2 1809   7.022   7.195   5.176
  272WAT    EPW 1810   7.024   7.273   5.166
  273WAT      O 1811   7.273   7.224   4.378
  273WAT     H1 1812   7.294   7.204   4.460
  273WAT     H2 1813   7.349   7.251   4.343
  273WAT    EPW 1814   7.288   7.225   4.385
  274WAT      O 1815   6.603   6.714   4.968
  274WAT     H1 1816   6.520   6.699   4.992
  274WAT     H2 1817   6.599   6.717   4.881
  274WAT    EPW 1818   6.590   6.712   4.959
  275WAT      O 1819   7.376   6.832   4.525
  275WAT     H1 1820   7.304   6.785   4.542
  275WAT     H2 1821   7.359   6.866   4.446
  275WAT    EPW 1822   7.363   6.830   4.516
  276WAT      O 1823   5.859   6.754   5.572
  276WAT     H1 1824   5.845   6.833   5.539
  276WAT     H2 1825   5.781   6.729   5.601
  276WAT    EPW 1826   5.846   6.762   5.571
  277WAT      O 1827   6.166   7.028   4.294
  277WAT     H1 1828   6.178   6.995   4.214
  277WAT     H2 1829   6.085   7.003   4.314
  277WAT    EPW 1830   6.156   7.020   4.285
  278WAT      O 1831   7.085   7.410   5.396
  278WAT     H1 1832   7.059   7.338   5.439
  278WAT     H2 1833   7.167   7.422   5.423
  278WAT    EPW 1834   7.093   7.401   5.407
  279WAT      O 1835   6.163   7.229   5.336
  279WAT     H1 1836   6.201   7.291   5.287
  279WAT     H2 1837   6.231   7.182   5.364
  279WAT    EPW 1838   6.179   7.231   5.333
  280WAT      O 1839   5.941   7.074   5.263
  280WAT     H1 1840   5.949   7.057   5.178
  280WAT     H2 1841   6.016   7.115   5.283
  280WAT    EPW 1842   5.953   7.077   5.254
  281WAT      O 1843   7.497   7.338   4.307
  281WAT     H1 1844   7.507   7.332   4.221
  281WAT     H2 1845   7.571   7.305   4.339
  281WAT    EPW 1846   7.509   7.332   4.299
  282WAT      O 1847   6.196   6.815   5.504
  282WAT     H1 1848   6.188   6.731   5.525
  282WAT     H2 1849   6.165   6.819   5.423
  282WAT    EPW 1850   6.191   6.803   5.495
  283WAT      O 1851   7.407   7.353   5.243
  283WAT     H1 1852   7.407   7.266   5.255
  283WAT     H2 1853   7.414   7.385   5.324
  283WAT    EPW 1854   7.408   7.345   5.257
  284WAT      O 1855   6.026   7.190   3.947
  284WAT     H1 1856   5.959   7.192   4.003
  284WAT     H2 1857   6.036   7.105   3.929
  284WAT    EPW 1858   6.018   7.178   3.953
  285WAT      O 1859   6.995   6.833   5.621
  285WAT     H1 1860   7.004   6.904   5.670
  285WAT     H2 1861   6.931   6.788   5.661
  285WAT    EPW 1862   6.987   6.836   5.634
  286WAT      O 1863   6.894   6.852   4.706
  286WAT     H1 1864   6.824   6.903   4.701
  286WAT     H2 1865   6.898   6.814   4.628
  286WAT    EPW 1866   6.885   6.854   4.694
  287WAT      O 1867   7.254   6.903   4.986
  287WAT     H1 1868   7.340   6.913   5.001
  287WAT     H2 1869   7.217   6.958   5.043
  287WAT    EPW 1870   7.261   6.913   4.997
  288WAT      O 1871   7.285   7.431   4.836
  288WAT     H1 1872   7.351   7.485   4.852
  288WAT     H2 1873   7.250   7.462   4.762
  288WAT    EPW 1874   7.289   7.444   4.827
  289WAT      O 1875   6.400   6.823   5.169
  289WAT     H1 1876   6.313   6.832   5.177
  289WAT     H2 1877   6.422   6.772   5.236
  289WAT    EPW 1878   6.390   6.817   5.180
  290WAT      O 1879   6.810   6.898   5.007
  290WAT     H1 1880   6.736   6.853   5.018
  290WAT     H2 1881   6.867   6.858   5.059
  290WAT    EPW 1882   6.808   6.886   5.016
  291WAT      O 1883   6.560   7.331   5.527
  291WAT     H1 1884   6.528   7.274   5.470
  291WAT     H2 1885   6.525   7.407   5.502
  291WAT    EPW 1886   6.550   7.334   5.515
  292WAT      O 1887   6.640   6.656   3.990
  292WAT     H1 1888   6.648   6.681   3.906
  292WAT     H2 1889   6.566   6.694   4.015
  292WAT    EPW 1890   6.630   6.666   3.981
  293WAT      O 1891   6.122   6.832   5.234
  293WAT     H1 1892   6.088   6.755   5.211
  293WAT     H2 1893   6.052   6.884   5.240
  293WAT    EPW 1894   6.107   6.828   5.231
  294WAT      O 1895   7.026   6.717   4.932
  294WAT     H1 1896   7.093   6.772   4.944
  294WAT     H2 1897   6.976   6.760   4.874
  294WAT    EPW 1898   7.029   6.732   4.925
  295WAT      O 1899   6.962   7.298   4.681
  295WAT     H1 1900   7.017   7.237   4.711
  295WAT     H2 1901   6.920   7.324   4.752
  295WAT    EPW 1902   6.964   7.293   4.696
  296WAT      O 1903   5.987   7.163   4.630
  296WAT     H1 1904   5.950   7.193   4.703
  296WAT     H2 1905   6.041   7.100   4.658
  296WAT    EPW 1906   5.990   7.158   4.645
  297WAT      O 1907   7.159   7.481   4.337
  297WAT     H1 1908   7.166   7.396   4.355
  297WAT     H2 1909   7.077   7.490   4.309
  297WAT    EPW 1910   7.148   7.470   4.336
  298WAT      O 1911   7.549   7.075   5.726
  298WAT     H1 1912   7.530   7.139   5.782
  298WAT     H2 1913   7.477   7.026   5.725
  298WAT    EPW 1914   7.536   7.077   5.734
  299WAT      O 1915   7.539   7.169   5.023
  299WAT     H1 1916   7.456   7.194   5.016
  299WAT     H2 1917   7.534   7.085   5.046
  299WAT    EPW 1918   7.526   7.160   5.025
  300WAT      O 1919   6.465   6.868   5.543
  300WAT     H1 1920   6.489   6.810   5.481
  300WAT     H2 1921   6.381   6.850   5.557
  300WAT    EPW 1922   6.456   6.857   5.536
  301WAT      O 1923   6.904   6.688   2.578
  301WAT     H1 1924   6.880   6.737   2.510
  301WAT     H2 1925   6.991   6.681   2.568
  301WAT    EPW 1926   6.913   6.694   2.567
  302WAT      O 1927   6.885   7.380   3.045
  302WAT     H1 1928   6.833   7.439   3.081
  302WAT     H2 1929   6.925   7.343   3.114
  302WAT    EPW 1930   6.883   7.383   3.061
  303WAT      O 1931   5.846   7.173   2.241
  303WAT     H1 1932   5.769   7.189   2.205
  303WAT     H2 1933   5.850   7.086   2.244
  303WAT    EPW 1934   5.835   7.162   2.236
  304WAT      O 1935   7.152   7.486   2.713
  304WAT     H1 1936   7.160   7.487   2.626
  304WAT     H2 1937   7.094   7.423   2.728
  304WAT    EPW 1938   7.145   7.477   2.702
  305WAT      O 1939   6.551   6.797   2.494
  305WAT     H1 1940   6.544   6.865   2.439
  305WAT     H2 1941   6.625   6.758   2.469
  305WAT    EPW 1942   6.561   6.801   2.482
  306WAT      O 1943   6.011   7.519   2.636
  306WAT     H1 1944   5.964   7.480   2.574
  306WAT     H2 1945   6.081   7.468   2.646
  306WAT    EPW 1946   6.014   7.506   2.629
  307WAT      O 1947   6.461   7.080   3.171
  307WAT     H1 1948   6.529   7.082   3.116
  307WAT     H2 1949   6.457   6.997   3.196
  307WAT    EPW 1950   6.471   7.068   3.167
  308WAT      O 1951   6.211   7.329   2.639
  308WAT     H1 1952   6.292   7.311   2.663
  308WAT     H2 1953   6.163   7.268   2.678
  308WAT    EPW 1954   6.216   7.318   2.648
  309WAT      O 1955   6.834   7.285   3.655
  309WAT     H1 1956   6.749   7.276   3.637
  309WAT     H2 1957   6.837   7.360   3.700
  309WAT    EPW 1958   6.822   7.295   3.659
  310WAT      O 1959   6.270   6.839   2.565
  310WAT     H1 1960   6.241   6.889   2.500
  310WAT     H2 1961   6.357   6.847   2.560
  310WAT    EPW 1962   6.279   6.847   2.555
  311WAT      O 1963   7.289   6.581   3.566
  311WAT     H1 1964   7.274   6.658   3.528
  311WAT     H2 1965   7.212   6.559   3.601
  311WAT    EPW 1966   7.276   6.590   3.566
  312WAT      O 1967   6.568   6.753   2.788
  312WAT     H1 1968   6.576   6.839   2.801
  312WAT     H2 1969   6.565   6.745   2.701
  312WAT    EPW 1970   6.569   6.765   2.777
  313WAT      O 1971   7.036   7.046   2.018
  313WAT     H1 1972   6.991   7.114   2.048
  313WAT     H2 1973   7.047   6.995   2.088
  313WAT    EPW 1974   7.031   7.048   2.032
  314WAT      O 1975   5.856   7.295   2.938
  314WAT     H1 1976   5.831   7.379   2.930
  314WAT     H2 1977   5.790   7.257   2.979
  314WAT    EPW 1978   5.843   7.302   2.943
  315WAT      O 1979   6.159   6.777   2.987
  315WAT     H1 1980   6.107   6.714   2.956
  315WAT     H2 1981   6.218   6.733   3.034
  315WAT    EPW 1982   6.160   6.761   2.989
  316WAT      O 1983   6.490   6.990   3.917
  316WAT     H1 1984   6.501   6.945   3.843
  316WAT     H2 1985   6.519   7.070   3.896
  316WAT    EPW 1986   6.496   6.996   3.903
  317WAT      O 1987   7.575   7.043   2.647
  317WAT     H1 1988   7.540   7.111   2.690
  317WAT     H2 1989   7.511   6.983   2.649
  317WAT    EPW 1990   7.561   7.044   2.654
  318WAT      O 1991   6.063   6.950   3.815
  318WAT     H1 1992   5.985   6.911   3.808
  318WAT     H2 1993   6.112   6.909   3.756
  318WAT    EPW 1994   6.059   6.938   3.805
  319WAT      O 1995   6.728   6.714   3.732
  319WAT     H1 1996   6.746   6.634   3.704
  319WAT     H2 1997   6.714   6.759   3.658
  319WAT    EPW 1998   6.728   6.709   3.717
  320WAT      O 1999   6.787   7.207   2.609
  320WAT     H1 2000   6.816   7.184   2.530
  320WAT     H2 2001   6.861   7.215   2.656
  320WAT    EPW 2002   6.802   7.205   2.604
  321WAT      O 2003   6.860   7.241   2.121
  321WAT     H1 2004   6.888   7.320   2.146
  321WAT     H2 2005   6.782   7.257   2.085
  321WAT    EPW 2006   6.852   7.255   2.120
  322WAT      O 2007   5.798   7.005   3.574
  322WAT     H1 2008   5.797   7.064   3.638
  322WAT     H2 2009   5.857   7.036   3.518
  322WAT    EPW 2010   5.807   7.018   3.575
  323WAT      O 2011   7.096   6.848   2.208
  323WAT     H1 2012   7.150   6.779   2.216
  323WAT     H2 2013   7.102   6.887   2.286
  323WAT    EPW 2014   7.105   6.843   2.221
  324WAT      O 2015   5.892   6.964   2.465
  324WAT     H1 2016   5.880   6.878   2.468
  324WAT     H2 2017   5.844   6.994   2.532
  324WAT    EPW 2018   5.883   6.956   2.475
  325WAT      O 2019   6.822   7.085   2.340
  325WAT     H1 2020   6.771   7.019   2.314
  325WAT     H2 2021   6.827   7.136   2.269
  325WAT    EPW 2022   6.815   7.083   2.325
  326WAT      O 2023   6.822   6.779   2.329
  326WAT     H1 2024   6.776   6.739   2.266
  326WAT     H2 2025   6.899   6.795   2.291
  326WAT    EPW 2026   6.827   6.776   2.314
  327WAT      O 2027   6.682   7.016   2.781
  327WAT     H1 2028   6.689   7.073   2.715
  327WAT     H2 2029   6.694   7.065   2.852
  327WAT    EPW 2030   6.685   7.032   2.782
  328WAT      O 2031   6.143   6.598   2.616
  328WAT     H1 2032   6.196   6.667   2.615
  328WAT     H2 2033   6.143   6.571   2.533
  328WAT    EPW 2034   6.150   6.604   2.603
  329WAT      O 2035   7.061   7.033   3.370
  329WAT     H1 2036   7.051   7.065   3.450
  329WAT     H2 2037   7.002   6.969   3.366
  329WAT    EPW 2038   7.051   7.028   3.381
  330WAT      O 2039   7.187   6.627   2.653
  330WAT     H1 2040   7.191   6.596   2.734
  330WAT     H2 2041   7.219   6.563   2.604
  330WAT    EPW 2042   7.192   6.613   2.658
  331WAT      O 2043   7.433   7.051   3.484
  331WAT     H1 2044   7.510   7.029   3.518
  331WAT     H2 2045   7.385   7.073   3.554
  331WAT    EPW 2046   7.437   7.051   3.499
  332WAT      O 2047   6.187   6.979   2.781
  332WAT     H1 2048   6.215   6.936   2.710
  332WAT     H2 2049   6.170   6.916   2.838
  332WAT    EPW 2050   6.189   6.964   2.779
  333WAT      O 2051   6.001   7.090   3.089
  333WAT     H1 2052   6.086   7.112   3.085
  333WAT     H2 2053   5.963   7.147   3.036
  333WAT    EPW 2054   6.008   7.101   3.081
  334WAT      O 2055   7.246   7.403   2.161
  334WAT     H1 2056   7.224   7.476   2.119
  334WAT     H2 2057   7.201   7.408   2.236
  334WAT    EPW 2058   7.236   7.414   2.166
  335WAT      O 2059   6.587   7.258   3.901
  335WAT     H1 2060   6.538   7.316   3.945
  335WAT     H2 2061   6.584   7.288   3.819
  335WAT    EPW 2062   6.579   7.271   3.896
  336WAT      O 2063   7.465   6.844   2.335
  336WAT     H1 2064   7.539   6.804   2.355
  336WAT     H2 2065   7.491   6.916   2.292
  336WAT    EPW 2066   7.479   6.849   2.331
  337WAT      O 2067   7.110   7.073   2.842
  337WAT     H1 2068   7.144   7.088   2.921
  337WAT     H2 2069   7.065   6.999   2.853
  337WAT    EPW 2070   7.108   7.065   2.855
  338WAT      O 2071   6.558   6.995   2.288
  338WAT     H1 2072   6.557   6.984   2.201
  338WAT     H2 2073   6.539   7.080   2.297
  338WAT    EPW 2074   6.555   7.006   2.276
  339WAT      O 2075   6.144   7.339   3.737
  339WAT     H1 2076   6.091   7.288   3.784
  339WAT     H2 2077   6.146   7.300   3.659
  339WAT    EPW 2078   6.137   7.325   3.732
  340WAT      O 2079   6.193   7.278   2.251
  340WAT     H1 2080   6.180   7.234   2.325
  340WAT     H2 2081   6.135   7.244   2.196
  340WAT    EPW 2082   6.182   7.267   2.254
  341WAT      O 2083   6.210   7.461   2.911
  341WAT     H1 2084   6.131   7.456   2.873
  341WAT     H2 2085   6.217   7.386   2.955
  341WAT    EPW 2086   6.199   7.450   2.912
  342WAT      O 2087   6.253   7.435   3.258
  342WAT     H1 2088   6.255   7.368   3.203
  342WAT     H2 2089   6.188   7.485   3.227
  342WAT    EPW 2090   6.243   7.432   3.245
  343WAT      O 2091   7.242   7.206   3.097
  343WAT     H1 2092   7.176   7.239   3.144
  343WAT     H2 2093   7.261   7.270   3.040
  343WAT    EPW 2094   7.235   7.221   3.096
  344WAT      O 2095   6.907   6.797   3.440
  344WAT     H1 2096   6.921   6.715   3.416
  344WAT     H2 2097   6.944   6.803   3.519
  344WAT    EPW 2098   6.914   6.786   3.448
  345WAT      O 2099   7.061   7.003   2.448
  345WAT     H1 2100   7.110   7.075   2.441
  345WAT     H2 2101   6.982   7.029   2.422
  345WAT    EPW 2102   7.057   7.018   2.443
  346WAT      O 2103   6.720   7.150   3.021
  346WAT     H1 2104   6.768   7.220   3.042
  346WAT     H2 2105   6.757   7.086   3.066
  346WAT    EPW 2106   6.732   7.151   3.031
  347WAT      O 2107   6.938   7.467   2.248
  347WAT     H1 2108   6.938   7.539   2.199
  347WAT     H2 2109   6.875   7.481   2.306
  347WAT    EPW 2110   6.929   7.480   2.250
  348WAT      O 2111   6.398   6.701   2.214
  348WAT     H1 2112   6.407   6.691   2.301
  348WAT     H2 2113   6.327   6.752   2.208
  348WAT    EPW 2114   6.389   6.707   2.226
  349WAT      O 2115   7.471   6.676   3.754
  349WAT     H1 2116   7.407   6.636   3.710
  349WAT     H2 2117   7.473   6.632   3.830
  349WAT    EPW 2118   7.462   6.663   3.759
  350WAT      O 2119   5.810   6.698   2.436
  350WAT     H1 2120   5.823   6.627   2.386
  350WAT     H2 2121   5.773   6.666   2.508
  350WAT    EPW 2122   5.806   6.683   2.439
  351WAT      O 2123   6.779   7.466   2.481
  351WAT     H1 2124   6.785   7.531   2.539
  351WAT     H2 2125   6.760   7.397   2.530
  351WAT    EPW 2126   6.777   7.466   2.497
  352WAT      O 2127   6.229   6.918   2.132
  352WAT     H1 2128   6.177   6.923   2.062
  352WAT     H2 2129   6.307   6.942   2.103
  352WAT    EPW 2130   6.233   6.922   2.118
  353WAT      O 2131   6.409   7.157   2.829
  353WAT     H1 2132   6.494   7.138   2.839
  353WAT     H2 2133   6.372   7.080   2.816
  353WAT    EPW 2134   6.416   7.143   2.829
  354WAT      O 2135   5.891   7.291   2.495
  354WAT     H1 2136   5.940   7.262   2.561
  354WAT     H2 2137   5.904   7.232   2.432
  354WAT    EPW 2138   5.900   7.278   2.495
  355WAT      O 2139   6.344   7.435   2.044
  355WAT     H1 2140   6.283   7.394   2.091
  355WAT     H2 2141   6.305   7.446   1.966
  355WAT    EPW 2142   6.329   7.430   2.039
  356WAT      O 2143   6.489   7.281   2.315
  356WAT     H1 2144   6.516   7.363   2.321
  356WAT     H2 2145   6.403   7.288   2.305
  356WAT    EPW 2146   6.480   7.294   2.314
  357WAT      O 2147   7.286   6.993   3.778
  357WAT     H1 2148   7.234   7.039   3.830
  357WAT     H2 2149   7.250   6.913   3.777
  357WAT    EPW 2150   7.273   6.988   3.785
  358WAT      O 2151   5.837   6.878   2.968
  358WAT     H1 2152   5.842   6.912   2.888
  358WAT     H2 2153   5.913   6.901   3.005
  358WAT    EPW 2154   5.849   6.886   2.962
  359WAT      O 2155   7.136   7.350   3.785
  359WAT     H1 2156   7.143   7.360   3.872
  359WAT     H2 2157   7.072   7.406   3.763
  359WAT    EPW 2158   7.127   7.360   3.795
  360WAT      O 2159   7.362   7.382   3.622
  360WAT     H1 2160   7.394   7.460   3.642
  360WAT     H2 2161   7.325   7.355   3.696
  360WAT    EPW 2162   7.362   7.389   3.636
  361WAT      O 2163   7.342   7.208   2.741
  361WAT     H1 2164   7.268   7.175   2.773
  361WAT     H2 2165   7.342   7.290   2.769
  361WAT    EPW 2166   7.331   7.215   2.750
  362WAT      O 2167   7.233   6.841   3.487
  362WAT     H1 2168   7.308   6.886   3.481
  362WAT     H2 2169   7.177   6.888   3.440
  362WAT    EPW 2170   7.236   6.854   3.479
  363WAT      O 2171   6.422   7.129   3.469
  363WAT     H1 2172   6.438   7.055   3.511
  363WAT     H2 2173   6.418   7.104   3.385
  363WAT    EPW 2174   6.424   7.115   3.463
  364WAT      O 2175   7.362   6.639   3.254
  364WAT     H1 2176   7.334   6.721   3.249
  364WAT     H2 2177   7.433   6.644   3.303
  364WAT    EPW 2178   7.368   6.652   3.261
  365WAT      O 2179   6.597   6.710   3.457
  365WAT     H1 2180   6.668   6.742   3.417
  365WAT     H2 2181   6.621   6.629   3.479
  365WAT    EPW 2182   6.611   6.703   3.454
  366WAT      O 2183   7.504   7.264   2.140
  366WAT     H1 2184   7.542   7.332   2.100
  366WAT     H2 2185   7.420   7.286   2.143
  366WAT    EPW 2186   7.497   7.277   2.134
  367WAT      O 2187   6.248   7.215   3.063
  367WAT     H1 2188   6.292   7.205   2.988
  367WAT     H2 2189   6.303   7.184   3.123
  367WAT    EPW 2190   6.263   7.209   3.061
  368WAT      O 2191   7.050   7.126   3.622
  368WAT     H1 2192   6.985   7.173   3.657
  368WAT     H2 2193   7.106   7.117   3.688
  368WAT    EPW 2194   7.049   7.131   3.637
  369WAT      O 2195   7.019   7.279   3.252
  369WAT     H1 2196   7.049   7.321   3.322
  369WAT     H2 2197   7.022   7.195   3.275
  369WAT    EPW 2198   7.024   7.273   3.266
  370WAT      O 2199   7.273   7.224   2.477
  370WAT     H1 2200   7.294   7.204   2.559
  370WAT     H2 2201   7.349   7.251   2.443
  370WAT    EPW 2202   7.288   7.225   2.484
  371WAT      O 2203   6.603   6.714   3.068
  371WAT     H1 2204   6.520   6.699   3.091
  371WAT     H2 2205   6.599   6.717   2.980
  371WAT    EPW 2206   6.590   6.712   3.058
  372WAT      O 2207   7.376   6.832   2.624
  372WAT     H1 2208   7.304   6.785   2.642
  372WAT     H2 2209   7.359   6.866   2.546
  372WAT    EPW 2210   7.363   6.830   2.615
  373WAT      O 2211   5.859   6.754   3.671
  373WAT     H1 2212   5.845   6.833   3.638
  373WAT     H2 2213   5.781   6.729   3.700
  373WAT    EPW 2214   5.846   6.762   3.670
  374WAT      O 2215   6.166   7.028   2.394
  374WAT     H1 2216   6.178   6.995   2.314
  374WAT     H2 2217   6.085   7.003   2.413
  374WAT    EPW 2218   6.156   7.020   2.385
  375WAT      O 2219   7.085   7.410   3.496
  375WAT     H1 2220   7.059   7.338   3.538
  375WAT     H2 2221   7.167   7.422   3.523
  375WAT    EPW 2222   7.093   7.401   3.506
  376WAT      O 2223   6.163   7.229   3.435
  376WAT     H1 2224   6.201   7.291   3.386
  376WAT     H2 2225   6.231   7.182   3.464
  376WAT    EPW 2226   6.179   7.231   3.432
  377WAT      O 2227   5.941   7.074   3.363
  377WAT     H1 2228   5.949   7.057   3.277
  377WAT     H2 2229   6.016   7.115   3.382
  377WAT    EPW 2230   5.953   7.077   3.353
  378WAT      O 2231   7.497   7.338   2.407
  378WAT     H1 2232   7.507   7.332   2.320
  378WAT     H2 2233   7.571   7.305   2.438
  378WAT    EPW 2234   7.509   7.332   2.399
  379WAT      O 2235   6.196   6.815   3.604
  379WAT     H1 2236   6.188   6.731   3.624
  379WAT     H2 2237   6.165   6.819   3.522
  379WAT    EPW 2238   6.191   6.803   3.595
  380WAT      O 2239   7.407   7.353   3.342
  380WAT     H1 2240   7.407   7.266   3.355
  380WAT     H2 2241   7.414   7.385   3.423
  380WAT    EPW 2242   7.408   7.345   3.356
  381WAT      O 2243   6.026   7.190   2.047
  381WAT     H1 2244   5.959   7.192   2.102
  381WAT     H2 2245   6.036   7.105   2.028
  381WAT    EPW 2246   6.018   7.178   2.052
  382WAT      O 2247   6.995   6.833   3.720
  382WAT     H1 2248   7.004   6.904   3.770
  382WAT     H2 2249   6.931   6.788   3.760
  382WAT    EPW 2250   6.987   6.836   3.734
  383WAT      O 2251   6.894   6.852   2.806
  383WAT     H1 2252   6.824   6.903   2.800
  383WAT     H2 2253   6.898   6.814   2.727
  383WAT    EPW 2254   6.885   6.854   2.793
  384WAT      O 2255   7.254   6.903   3.086
  384WAT     H1 2256   7.340   6.913   3.100
  384WAT     H2 2257   7.217   6.958   3.142
  384WAT    EPW 2258   7.261   6.913   3.096
  385WAT      O 2259   7.285   7.431   2.935
  385WAT     H1 2260   7.351   7.485   2.951
  385WAT     H2 2261   7.250   7.462   2.861
  385WAT    EPW 2262   7.289   7.444   2.926
  386WAT      O 2263   6.400   6.823   3.269
  386WAT     H1 2264   6.313   6.832   3.277
  386WAT     H2 2265   6.422   6.772   3.335
  386WAT    EPW 2266   6.390   6.817   3.280
  387WAT      O 2267   6.810   6.898   3.106
  387WAT     H1 2268   6.736   6.853   3.117
  387WAT     H2 2269   6.867   6.858   3.158
  387WAT    EPW 2270   6.808   6.886   3.115
  388WAT      O 2271   6.560   7.331   3.626
  388WAT     H1 2272   6.528   7.274   3.569
  388WAT     H2 2273   6.525   7.407   3.602
  388WAT    EPW 2274   6.550   7.334   3.614
  389WAT      O 2275   6.640   6.656   2.089
  389WAT     H1 2276   6.648   6.681   2.006
  389WAT     H2 2277   6.566   6.694   2.115
  389WAT    EPW 2278   6.630   6.666   2.081
  390WAT      O 2279   6.122   6.832   3.333
  390WAT     H1 2280   6.088   6.755   3.310
  390WAT     H2 2281   6.052   6.884   3.340
  390WAT    EPW 2282   6.107   6.828   3.331
  391WAT      O 2283   7.026   6.717   3.031
  391WAT     H1 2284   7.093   6.772   3.044
  391WAT     H2 2285   6.976   6.760   2.974
  391WAT    EPW 2286   7.029   6.732   3.024
  392WAT      O 2287   6.962   7.298   2.780
  392WAT     H1 2288   7.017   7.237   2.810
  392WAT     H2 2289   6.920   7.324   2.852
  392WAT    EPW 2290   6.964   7.293   2.795
  393WAT      O 2291   5.987   7.163   2.729
  393WAT     H1 2292   5.950   7.193   2.802
  393WAT     H2 2293   6.041   7.100   2.757
  393WAT    EPW 2294   5.990   7.158   2.744
  394WAT      O 2295   7.159   7.481   2.437
  394WAT     H1 2296   7.166   7.396   2.455
  394WAT     H2 2297   7.077   7.490   2.409
  394WAT    EPW 2298   7.148   7.470   2.435
  395WAT      O 2299   7.549   7.075   3.825
  395WAT     H1 2300   7.530   7.139   3.881
  395WAT     H2 2301   7.477   7.026   3.825
  395WAT    EPW 2302   7.536   7.077   3.834
  396WAT      O 2303   7.539   7.169   3.123
  396WAT     H1 2304   7.456   7.194   3.115
  396WAT     H2 2305   7.534   7.085   3.145
  396WAT    EPW 2306   7.526   7.160   3.125
  397WAT      O 2307   6.465   6.868   3.642
  397WAT     H1 2308   6.489   6.810   3.581
  397WAT     H2 2309   6.381   6.850   3.656
  397WAT    EPW 2310   6.456   6.857   3.635
  398WAT      O 2311   6.904   6.688   0.677
  398WAT     H1 2312   6.880   6.737   0.609
  398WAT     H2 2313   6.991   6.681   0.667
  398WAT    EPW 2314   6.913   6.694   0.666
  399WAT      O 2315   6.885   7.380   1.145
  399WAT     H1 2316   6.833   7.439   1.181
  399WAT     H2 2317   6.925   7.343   1.213
  399WAT    EPW 2318   6.883   7.383   1.160
  400WAT      O 2319   5.846   7.173   0.341
  400WAT     H1 2320   5.769   7.189   0.305
  400WAT     H2 2321   5.850   7.086   0.343
  400WAT    EPW 2322   5.835   7.162   0.336
  401WAT      O 2323   7.152   7.486   0.812
  401WAT     H1 2324   7.160   7.487   0.725
  401WAT     H2 2325   7.094   7.423   0.827
  401WAT    EPW 2326   7.145   7.477   0.802
  402WAT      O 2327   6.551   6.797   0.593
  402WAT     H1 2328   6.544   6.865   0.538
  402WAT     H2 2329   6.625   6.758   0.568
  402WAT    EPW 2330   6.561   6.801   0.581
  403WAT      O 2331   6.011   7.519   0.736
  403WAT     H1 2332   5.964   7.480   0.673
  403WAT     H2 2333   6.081   7.468   0.745
  403WAT    EPW 2334   6.014   7.506   0.728
  404WAT      O 2335   6.461   7.080   1.271
  404WAT     H1 2336   6.529   7.082   1.216
  404WAT     H2 2337   6.457   6.997   1.295
  404WAT    EPW 2338   6.471   7.068   1.266
  405WAT      O 2339   6.211   7.329   0.738
  405WAT     H1 2340   6.292   7.311   0.762
  405WAT     H2 2341   6.163   7.268   0.778
  405WAT    EPW 2342   6.216   7.318   0.748
  406WAT      O 2343   6.834   7.285   1.754
  406WAT     H1 2344   6.749   7.276   1.736
  406WAT     H2 2345   6.837   7.360   1.800
  406WAT    EPW 2346   6.822   7.295   1.758
  407WAT      O 2347   6.270   6.839   0.665
  407WAT     H1 2348   6.241   6.889   0.600
  407WAT     H2 2349   6.357   6.847   0.659
  407WAT    EPW 2350   6.279   6.847   0.654
  408WAT      O 2351   7.289   6.581   1.666
  408WAT     H1 2352   7.274   6.658   1.627
  408WAT     H2 2353   7.212   6.559   1.700
  408WAT    EPW 2354   7.276   6.590   1.665
  409WAT      O 2355   6.568   6.753   0.887
  409WAT     H1 2356   6.576   6.839   0.900
  409WAT     H2 2357   6.565   6.745   0.800
  409WAT    EPW 2358   6.569   6.765   0.876
  410WAT      O 2359   5.856   7.295   1.037
  410WAT     H1 2360   5.831   7.379   1.030
  410WAT     H2 2361   5.790   7.257   1.079
  410WAT    EPW 2362   5.843   7.302   1.042
  411WAT      O 2363   6.159   6.777   1.086
  411WAT     H1 2364   6.107   6.714   1.055
  411WAT     H2 2365   6.218   6.733   1.133
  411WAT    EPW 2366   6.160   6.761   1.089
  412WAT      O 2367   6.490   6.990   2.016
  412WAT     H1 2368   6.501   6.945   1.942
  412WAT     H2 2369   6.519   7.070   1.996
  412WAT    EPW 2370   6.496   6.996   2.002
  413WAT      O 2371   7.575   7.043   0.746
  413WAT     H1 2372   7.540   7.111   0.789
  413WAT     H2 2373   7.511   6.983   0.748
  413WAT    EPW 2374   7.561   7.044   0.753
  414WAT      O 2375   6.063   6.950   1.914
  414WAT     H1 2376   5.985   6.911   1.907
  414WAT     H2 2377   6.112   6.909   1.855
  414WAT    EPW 2378   6.059   6.938   1.905
  415WAT      O 2379   6.728   6.714   1.831
  415WAT     H1 2380   6.746   6.634   1.804
  415WAT     H2 2381   6.714   6.759   1.757
  415WAT    EPW 2382   6.728   6.709   1.816
  416WAT      O 2383   6.787   7.207   0.709
  416WAT     H1 2384   6.816   7.184   0.630
  416WAT     H2 2385   6.861   7.215   0.755
  416WAT    EPW 2386   6.802   7.205   0.704
  417WAT      O 2387   6.860   7.241   0.221
  417WAT     H1 2388   6.888   7.320   0.246
  417WAT     H2 2389   6.782   7.257   0.184
  417WAT    EPW 2390   6.852   7.255   0.219
  418WAT      O 2391   5.798   7.005   1.673
  418WAT     H1 2392   5.797   7.064   1.738
  418WAT     H2 2393   5.857   7.036   1.617
  418WAT    EPW 2394   5.807   7.018   1.674
  419WAT      O 2395   7.096   6.848   0.308
  419WAT     H1 2396   7.150   6.779   0.315
  419WAT     H2 2397   7.102   6.887   0.385
  419WAT    EPW 2398   7.105   6.843   0.320
  420WAT      O 2399   5.892   6.964   0.565
  420WAT     H1 2400   5.880   6.878   0.568
  420WAT     H2 2401   5.844   6.994   0.632
  420WAT    EPW 2402   5.883   6.956   0.575
  421WAT      O 2403   6.822   7.085   0.439
  421WAT     H1 2404   6.771   7.019   0.414
  421WAT     H2 2405   6.827   7.136   0.368
  421WAT    EPW 2406   6.815   7.083   0.425
  422WAT      O 2407   6.822   6.779   0.428
  422WAT     H1 2408   6.776   6.739   0.366
  422WAT     H2 2409   6.899   6.795   0.391
  422WAT    EPW 2410   6.827   6.776   0.413
  423WAT      O 2411   6.682   7.016   0.880
  423WAT     H1 2412   6.689   7.073   0.815
  423WAT     H2 2413   6.694   7.065   0.951
  423WAT    EPW 2414   6.685   7.032   0.881
  424WAT      O 2415   6.143   6.598   0.715
  424WAT     H1 2416   6.196   6.667   0.714
  424WAT     H2 2417   6.143   6.571   0.632
  424WAT    EPW 2418   6.150   6.604   0.703
  425WAT      O 2419   7.061   7.033   1.469
  425WAT     H1 2420   7.051   7.065   1.550
  425WAT     H2 2421   7.002   6.969   1.465
  425WAT    EPW 2422   7.051   7.028   1.481
  426WAT      O 2423   7.187   6.627   0.753
  426WAT     H1 2424   7.191   6.596   0.834
  426WAT     H2 2425   7.219   6.563   0.703
  426WAT    EPW 2426   7.192   6.613   0.757
  427WAT      O 2427   7.433   7.051   1.584
  427WAT     H1 2428   7.510   7.029   1.617
  427WAT     H2 2429   7.385   7.073   1.654
  427WAT    EPW 2430   7.437   7.051   1.599
  428WAT      O 2431   6.187   6.979   0.881
  428WAT     H1 2432   6.215   6.936   0.810
  428WAT     H2 2433   6.170   6.916   0.938
  428WAT    EPW 2434   6.189   6.964   0.879
  429WAT      O 2435   6.001   7.090   1.189
  429WAT     H1 2436   6.086   7.112   1.184
  429WAT     H2 2437   5.963   7.147   1.136
  429WAT    EPW 2438   6.008   7.101   1.180
  430WAT      O 2439   7.246   7.403   0.261
  430WAT     H1 2440   7.224   7.476   0.219
  430WAT     H2 2441   7.201   7.408   0.336
  430WAT    EPW 2442   7.236   7.414   0.266
  431WAT      O 2443   6.587   7.258   2.001
  431WAT     H1 2444   6.538   7.316   2.045
  431WAT     H2 2445   6.584   7.288   1.918
  431WAT    EPW 2446   6.579   7.271   1.995
  432WAT      O 2447   7.465   6.844   0.434
  432WAT     H1 2448   7.539   6.804   0.454
  432WAT     H2 2449   7.491   6.916   0.392
  432WAT    EPW 2450   7.479   6.849   0.431
  433WAT      O 2451   7.110   7.073   0.941
  433WAT     H1 2452   7.144   7.088   1.020
  433WAT     H2 2453   7.065   6.999   0.953
  433WAT    EPW 2454   7.108   7.065   0.955
  434WAT      O 2455   6.558   6.995   0.387
  434WAT     H1 2456   6.557   6.984   0.301
  434WAT     H2 2457   6.539   7.080   0.396
  434WAT    EPW 2458   6.555   7.006   0.376
  435WAT      O 2459   6.144   7.339   1.836
  435WAT     H1 2460   6.091   7.288   1.883
  435WAT     H2 2461   6.146   7.300   1.758
  435WAT    EPW 2462   6.137   7.325   1.832
  436WAT      O 2463   6.193   7.278   0.350
  436WAT     H1 2464   6.180   7.234   0.424
  436WAT     H2 2465   6.135   7.244   0.295
  436WAT    EPW 2466   6.182   7.267   0.353
  437WAT      O 2467   6.210   7.461   1.010
  437WAT     H1 2468   6.131   7.456   0.972
  437WAT     H2 2469   6.217   7.386   1.054
  437WAT    EPW 2470   6.199   7.450   1.011
  438WAT      O 2471   6.253   7.435   1.357
  438WAT     H1 2472   6.255   7.368   1.302
  438WAT     H2 2473   6.188   7.485   1.326
  438WAT    EPW 2474   6.243   7.432   1.344
  439WAT      O 2475   7.242   7.206   1.197
  439WAT     H1 2476   7.176   7.239   1.243
  439WAT     H2 2477   7.261   7.270   1.140
  439WAT    EPW 2478   7.235   7.221   1.195
  440WAT      O 2479   6.907   6.797   1.540
  440WAT     H1 2480   6.921   6.715   1.515
  440WAT     H2 2481   6.944   6.803   1.618
  440WAT    EPW 2482   6.914   6.786   1.548
  441WAT      O 2483   7.061   7.003   0.548
  441WAT     H1 2484   7.110   7.075   0.540
  441WAT     H2 2485   6.982   7.029   0.522
  441WAT    EPW 2486   7.057   7.018   0.543
  442WAT      O 2487   6.720   7.150   1.120
  442WAT     H1 2488   6.768   7.220   1.141
  442WAT     H2 2489   6.757   7.086   1.165
  442WAT    EPW 2490   6.732   7.151   1.130
  443WAT      O 2491   6.938   7.467   0.348
  443WAT     H1 2492   6.938   7.539   0.299
  443WAT     H2 2493   6.875   7.481   0.405
  443WAT    EPW 2494   6.929   7.480   0.349
  444WAT      O 2495   6.398   6.701   0.314
  444WAT     H1 2496   6.407   6.691   0.400
  444WAT     H2 2497   6.327   6.752   0.307
  444WAT    EPW 2498   6.389   6.707   0.326
  445WAT      O 2499   7.471   6.676   1.854
  445WAT     H1 2500   7.407   6.636   1.809
  445WAT     H2 2501   7.473   6.632   1.929
  445WAT    EPW 2502   7.462   6.663   1.858
  446WAT      O 2503   5.810   6.698   0.535
  446WAT     H1 2504   5.823   6.627   0.486
  446WAT     H2 2505   5.773   6.666   0.607
  446WAT    EPW 2506   5.806   6.683   0.538
  447WAT      O 2507   6.779   7.466   0.581
  447WAT     H1 2508   6.785   7.531   0.639
  447WAT     H2 2509   6.760   7.397   0.630
  447WAT    EPW 2510   6.777   7.466   0.596
  448WAT      O 2511   6.229   6.918   0.232
  448WAT     H1 2512   6.177   6.923   0.161
  448WAT     H2 2513   6.307   6.942   0.202
  448WAT    EPW 2514   6.233   6.922   0.217
  449WAT      O 2515   6.409   7.157   0.929
  449WAT     H1 2516   6.494   7.138   0.939
  449WAT     H2 2517   6.372   7.080   0.915
  449WAT    EPW 2518   6.416   7.143   0.928
  450WAT      O 2519   5.891   7.291   0.594
  450WAT     H1 2520   5.940   7.262   0.660
  450WAT     H2 2521   5.904   7.232   0.532
  450WAT    EPW 2522   5.900   7.278   0.595
  451WAT      O 2523   6.489   7.281   0.414
  451WAT     H1 2524   6.516   7.363   0.421
  451WAT     H2 2525   6.403   7.288   0.404
  451WAT    EPW 2526   6.480   7.294   0.413
  452WAT      O 2527   7.286   6.993   1.877
  452WAT     H1 2528   7.234   7.039   1.930
  452WAT     H2 2529   7.250   6.913   1.877
  452WAT    EPW 2530   7.273   6.988   1.885
  453WAT      O 2531   5.837   6.878   1.068
  453WAT     H1 2532   5.842   6.912   0.987
  453WAT     H2 2533   5.913   6.901   1.104
  453WAT    EPW 2534   5.849   6.886   1.061
  454WAT      O 2535   7.136   7.350   1.885
  454WAT     H1 2536   7.143   7.360   1.971
  454WAT     H2 2537   7.072   7.406   1.863
  454WAT    EPW 2538   7.127   7.360   1.894
  455WAT      O 2539   7.362   7.382   1.721
  455WAT     H1 2540   7.394   7.460   1.742
  455WAT     H2 2541   7.325   7.355   1.796
  455WAT    EPW 2542   7.362   7.389   1.735
  456WAT      O 2543   7.342   7.208   0.840
  456WAT     H1 2544   7.268   7.175   0.872
  456WAT     H2 2545   7.342   7.290   0.868
  456WAT    EPW 2546   7.331   7.215   0.849
  457WAT      O 2547   7.233   6.841   1.586
  457WAT     H1 2548   7.308   6.886   1.580
  457WAT     H2 2549   7.177   6.888   1.539
  457WAT    EPW 2550   7.236   6.854   1.578
  458WAT      O 2551   6.422   7.129   1.568
  458WAT     H1 2552   6.438   7.055   1.611
  458WAT     H2 2553   6.418   7.104   1.485
  458WAT    EPW 2554   6.424   7.115   1.562
  459WAT      O 2555   7.362   6.639   1.353
  459WAT     H1 2556   7.334   6.721   1.349
  459WAT     H2 2557   7.433   6.644   1.403
  459WAT    EPW 2558   7.368   6.652   1.360
  460WAT      O 2559   6.597   6.710   1.556
  460WAT     H1 2560   6.668   6.742   1.516
  460WAT     H2 2561   6.621   6.629   1.579
  460WAT    EPW 2562   6.611   6.703   1.554
  461WAT      O 2563   7.504   7.264   0.239
  461WAT     H1 2564   7.542   7.332   0.199
  461WAT     H2 2565   7.420   7.286   0.242
  461WAT    EPW 2566   7.497   7.277   0.233
  462WAT      O 2567   6.248   7.215   1.162
  462WAT     H1 2568   6.292   7.205   1.088
  462WAT     H2 2569   6.303   7.184   1.223
  462WAT    EPW 2570   6.263   7.209   1.160
  463WAT      O 2571   7.050   7.126   1.721
  463WAT     H1 2572   6.985   7.173   1.756
  463WAT     H2 2573   7.106   7.117   1.787
  463WAT    EPW 2574   7.049   7.131   1.736
  464WAT      O 2575   7.019   7.279   1.351
  464WAT     H1 2576   7.049   7.321   1.422
  464WAT     H2 2577   7.022   7.195   1.374
  464WAT    EPW 2578   7.024   7.273   1.365
  465WAT      O 2579   7.273   7.224   0.576
  465WAT     H1 2580   7.294   7.204   0.659
  465WAT     H2 2581   7.349   7.251   0.542
  465WAT    EPW 2582   7.288   7.225   0.584
  466WAT      O 2583   6.603   6.714   1.167
  466WAT     H1 2584   6.520   6.699   1.191
  466WAT     H2 2585   6.599   6.717   1.080
  466WAT    EPW 2586   6.590   6.712   1.158
  467WAT      O 2587   7.376   6.832   0.724
  467WAT     H1 2588   7.304   6.785   0.741
  467WAT     H2 2589   7.359   6.866   0.645
  467WAT    EPW 2590   7.363   6.830   0.715
  468WAT      O 2591   5.859   6.754   1.770
  468WAT     H1 2592   5.845   6.833   1.737
  468WAT     H2 2593   5.781   6.729   1.799
  468WAT    EPW 2594   5.846   6.762   1.770
  469WAT      O 2595   6.166   7.028   0.493
  469WAT     H1 2596   6.178   6.995   0.413
  469WAT     H2 2597   6.085   7.003   0.513
  469WAT    EPW 2598   6.156   7.020   0.484
  470WAT      O 2599   7.085   7.410   1.595
  470WAT     H1 2600   7.059   7.338   1.637
  470WAT     H2 2601   7.167   7.422   1.622
  470WAT    EPW 2602   7.093   7.401   1.605
  471WAT      O 2603   6.163   7.229   1.535
  471WAT     H1 2604   6.201   7.291   1.486
  471WAT     H2 2605   6.231   7.182   1.563
  471WAT    EPW 2606   6.179   7.231   1.532
  472WAT      O 2607   5.941   7.074   1.462
  472WAT     H1 2608   5.949   7.057   1.377
  472WAT     H2 2609   6.016   7.115   1.482
  472WAT    EPW 2610   5.953   7.077   1.452
  473WAT      O 2611   7.497   7.338   0.506
  473WAT     H1 2612   7.507   7.332   0.420
  473WAT     H2 2613   7.571   7.305   0.538
  473WAT    EPW 2614   7.509   7.332   0.498
  474WAT      O 2615   6.196   6.815   1.703
  474WAT     H1 2616   6.188   6.731   1.724
  474WAT     H2 2617   6.165   6.819   1.622
  474WAT    EPW 2618   6.191   6.803   1.694
  475WAT      O 2619   7.407   7.353   1.442
  475WAT     H1 2620   7.407   7.266   1.454
  475WAT     H2 2621   7.414   7.385   1.522
  475WAT    EPW 2622   7.408   7.345   1.455
  476WAT      O 2623   6.995   6.833   1.820
  476WAT     H1 2624   7.004   6.904   1.869
  476WAT     H2 2625   6.931   6.788   1.860
  476WAT    EPW 2626   6.987   6.836   1.833
  477WAT      O 2627   6.894   6.852   0.905
  477WAT     H1 2628   6.824   6.903   0.900
  477WAT     H2 2629   6.898   6.814   0.827
  477WAT    EPW 2630   6.885   6.854   0.893
  478WAT      O 2631   7.254   6.903   1.185
  478WAT     H1 2632   7.340   6.913   1.200
  478WAT     H2 2633   7.217   6.958   1.242
  478WAT    EPW 2634   7.261   6.913   1.196
  479WAT      O 2635   7.285   7.431   1.034
  479WAT     H1 2636   7.351   7.485   1.050
  479WAT     H2 2637   7.250   7.462   0.960
  479WAT    EPW 2638   7.289   7.444   1.026
  480WAT      O 2639   6.400   6.823   1.368
  480WAT     H1 2640   6.313   6.832   1.376
  480WAT     H2 2641   6.422   6.772   1.435
  480WAT    EPW 2642   6.390   6.817   1.379
  481WAT      O 2643   6.810   6.898   1.205
  481WAT     H1 2644   6.736   6.853   1.217
  481WAT     H2 2645   6.867   6.858   1.258
  481WAT    EPW 2646   6.808   6.886   1.215
  482WAT      O 2647   6.560   7.331   1.726
  482WAT     H1 2648   6.528   7.274   1.669
  482WAT     H2 2649   6.525   7.407   1.701
  482WAT    EPW 2650   6.550   7.334   1.714
  483WAT      O 2651   6.122   6.832   1.433
  483WAT     H1 2652   6.088   6.755   1.409
  483WAT     H2 2653   6.052   6.884   1.439
  483WAT    EPW 2654   6.107   6.828   1.430
  484WAT      O 2655   7.026   6.717   1.130
  484WAT     H1 2656   7.093   6.772   1.143
  484WAT     H2 2657   6.976   6.760   1.073
  484WAT    EPW 2658   7.029   6.732   1.124
  485WAT      O 2659   6.962   7.298   0.880
  485WAT     H1 2660   7.017   7.237   0.910
  485WAT     H2 2661   6.920   7.324   0.951
  485WAT    EPW 2662   6.964   7.293   0.895
  486WAT      O 2663   5.987   7.163   0.828
  486WAT     H1 2664   5.950   7.193   0.901
  486WAT     H2 2665   6.041   7.100   0.857
  486WAT    EPW 2666   5.990   7.158   0.843
  487WAT      O 2667   7.159   7.481   0.536
  487WAT     H1 2668   7.166   7.396   0.554
  487WAT     H2 2669   7.077   7.490   0.508
  487WAT    EPW 2670   7.148   7.470   0.535
  488WAT      O 2671   7.549   7.075   1.925
  488WAT     H1 2672   7.530   7.139   1.980
  488WAT     H2 2673   7.477   7.026   1.924
  488WAT    EPW 2674   7.536   7.077   1.933
  489WAT      O 2675   7.539   7.169   1.222
  489WAT     H1 2676   7.456   7.194   1.215
  489WAT     H2 2677   7.534   7.085   1.245
  489WAT    EPW 2678   7.526   7.160   1.224
  490WAT      O 2679   6.465   6.868   1.741
  490WAT     H1 2680   6.489   6.810   1.680
  490WAT     H2 2681   6.381   6.850   1.755
  490WAT    EPW 2682   6.456   6.857   1.734
  491WAT      O 2683   6.904   4.840   6.379
  491WAT     H1 2684   6.880   4.889   6.311
  491WAT     H2 2685   6.991   4.833   6.369
  491WAT    EPW 2686   6.913   4.846   6.368
  492WAT      O 2687   6.885   5.532   6.846
  492WAT     H1 2688   6.833   5.592   6.883
  492WAT     H2 2689   6.925   5.495   6.915
  492WAT    EPW 2690   6.883   5.535   6.862
  493WAT      O 2691   5.872   5.946   6.392
  493WAT     H1 2692   5.828   5.958   6.466
  493WAT     H2 2693   5.844   5.868   6.363
  493WAT    EPW 2694   5.861   5.936   6.399
  494WAT      O 2695   7.500   6.276   6.143
  494WAT     H1 2696   7.570   6.224   6.143
  494WAT     H2 2697   7.441   6.232   6.097
  494WAT    EPW 2698   7.501   6.262   6.136
  495WAT      O 2699   5.846   5.325   6.043
  495WAT     H1 2700   5.769   5.341   6.007
  495WAT     H2 2701   5.850   5.238   6.045
  495WAT    EPW 2702   5.835   5.315   6.038
  496WAT      O 2703   6.160   5.851   5.910
  496WAT     H1 2704   6.121   5.814   5.841
  496WAT     H2 2705   6.152   5.792   5.973
  496WAT    EPW 2706   6.153   5.837   5.909
  497WAT      O 2707   7.152   5.639   6.514
  497WAT     H1 2708   7.160   5.639   6.427
  497WAT     H2 2709   7.094   5.575   6.529
  497WAT    EPW 2710   7.145   5.629   6.503
  498WAT      O 2711   6.123   6.016   6.300
  498WAT     H1 2712   6.184   5.999   6.360
  498WAT     H2 2713   6.048   6.002   6.342
  498WAT    EPW 2714   6.121   6.011   6.315
  499WAT      O 2715   6.551   4.949   6.295
  499WAT     H1 2716   6.544   5.017   6.240
  499WAT     H2 2717   6.625   4.910   6.270
  499WAT    EPW 2718   6.561   4.953   6.283
  500WAT      O 2719   6.012   6.325   5.908
  500WAT     H1 2720   6.059   6.333   5.834
  500WAT     H2 2721   6.058   6.267   5.954
  500WAT    EPW 2722   6.026   6.317   5.904
  501WAT      O 2723   5.866   6.219   7.017
  501WAT     H1 2724   5.879   6.191   7.099
  501WAT     H2 2725   5.805   6.165   6.987
  501WAT    EPW 2726   5.859   6.207   7.025
  502WAT      O 2727   6.523   5.972   7.524
  502WAT     H1 2728   6.500   5.972   7.608
  502WAT     H2 2729   6.449   5.957   7.482
  502WAT    EPW 2730   6.509   5.970   7.530
  503WAT      O 2731   6.011   5.672   6.438
  503WAT     H1 2732   5.964   5.632   6.375
  503WAT     H2 2733   6.081   5.620   6.447
  503WAT    EPW 2734   6.014   5.658   6.430
  504WAT      O 2735   6.461   5.233   6.972
  504WAT     H1 2736   6.529   5.234   6.917
  504WAT     H2 2737   6.457   5.149   6.997
  504WAT    EPW 2738   6.471   5.220   6.968
  505WAT      O 2739   6.522   6.291   7.250
  505WAT     H1 2740   6.535   6.367   7.210
  505WAT     H2 2741   6.601   6.255   7.253
  505WAT    EPW 2742   6.535   6.297   7.245
  506WAT      O 2743   6.211   5.482   6.440
  506WAT     H1 2744   6.292   5.463   6.464
  506WAT     H2 2745   6.163   5.420   6.480
  506WAT    EPW 2746   6.216   5.470   6.449
  507WAT      O 2747   6.631   6.080   6.701
  507WAT     H1 2748   6.666   6.000   6.704
  507WAT     H2 2749   6.698   6.130   6.675
  507WAT    EPW 2750   6.646   6.075   6.698
  508WAT      O 2751   6.637   6.025   6.322
  508WAT     H1 2752   6.670   5.960   6.371
  508WAT     H2 2753   6.661   6.003   6.241
  508WAT    EPW 2754   6.645   6.012   6.317
  509WAT      O 2755   6.834   5.438   7.456
  509WAT     H1 2756   6.749   5.428   7.438
  509WAT     H2 2757   6.837   5.512   7.501
  509WAT    EPW 2758   6.822   5.447   7.460
  510WAT      O 2759   6.270   4.991   6.367
  510WAT     H1 2760   6.241   5.041   6.302
  510WAT     H2 2761   6.357   4.999   6.361
  510WAT    EPW 2762   6.279   5.000   6.356
  511WAT      O 2763   7.289   4.734   7.367
  511WAT     H1 2764   7.274   4.811   7.329
  511WAT     H2 2765   7.212   4.712   7.402
  511WAT    EPW 2766   7.276   4.742   7.367
  512WAT      O 2767   6.568   4.905   6.589
  512WAT     H1 2768   6.576   4.991   6.602
  512WAT     H2 2769   6.565   4.898   6.502
  512WAT    EPW 2770   6.569   4.917   6.578
  513WAT      O 2771   7.036   5.198   5.819
  513WAT     H1 2772   6.991   5.266   5.849
  513WAT     H2 2773   7.047   5.147   5.889
  513WAT    EPW 2774   7.031   5.200   5.834
  514WAT      O 2775   5.856   5.448   6.739
  514WAT     H1 2776   5.831   5.531   6.731
  514WAT     H2 2777   5.790   5.409   6.781
  514WAT    EPW 2778   5.843   5.454   6.744
  515WAT      O 2779   5.847   6.419   6.529
  515WAT     H1 2780   5.788   6.474   6.498
  515WAT     H2 2781   5.890   6.392   6.458
  515WAT    EPW 2782   5.845   6.423   6.514
  516WAT      O 2783   6.431   6.203   6.277
  516WAT     H1 2784   6.373   6.176   6.336
  516WAT     H2 2785   6.494   6.142   6.279
  516WAT    EPW 2786   6.432   6.190   6.286
  517WAT      O 2787   7.046   6.432   6.029
  517WAT     H1 2788   7.118   6.479   6.039
  517WAT     H2 2789   7.068   6.352   6.057
  517WAT    EPW 2790   7.060   6.427   6.035
  518WAT      O 2791   6.862   6.471   6.228
  518WAT     H1 2792   6.884   6.524   6.294
  518WAT     H2 2793   6.939   6.454   6.190
  518WAT    EPW 2794   6.877   6.476   6.232
  519WAT      O 2795   6.159   4.929   6.788
  519WAT     H1 2796   6.107   4.867   6.757
  519WAT     H2 2797   6.218   4.886   6.835
  519WAT    EPW 2798   6.160   4.914   6.790
  520WAT      O 2799   6.002   6.286   6.322
  520WAT     H1 2800   6.067   6.228   6.324
  520WAT     H2 2801   6.041   6.361   6.300
  520WAT    EPW 2802   6.017   6.288   6.319
  521WAT      O 2803   7.575   5.195   6.448
  521WAT     H1 2804   7.540   5.263   6.491
  521WAT     H2 2805   7.511   5.135   6.450
  521WAT    EPW 2806   7.561   5.196   6.455
  522WAT      O 2807   7.106   6.472   7.059
  522WAT     H1 2808   7.181   6.518   7.058
  522WAT     H2 2809   7.094   6.451   6.975
  522WAT    EPW 2810   7.115   6.476   7.046
  523WAT      O 2811   6.063   5.102   7.616
  523WAT     H1 2812   5.985   5.063   7.609
  523WAT     H2 2813   6.112   5.061   7.557
  523WAT    EPW 2814   6.059   5.090   7.606
  524WAT      O 2815   6.084   6.134   6.672
  524WAT     H1 2816   6.126   6.099   6.605
  524WAT     H2 2817   6.116   6.092   6.741
  524WAT    EPW 2818   6.095   6.123   6.672
  525WAT      O 2819   6.407   6.420   6.602
  525WAT     H1 2820   6.491   6.430   6.582
  525WAT     H2 2821   6.377   6.501   6.608
  525WAT    EPW 2822   6.415   6.433   6.600
  526WAT      O 2823   6.728   4.867   7.533
  526WAT     H1 2824   6.746   4.786   7.506
  526WAT     H2 2825   6.714   4.911   7.459
  526WAT    EPW 2826   6.728   4.861   7.518
  527WAT      O 2827   6.787   5.359   6.410
  527WAT     H1 2828   6.816   5.336   6.331
  527WAT     H2 2829   6.861   5.367   6.457
  527WAT    EPW 2830   6.802   5.357   6.406
  528WAT      O 2831   6.860   5.393   5.922
  528WAT     H1 2832   6.888   5.472   5.947
  528WAT     H2 2833   6.782   5.410   5.886
  528WAT    EPW 2834   6.852   5.407   5.921
  529WAT      O 2835   7.264   6.591   6.069
  529WAT     H1 2836   7.330   6.576   6.015
  529WAT     H2 2837   7.300   6.582   6.148
  529WAT    EPW 2838   7.279   6.587   6.073
  530WAT      O 2839   6.306   6.541   7.176
  530WAT     H1 2840   6.336   6.535   7.258
  530WAT     H2 2841   6.244   6.481   7.171
  530WAT    EPW 2842   6.302   6.532   7.187
  531WAT      O 2843   5.798   5.157   7.375
  531WAT     H1 2844   5.797   5.216   7.439
  531WAT     H2 2845   5.857   5.188   7.319
  531WAT    EPW 2846   5.807   5.170   7.376
  532WAT      O 2847   7.032   6.191   7.429
  532WAT     H1 2848   7.028   6.229   7.507
  532WAT     H2 2849   7.117   6.186   7.412
  532WAT    EPW 2850   7.044   6.196   7.438
  533WAT      O 2851   6.745   6.210   5.904
  533WAT     H1 2852   6.727   6.265   5.970
  533WAT     H2 2853   6.822   6.239   5.874
  533WAT    EPW 2854   6.754   6.223   5.909
  534WAT      O 2855   7.096   5.000   6.009
  534WAT     H1 2856   7.150   4.932   6.017
  534WAT     H2 2857   7.102   5.040   6.087
  534WAT    EPW 2858   7.105   4.996   6.022
  535WAT      O 2859   5.892   5.117   6.266
  535WAT     H1 2860   5.880   5.030   6.269
  535WAT     H2 2861   5.844   5.146   6.333
  535WAT    EPW 2862   5.883   5.108   6.277
  536WAT      O 2863   6.106   6.358   7.088
  536WAT     H1 2864   6.036   6.307   7.100
  536WAT     H2 2865   6.132   6.337   7.007
  536WAT    EPW 2866   6.099   6.347   7.078
  537WAT      O 2867   6.822   5.237   6.141
  537WAT     H1 2868   6.771   5.171   6.115
  537WAT     H2 2869   6.827   5.288   6.070
  537WAT    EPW 2870   6.815   5.235   6.127
  538WAT      O 2871   6.877   6.507   7.179
  538WAT     H1 2872   6.954   6.499   7.138
  538WAT     H2 2873   6.819   6.495   7.115
  538WAT    EPW 2874   6.880   6.504   7.163
  539WAT      O 2875   6.822   4.932   6.130
  539WAT     H1 2876   6.776   4.891   6.067
  539WAT     H2 2877   6.899   4.947   6.092
  539WAT    EPW 2878   6.827   4.928   6.115
  540WAT      O 2879   7.505   6.567   6.469
  540WAT     H1 2880   7.459   6.639   6.489
  540WAT     H2 2881   7.443   6.510   6.445
  540WAT    EPW 2882   7.489   6.569   6.468
  541WAT      O 2883   6.682   5.168   6.582
  541WAT     H1 2884   6.689   5.225   6.516
  541WAT     H2 2885   6.694   5.217   6.653
  541WAT    EPW 2886   6.685   5.184   6.583
  542WAT      O 2887   7.204   6.152   6.423
  542WAT     H1 2888   7.274   6.104   6.442
  542WAT     H2 2889   7.138   6.095   6.428
  542WAT    EPW 2890   7.205   6.136   6.427
  543WAT      O 2891   6.242   6.243   7.345
  543WAT     H1 2892   6.326   6.249   7.322
  543WAT     H2 2893   6.238   6.282   7.422
  543WAT    EPW 2894   6.254   6.250   7.353
  544WAT      O 2895   6.143   4.751   6.417
  544WAT     H1 2896   6.196   4.819   6.416
  544WAT     H2 2897   6.143   4.723   6.334
  544WAT    EPW 2898   6.150   4.757   6.405
  545WAT      O 2899   6.438   5.794   6.819
  545WAT     H1 2900   6.455   5.773   6.902
  545WAT     H2 2901   6.373   5.740   6.798
  545WAT    EPW 2902   6.431   5.783   6.829
  546WAT      O 2903   7.061   5.185   7.171
  546WAT     H1 2904   7.051   5.217   7.252
  546WAT     H2 2905   7.002   5.121   7.167
  546WAT    EPW 2906   7.051   5.180   7.182
  547WAT      O 2907   6.513   5.788   7.078
  547WAT     H1 2908   6.518   5.872   7.099
  547WAT     H2 2909   6.485   5.751   7.152
  547WAT    EPW 2910   6.510   5.795   7.092
  548WAT      O 2911   7.131   5.857   6.991
  548WAT     H1 2912   7.079   5.816   7.049
  548WAT     H2 2913   7.118   5.942   7.010
  548WAT    EPW 2914   7.121   5.864   7.003
  549WAT      O 2915   7.187   4.780   6.455
  549WAT     H1 2916   7.191   4.748   6.536
  549WAT     H2 2917   7.219   4.715   6.405
  549WAT    EPW 2918   7.192   4.765   6.459
  550WAT      O 2919   7.433   5.203   7.285
  550WAT     H1 2920   7.510   5.181   7.319
  550WAT     H2 2921   7.385   5.225   7.355
  550WAT    EPW 2922   7.437   5.203   7.301
  551WAT      O 2923   6.187   5.132   6.582
  551WAT     H1 2924   6.215   5.089   6.512
  551WAT     H2 2925   6.170   5.068   6.639
  551WAT    EPW 2926   6.189   5.116   6.580
  552WAT      O 2927   7.456   5.901   6.004
  552WAT     H1 2928   7.468   5.872   6.086
  552WAT     H2 2929   7.537   5.903   5.971
  552WAT    EPW 2930   7.470   5.897   6.011
  553WAT      O 2931   6.170   5.874   6.537
  553WAT     H1 2932   6.255   5.866   6.520
  553WAT     H2 2933   6.134   5.806   6.496
  553WAT    EPW 2934   6.177   5.863   6.529
  554WAT      O 2935   6.046   6.547   6.661
  554WAT     H1 2936   5.979   6.497   6.636
  554WAT     H2 2937   6.087   6.565   6.586
  554WAT    EPW 2938   6.042   6.542   6.646
  555WAT      O 2939   6.001   5.242   6.891
  555WAT     H1 2940   6.086   5.264   6.886
  555WAT     H2 2941   5.963   5.299   6.837
  555WAT    EPW 2942   6.008   5.253   6.882
  556WAT      O 2943   7.246   5.555   5.963
  556WAT     H1 2944   7.224   5.628   5.920
  556WAT     H2 2945   7.201   5.560   6.037
  556WAT    EPW 2946   7.236   5.566   5.967
  557WAT      O 2947   6.407   5.875   6.361
  557WAT     H1 2948   6.478   5.924   6.370
  557WAT     H2 2949   6.429   5.818   6.298
  557WAT    EPW 2950   6.420   5.874   6.353
  558WAT      O 2951   5.822   6.039   6.693
  558WAT     H1 2952   5.755   6.088   6.720
  558WAT     H2 2953   5.890   6.094   6.696
  558WAT    EPW 2954   5.822   6.054   6.697
  559WAT      O 2955   5.829   5.708   6.203
  559WAT     H1 2956   5.810   5.624   6.218
  559WAT     H2 2957   5.895   5.704   6.146
  559WAT    EPW 2958   5.836   5.695   6.197
  560WAT      O 2959   7.465   4.997   6.136
  560WAT     H1 2960   7.539   4.956   6.156
  560WAT     H2 2961   7.491   5.068   6.093
  560WAT    EPW 2962   7.479   5.001   6.133
  561WAT      O 2963   6.859   6.245   6.593
  561WAT     H1 2964   6.807   6.309   6.564
  561WAT     H2 2965   6.890   6.209   6.521
  561WAT    EPW 2966   6.856   6.249   6.578
  562WAT      O 2967   5.846   6.124   6.161
  562WAT     H1 2968   5.901   6.181   6.197
  562WAT     H2 2969   5.823   6.073   6.227
  562WAT    EPW 2970   5.851   6.125   6.176
  563WAT      O 2971   6.266   6.024   6.869
  563WAT     H1 2972   6.313   6.053   6.937
  563WAT     H2 2973   6.324   5.976   6.824
  563WAT    EPW 2974   6.282   6.021   6.873
  564WAT      O 2975   7.110   5.225   6.643
  564WAT     H1 2976   7.144   5.241   6.722
  564WAT     H2 2977   7.065   5.152   6.654
  564WAT    EPW 2978   7.108   5.217   6.656
  565WAT      O 2979   5.829   5.969   5.923
  565WAT     H1 2980   5.905   5.926   5.929
  565WAT     H2 2981   5.830   6.022   5.992
  565WAT    EPW 2982   5.840   5.970   5.934
  566WAT      O 2983   5.923   5.791   6.724
  566WAT     H1 2984   5.966   5.778   6.649
  566WAT     H2 2985   5.902   5.876   6.721
  566WAT    EPW 2986   5.926   5.802   6.712
  567WAT      O 2987   6.558   5.147   6.089
  567WAT     H1 2988   6.557   5.136   6.002
  567WAT     H2 2989   6.539   5.232   6.098
  567WAT    EPW 2990   6.555   5.158   6.077
  568WAT      O 2991   7.463   6.390   7.239
  568WAT     H1 2992   7.396   6.442   7.260
  568WAT     H2 2993   7.469   6.400   7.152
  568WAT    EPW 2994   7.454   6.399   7.229
  569WAT      O 2995   6.331   6.143   6.552
  569WAT     H1 2996   6.344   6.227   6.571
  569WAT     H2 2997   6.398   6.103   6.592
  569WAT    EPW 2998   6.343   6.149   6.561
  570WAT      O 2999   6.144   5.491   7.538
  570WAT     H1 3000   6.091   5.440   7.585
  570WAT     H2 3001   6.146   5.452   7.460
  570WAT    EPW 3002   6.137   5.478   7.534
  571WAT      O 3003   6.193   5.431   6.052
  571WAT     H1 3004   6.180   5.386   6.126
  571WAT     H2 3005   6.135   5.396   5.997
  571WAT    EPW 3006   6.182   5.419   6.055
  572WAT      O 3007   6.210   5.614   6.712
  572WAT     H1 3008   6.131   5.608   6.674
  572WAT     H2 3009   6.217   5.538   6.756
  572WAT    EPW 3010   6.199   5.602   6.713
  573WAT      O 3011   6.253   5.587   7.059
  573WAT     H1 3012   6.255   5.520   7.004
  573WAT     H2 3013   6.188   5.637   7.028
  573WAT    EPW 3014   6.243   5.585   7.046
  574WAT      O 3015   7.242   5.359   6.899
  574WAT     H1 3016   7.176   5.391   6.945
  574WAT     H2 3017   7.261   5.422   6.842
  574WAT    EPW 3018   7.235   5.373   6.897
  575WAT      O 3019   6.663   6.465   6.998
  575WAT     H1 3020   6.635   6.401   6.946
  575WAT     H2 3021   6.642   6.538   6.954
  575WAT    EPW 3022   6.655   6.466   6.984
  576WAT      O 3023   6.907   4.949   7.241
  576WAT     H1 3024   6.921   4.867   7.217
  576WAT     H2 3025   6.944   4.955   7.320
  576WAT    EPW 3026   6.914   4.938   7.249
  577WAT      O 3027   7.061   5.156   6.250
  577WAT     H1 3028   7.110   5.227   6.242
  577WAT     H2 3029   6.982   5.182   6.223
  577WAT    EPW 3030   7.057   5.170   6.245
  578WAT      O 3031   6.032   5.723   7.615
  578WAT     H1 3032   6.029   5.773   7.543
  578WAT     H2 3033   6.066   5.648   7.585
  578WAT    EPW 3034   6.037   5.719   7.600
  579WAT      O 3035   7.193   5.943   7.441
  579WAT     H1 3036   7.241   6.015   7.450
  579WAT     H2 3037   7.232   5.901   7.376
  579WAT    EPW 3038   7.206   5.948   7.432
  580WAT      O 3039   6.622   6.228   7.558
  580WAT     H1 3040   6.658   6.210   7.636
  580WAT     H2 3041   6.579   6.155   7.538
  580WAT    EPW 3042   6.621   6.214   7.567
  581WAT      O 3043   6.720   5.303   6.822
  581WAT     H1 3044   6.768   5.372   6.843
  581WAT     H2 3045   6.757   5.238   6.867
  581WAT    EPW 3046   6.732   5.303   6.832
  582WAT      O 3047   6.938   5.619   6.050
  582WAT     H1 3048   6.938   5.692   6.001
  582WAT     H2 3049   6.875   5.633   6.107
  582WAT    EPW 3050   6.929   5.632   6.051
  583WAT      O 3051   7.436   6.006   6.448
  583WAT     H1 3052   7.471   5.971   6.519
  583WAT     H2 3053   7.435   5.940   6.391
  583WAT    EPW 3054   7.441   5.991   6.450
  584WAT      O 3055   7.040   6.313   6.832
  584WAT     H1 3056   6.980   6.283   6.776
  584WAT     H2 3057   7.095   6.358   6.781
  584WAT    EPW 3058   7.039   6.315   6.816
  585WAT      O 3059   7.041   5.998   6.772
  585WAT     H1 3060   6.962   6.021   6.799
  585WAT     H2 3061   7.067   5.939   6.831
  585WAT    EPW 3062   7.033   5.993   6.785
  586WAT      O 3063   6.431   6.479   6.217
  586WAT     H1 3064   6.416   6.402   6.254
  586WAT     H2 3065   6.500   6.465   6.165
  586WAT    EPW 3066   6.439   6.466   6.215
  587WAT      O 3067   6.398   4.854   6.016
  587WAT     H1 3068   6.407   4.843   6.102
  587WAT     H2 3069   6.327   4.904   6.009
  587WAT    EPW 3070   6.389   4.860   6.027
  588WAT      O 3071   6.660   6.431   6.057
  588WAT     H1 3072   6.722   6.447   6.116
  588WAT     H2 3073   6.663   6.500   6.004
  588WAT    EPW 3074   6.670   6.444   6.058
  589WAT      O 3075   7.367   5.798   7.257
  589WAT     H1 3076   7.373   5.810   7.170
  589WAT     H2 3077   7.443   5.830   7.287
  589WAT    EPW 3078   7.379   5.804   7.248
  590WAT      O 3079   7.471   4.828   7.555
  590WAT     H1 3080   7.407   4.788   7.511
  590WAT     H2 3081   7.473   4.785   7.631
  590WAT    EPW 3082   7.462   4.816   7.560
  591WAT      O 3083   6.110   5.684   6.140
  591WAT     H1 3084   6.142   5.606   6.118
  591WAT     H2 3085   6.175   5.721   6.185
  591WAT    EPW 3086   6.124   5.678   6.143
  592WAT      O 3087   6.941   5.779   7.217
  592WAT     H1 3088   6.925   5.840   7.277
  592WAT     H2 3089   6.994   5.723   7.257
  592WAT    EPW 3090   6.946   5.779   7.232
  593WAT      O 3091   5.810   4.850   6.237
  593WAT     H1 3092   5.823   4.780   6.188
  593WAT     H2 3093   5.773   4.819   6.309
  593WAT    EPW 3094   5.806   4.835   6.240
  594WAT      O 3095   6.779   5.619   6.282
  594WAT     H1 3096   6.785   5.684   6.340
  594WAT     H2 3097   6.760   5.549   6.332
  594WAT    EPW 3098   6.777   5.618   6.298
  595WAT      O 3099   7.302   6.051   6.869
  595WAT     H1 3100   7.254   6.081   6.803
  595WAT     H2 3101   7.266   5.974   6.887
  595WAT    EPW 3102   7.289   6.044   6.862
  596WAT      O 3103   6.229   5.070   5.934
  596WAT     H1 3104   6.177   5.076   5.863
  596WAT     H2 3105   6.307   5.094   5.904
  596WAT    EPW 3106   6.233   5.075   5.919
  597WAT      O 3107   6.701   5.823   6.726
  597WAT     H1 3108   6.617   5.804   6.734
  597WAT     H2 3109   6.734   5.807   6.805
  597WAT    EPW 3110   6.693   5.818   6.738
  598WAT      O 3111   6.376   6.496   5.814
  598WAT     H1 3112   6.420   6.427   5.843
  598WAT     H2 3113   6.397   6.559   5.871
  598WAT    EPW 3114   6.386   6.495   5.827
  599WAT      O 3115   6.086   5.793   6.957
  599WAT     H1 3116   6.158   5.841   6.953
  599WAT     H2 3117   6.059   5.790   6.874
  599WAT    EPW 3118   6.093   5.799   6.944
  600WAT      O 3119   6.409   5.310   6.631
  600WAT     H1 3120   6.494   5.291   6.640
  600WAT     H2 3121   6.372   5.232   6.617
  600WAT    EPW 3122   6.416   5.295   6.630
  601WAT      O 3123   5.891   5.443   6.296
  601WAT     H1 3124   5.940   5.414   6.362
  601WAT     H2 3125   5.904   5.384   6.233
  601WAT    EPW 3126   5.900   5.430   6.297
  602WAT      O 3127   7.395   5.746   6.981
  602WAT     H1 3128   7.394   5.668   7.021
  602WAT     H2 3129   7.311   5.769   6.981
  602WAT    EPW 3130   7.382   5.738   6.987
  603WAT      O 3131   6.344   5.587   5.845
  603WAT     H1 3132   6.283   5.546   5.892
  603WAT     H2 3133   6.305   5.599   5.767
  603WAT    EPW 3134   6.329   5.583   5.840
  604WAT      O 3135   6.026   5.898   7.385
  604WAT     H1 3136   5.983   5.846   7.329
  604WAT     H2 3137   5.990   5.976   7.371
  604WAT    EPW 3138   6.014   5.902   7.375
  605WAT      O 3139   6.489   5.433   6.116
  605WAT     H1 3140   6.516   5.516   6.122
  605WAT     H2 3141   6.403   5.440   6.106
  605WAT    EPW 3142   6.480   5.446   6.115
  606WAT      O 3143   7.286   5.145   7.579
  606WAT     H1 3144   7.234   5.191   7.631
  606WAT     H2 3145   7.250   5.066   7.578
  606WAT    EPW 3146   7.273   5.140   7.587
  607WAT      O 3147   5.837   5.030   6.769
  607WAT     H1 3148   5.842   5.064   6.689
  607WAT     H2 3149   5.913   5.054   6.806
  607WAT    EPW 3150   5.849   5.039   6.763
  608WAT      O 3151   7.136   5.502   7.587
  608WAT     H1 3152   7.143   5.512   7.673
  608WAT     H2 3153   7.072   5.558   7.564
  608WAT    EPW 3154   7.127   5.512   7.596
  609WAT      O 3155   7.362   5.534   7.423
  609WAT     H1 3156   7.394   5.613   7.443
  609WAT     H2 3157   7.325   5.507   7.497
  609WAT    EPW 3158   7.362   5.542   7.437
  610WAT      O 3159   7.294   6.176   5.976
  610WAT     H1 3160   7.327   6.096   5.980
  610WAT     H2 3161   7.218   6.169   6.019
  610WAT    EPW 3162   7.288   6.163   5.983
  611WAT      O 3163   7.342   5.360   6.542
  611WAT     H1 3164   7.268   5.327   6.574
  611WAT     H2 3165   7.342   5.442   6.570
  611WAT    EPW 3166   7.331   5.367   6.551
  612WAT      O 3167   7.031   5.964   5.916
  612WAT     H1 3168   7.100   5.912   5.899
  612WAT     H2 3169   6.990   5.968   5.840
  612WAT    EPW 3170   7.035   5.957   5.903
  613WAT      O 3171   6.499   6.079   7.047
  613WAT     H1 3172   6.470   6.138   7.103
  613WAT     H2 3173   6.505   6.123   6.972
  613WAT    EPW 3174   6.496   6.094   7.044
  614WAT      O 3175   6.297   5.974   7.387
  614WAT     H1 3176   6.217   5.945   7.403
  614WAT     H2 3177   6.288   6.061   7.387
  614WAT    EPW 3178   6.284   5.982   7.389
  615WAT      O 3179   7.233   4.993   7.288
  615WAT     H1 3180   7.308   5.038   7.282
  615WAT     H2 3181   7.177   5.040   7.241
  615WAT    EPW 3182   7.236   5.006   7.280
  616WAT      O 3183   6.751   5.721   6.996
  616WAT     H1 3184   6.799   5.759   7.059
  616WAT     H2 3185   6.669   5.735   7.022
  616WAT    EPW 3186   6.746   5.729   7.009
  617WAT      O 3187   6.422   5.281   7.270
  617WAT     H1 3188   6.438   5.207   7.313
  617WAT     H2 3189   6.418   5.257   7.186
  617WAT    EPW 3190   6.424   5.267   7.264
  618WAT      O 3191   6.677   6.460   6.519
  618WAT     H1 3192   6.732   6.528   6.524
  618WAT     H2 3193   6.642   6.469   6.439
  618WAT    EPW 3194   6.680   6.472   6.508
  619WAT      O 3195   7.362   4.791   7.055
  619WAT     H1 3196   7.334   4.873   7.051
  619WAT     H2 3197   7.433   4.796   7.105
  619WAT    EPW 3198   7.368   4.804   7.062
  620WAT      O 3199   6.597   4.862   7.258
  620WAT     H1 3200   6.668   4.894   7.218
  620WAT     H2 3201   6.621   4.782   7.281
  620WAT    EPW 3202   6.611   4.855   7.255
  621WAT      O 3203   6.496   6.283   6.858
  621WAT     H1 3204   6.433   6.341   6.839
  621WAT     H2 3205   6.521   6.255   6.779
  621WAT    EPW 3206   6.490   6.288   6.843
  622WAT      O 3207   6.927   5.947   7.556
  622WAT     H1 3208   7.002   5.975   7.524
  622WAT     H2 3209   6.872   5.952   7.489
  622WAT    EPW 3210   6.930   5.952   7.542
  623WAT      O 3211   7.318   6.202   7.407
  623WAT     H1 3212   7.352   6.229   7.482
  623WAT     H2 3213   7.347   6.260   7.349
  623WAT    EPW 3214   7.327   6.214   7.409
  624WAT      O 3215   7.504   5.416   5.941
  624WAT     H1 3216   7.542   5.484   5.901
  624WAT     H2 3217   7.420   5.439   5.944
  624WAT    EPW 3218   7.497   5.430   5.935
  625WAT      O 3219   6.655   5.761   5.849
  625WAT     H1 3220   6.575   5.743   5.821
  625WAT     H2 3221   6.652   5.846   5.868
  625WAT    EPW 3222   6.643   5.771   5.848
  626WAT      O 3223   6.248   5.368   6.864
  626WAT     H1 3224   6.292   5.357   6.789
  626WAT     H2 3225   6.303   5.336   6.925
  626WAT    EPW 3226   6.263   5.361   6.862
  627WAT      O 3227   7.050   5.278   7.423
  627WAT     H1 3228   6.985   5.325   7.458
  627WAT     H2 3229   7.106   5.269   7.489
  627WAT    EPW 3230   7.049   5.283   7.438
  628WAT      O 3231   7.019   5.431   7.053
  628WAT     H1 3232   7.049   5.473   7.123
  628WAT     H2 3233   7.022   5.347   7.076
  628WAT    EPW 3234   7.024   5.425   7.067
  629WAT      O 3235   6.761   6.448   7.446
  629WAT     H1 3236   6.809   6.388   7.404
  629WAT     H2 3237   6.726   6.404   7.512
  629WAT    EPW 3238   6.763   6.433   7.449
  630WAT      O 3239   7.273   5.376   6.278
  630WAT     H1 3240   7.294   5.356   6.361
  630WAT     H2 3241   7.349   5.403   6.244
  630WAT    EPW 3242   7.288   5.377   6.285
  631WAT      O 3243   6.603   4.866   6.869
  631WAT     H1 3244   6.520   4.851   6.892
  631WAT     H2 3245   6.599   4.870   6.782
  631WAT    EPW 3246   6.590   4.864   6.859
  632WAT      O 3247   7.376   4.984   6.426
  632WAT     H1 3248   7.304   4.937   6.443
  632WAT     H2 3249   7.359   5.019   6.347
  632WAT    EPW 3250   7.363   4.983   6.417
  633WAT      O 3251   7.420   5.779   6.264
  633WAT     H1 3252   7.467   5.706   6.259
  633WAT     H2 3253   7.338   5.750   6.256
  633WAT    EPW 3254   7.415   5.764   6.262
  634WAT      O 3255   6.767   5.970   7.348
  634WAT     H1 3256   6.687   5.964   7.383
  634WAT     H2 3257   6.774   6.055   7.328
  634WAT    EPW 3258   6.756   5.982   7.350
  635WAT      O 3259   5.859   4.906   7.472
  635WAT     H1 3260   5.845   4.985   7.439
  635WAT     H2 3261   5.781   4.882   7.501
  635WAT    EPW 3262   5.846   4.914   7.472
  636WAT      O 3263   6.350   6.591   6.879
  636WAT     H1 3264   6.351   6.597   6.966
  636WAT     H2 3265   6.307   6.516   6.864
  636WAT    EPW 3266   6.344   6.581   6.890
  637WAT      O 3267   6.166   5.180   6.195
  637WAT     H1 3268   6.178   5.147   6.115
  637WAT     H2 3269   6.085   5.155   6.215
  637WAT    EPW 3270   6.156   5.172   6.186
  638WAT      O 3271   7.041   5.896   6.499
  638WAT     H1 3272   7.049   5.930   6.579
  638WAT     H2 3273   7.058   5.811   6.511
  638WAT    EPW 3274   7.045   5.888   6.513
  639WAT      O 3275   6.794   5.823   6.456
  639WAT     H1 3276   6.764   5.791   6.531
  639WAT     H2 3277   6.863   5.870   6.479
  639WAT    EPW 3278   6.800   5.825   6.470
  640WAT      O 3279   6.816   6.235   7.258
  640WAT     H1 3280   6.885   6.223   7.311
  640WAT     H2 3281   6.829   6.314   7.224
  640WAT    EPW 3282   6.828   6.245   7.261
  641WAT      O 3283   7.085   5.562   7.297
  641WAT     H1 3284   7.059   5.490   7.339
  641WAT     H2 3285   7.167   5.574   7.324
  641WAT    EPW 3286   7.093   5.553   7.307
  642WAT      O 3287   6.026   6.541   7.423
  642WAT     H1 3288   5.961   6.484   7.433
  642WAT     H2 3289   5.989   6.618   7.439
  642WAT    EPW 3290   6.011   6.544   7.427
  643WAT      O 3291   6.878   5.681   7.616
  643WAT     H1 3292   6.910   5.750   7.573
  643WAT     H2 3293   6.808   5.713   7.656
  643WAT    EPW 3294   6.872   5.696   7.615
  644WAT      O 3295   7.187   6.519   6.709
  644WAT     H1 3296   7.141   6.583   6.747
  644WAT     H2 3297   7.257   6.511   6.759
  644WAT    EPW 3298   7.190   6.527   6.722
  645WAT      O 3299   6.857   6.028   7.002
  645WAT     H1 3300   6.787   6.068   7.036
  645WAT     H2 3301   6.924   6.071   7.036
  645WAT    EPW 3302   6.856   6.040   7.012
  646WAT      O 3303   6.163   5.381   7.236
  646WAT     H1 3304   6.201   5.443   7.188
  646WAT     H2 3305   6.231   5.334   7.265
  646WAT    EPW 3306   6.179   5.384   7.233
  647WAT      O 3307   5.941   5.226   7.164
  647WAT     H1 3308   5.949   5.209   7.079
  647WAT     H2 3309   6.016   5.267   7.184
  647WAT    EPW 3310   5.953   5.230   7.154
  648WAT      O 3311   7.497   5.490   6.208
  648WAT     H1 3312   7.507   5.484   6.121
  648WAT     H2 3313   7.571   5.457   6.240
  648WAT    EPW 3314   7.509   5.484   6.200
  649WAT      O 3315   6.196   4.967   7.405
  649WAT     H1 3316   6.188   4.883   7.426
  649WAT     H2 3317   6.165   4.972   7.324
  649WAT    EPW 3318   6.191   4.955   7.396
  650WAT      O 3319   6.889   6.187   6.319
  650WAT     H1 3320   6.868   6.270   6.303
  650WAT     H2 3321   6.811   6.148   6.331
  650WAT    EPW 3322   6.874   6.193   6.318
  651WAT      O 3323   7.407   5.505   7.143
  651WAT     H1 3324   7.407   5.418   7.156
  651WAT     H2 3325   7.414   5.537   7.224
  651WAT    EPW 3326   7.408   5.497   7.157
  652WAT      O 3327   5.881   5.749   7.186
  652WAT     H1 3328   5.913   5.771   7.108
  652WAT     H2 3329   5.871   5.662   7.181
  652WAT    EPW 3330   5.884   5.739   7.174
  653WAT      O 3331   6.026   5.342   5.848
  653WAT     H1 3332   5.959   5.344   5.904
  653WAT     H2 3333   6.036   5.258   5.830
  653WAT    EPW 3334   6.018   5.330   5.854
  654WAT      O 3335   6.995   4.985   7.522
  654WAT     H1 3336   7.004   5.056   7.571
  654WAT     H2 3337   6.931   4.940   7.561
  654WAT    EPW 3338   6.987   4.989   7.535
  655WAT      O 3339   6.894   5.004   6.607
  655WAT     H1 3340   6.824   5.056   6.601
  655WAT     H2 3341   6.898   4.966   6.529
  655WAT    EPW 3342   6.885   5.006   6.595
  656WAT      O 3343   6.425   6.213   5.959
  656WAT     H1 3344   6.469   6.221   6.034
  656WAT     H2 3345   6.345   6.191   5.985
  656WAT    EPW 3346   6.420   6.211   5.974
  657WAT      O 3347   7.254   5.055   6.887
  657WAT     H1 3348   7.340   5.065   6.902
  657WAT     H2 3349   7.217   5.111   6.944
  657WAT    EPW 3350   7.261   5.065   6.898
  658WAT      O 3351   6.357   5.678   7.325
  658WAT     H1 3352   6.317   5.755   7.332
  658WAT     H2 3353   6.316   5.641   7.257
  658WAT    EPW 3354   6.345   5.684   7.316
  659WAT      O 3355   7.285   5.583   6.736
  659WAT     H1 3356   7.351   5.637   6.752
  659WAT     H2 3357   7.250   5.614   6.662
  659WAT    EPW 3358   7.289   5.596   6.728
  660WAT      O 3359   7.316   6.390   6.317
  660WAT     H1 3360   7.298   6.325   6.372
  660WAT     H2 3361   7.387   6.363   6.275
  660WAT    EPW 3362   7.324   6.376   6.319
  661WAT      O 3363   6.158   6.120   6.020
  661WAT     H1 3364   6.134   6.089   6.098
  661WAT     H2 3365   6.155   6.050   5.968
  661WAT    EPW 3366   6.154   6.105   6.023
  662WAT      O 3367   6.440   5.944   5.894
  662WAT     H1 3368   6.358   5.918   5.908
  662WAT     H2 3369   6.437   6.030   5.912
  662WAT    EPW 3370   6.427   5.953   5.899
  663WAT      O 3371   6.400   4.976   7.070
  663WAT     H1 3372   6.313   4.984   7.078
  663WAT     H2 3373   6.422   4.924   7.137
  663WAT    EPW 3374   6.390   4.969   7.081
  664WAT      O 3375   6.810   5.050   6.907
  664WAT     H1 3376   6.736   5.005   6.918
  664WAT     H2 3377   6.867   5.010   6.959
  664WAT    EPW 3378   6.808   5.038   6.917
  665WAT      O 3379   7.083   6.135   7.086
  665WAT     H1 3380   7.104   6.165   7.165
  665WAT     H2 3381   7.077   6.207   7.037
  665WAT    EPW 3382   7.085   6.150   7.090
  666WAT      O 3383   7.037   6.557   7.511
  666WAT     H1 3384   6.961   6.555   7.466
  666WAT     H2 3385   7.054   6.642   7.519
  666WAT    EPW 3386   7.028   6.569   7.505
  667WAT      O 3387   6.560   5.483   7.428
  667WAT     H1 3388   6.528   5.426   7.371
  667WAT     H2 3389   6.525   5.559   7.403
  667WAT    EPW 3390   6.550   5.486   7.416
  668WAT      O 3391   6.640   4.809   5.890
  668WAT     H1 3392   6.648   4.833   5.807
  668WAT     H2 3393   6.566   4.846   5.916
  668WAT    EPW 3394   6.630   4.818   5.882
  669WAT      O 3395   7.565   5.999   7.032
  669WAT     H1 3396   7.561   5.913   7.018
  669WAT     H2 3397   7.495   6.029   6.988
  669WAT    EPW 3398   7.554   5.991   7.023
  670WAT      O 3399   6.404   6.519   7.452
  670WAT     H1 3400   6.408   6.532   7.539
  670WAT     H2 3401   6.469   6.463   7.437
  670WAT    EPW 3402   6.414   6.513   7.463
  671WAT      O 3403   7.375   6.325   6.911
  671WAT     H1 3404   7.428   6.317   6.842
  671WAT     H2 3405   7.336   6.247   6.917
  671WAT    EPW 3406   7.377   6.312   6.902
  672WAT      O 3407   6.122   4.984   7.135
  672WAT     H1 3408   6.088   4.907   7.111
  672WAT     H2 3409   6.052   5.036   7.141
  672WAT    EPW 3410   6.107   4.980   7.132
  673WAT      O 3411   7.026   4.870   6.832
  673WAT     H1 3412   7.093   4.924   6.845
  673WAT     H2 3413   6.976   4.912   6.775
  673WAT    EPW 3414   7.029   4.884   6.826
  674WAT      O 3415   6.163   6.357   7.588
  674WAT     H1 3416   6.223   6.400   7.636
  674WAT     H2 3417   6.127   6.420   7.539
  674WAT    EPW 3418   6.167   6.373   7.588
  675WAT      O 3419   6.962   5.450   6.582
  675WAT     H1 3420   7.017   5.390   6.612
  675WAT     H2 3421   6.920   5.477   6.653
  675WAT    EPW 3422   6.964   5.445   6.596
  676WAT      O 3423   5.987   5.315   6.530
  676WAT     H1 3424   5.950   5.346   6.603
  676WAT     H2 3425   6.041   5.252   6.559
  676WAT    EPW 3426   5.990   5.311   6.545
  677WAT      O 3427   5.956   6.156   7.281
  677WAT     H1 3428   5.899   6.198   7.332
  677WAT     H2 3429   6.029   6.203   7.291
  677WAT    EPW 3430   5.958   6.169   7.290
  678WAT      O 3431   7.159   5.633   6.238
  678WAT     H1 3432   7.166   5.548   6.256
  678WAT     H2 3433   7.077   5.642   6.210
  678WAT    EPW 3434   7.148   5.622   6.236
  679WAT      O 3435   6.135   6.483   6.159
  679WAT     H1 3436   6.120   6.498   6.074
  679WAT     H2 3437   6.221   6.491   6.167
  679WAT    EPW 3438   6.145   6.486   6.147
  680WAT      O 3439   6.551   5.723   6.132
  680WAT     H1 3440   6.561   5.736   6.046
  680WAT     H2 3441   6.633   5.717   6.161
  680WAT    EPW 3442   6.565   5.724   6.123
  681WAT      O 3443   7.467   6.529   5.880
  681WAT     H1 3444   7.531   6.516   5.938
  681WAT     H2 3445   7.433   6.450   5.868
  681WAT    EPW 3446   7.472   6.515   5.886
  682WAT      O 3447   7.487   5.771   7.553
  682WAT     H1 3448   7.550   5.754   7.610
  682WAT     H2 3449   7.528   5.811   7.488
  682WAT    EPW 3450   7.502   5.774   7.552
  683WAT      O 3451   7.075   6.155   6.112
  683WAT     H1 3452   7.050   6.143   6.194
  683WAT     H2 3453   7.043   6.086   6.070
  683WAT    EPW 3454   7.066   6.143   6.118
  684WAT      O 3455   7.549   5.227   7.627
  684WAT     H1 3456   7.530   5.292   7.682
  684WAT     H2 3457   7.477   5.178   7.626
  684WAT    EPW 3458   7.536   5.229   7.635
  685WAT      O 3459   7.539   5.321   6.924
  685WAT     H1 3460   7.456   5.346   6.917
  685WAT     H2 3461   7.534   5.237   6.947
  685WAT    EPW 3462   7.526   5.313   6.926
  686WAT      O 3463   6.465   5.020   7.443
  686WAT     H1 3464   6.489   4.962   7.382
  686WAT     H2 3465   6.381   5.002   7.457
  686WAT    EPW 3466   6.456   5.009   7.436
  687WAT      O 3467   7.228   5.782   7.688
  687WAT     H1 3468   7.315   5.778   7.685
  687WAT     H2 3469   7.206   5.824   7.615
  687WAT    EPW 3470   7.238   5.787   7.677
  688WAT      O 3471   6.203   6.364   6.806
  688WAT     H1 3472   6.195   6.283   6.775
  688WAT     H2 3473   6.159   6.413   6.749
  688WAT    EPW 3474   6.196   6.360   6.793
  689WAT      O 3475   6.763   5.976   6.055
  689WAT     H1 3476   6.835   5.942   6.019
  689WAT     H2 3477   6.760   6.056   6.020
  689WAT    EPW 3478   6.773   5.983   6.044
  690WAT      O 3479   5.960   6.589   7.165
  690WAT     H1 3480   6.010   6.583   7.236
  690WAT     H2 3481   5.979   6.515   7.121
  690WAT    EPW 3482   5.971   6.577   7.169
  691WAT      O 3483   6.904   4.840   4.479
  691WAT     H1 3484   6.880   4.889   4.411
  691WAT     H2 3485   6.991   4.833   4.469
  691WAT    EPW 3486   6.913   4.846   4.467
  692WAT      O 3487   6.885   5.532   4.946
  692WAT     H1 3488   6.833   5.592   4.982
  692WAT     H2 3489   6.925   5.495   5.014
  692WAT    EPW 3490   6.883   5.535   4.961
  693WAT      O 3491   5.872   5.946   4.491
  693WAT     H1 3492   5.828   5.958   4.566
  693WAT     H2 3493   5.844   5.868   4.463
  693WAT    EPW 3494   5.861   5.936   4.498
  694WAT      O 3495   7.500   6.276   4.243
  694WAT     H1 3496   7.570   6.224   4.242
  694WAT     H2 3497   7.441   6.232   4.196
  694WAT    EPW 3498   7.501   6.262   4.236
  695WAT      O 3499   5.846   5.325   4.142
  695WAT     H1 3500   5.769   5.341   4.106
  695WAT     H2 3501   5.850   5.238   4.144
  695WAT    EPW 3502   5.835   5.315   4.137
  696WAT      O 3503   6.160   5.851   4.009
  696WAT     H1 3504   6.121   5.814   3.941
  696WAT     H2 3505   6.152   5.792   4.072
  696WAT    EPW 3506   6.153   5.837   4.008
  697WAT      O 3507   7.152   5.639   4.613
  697WAT     H1 3508   7.160   5.639   4.526
  697WAT     H2 3509   7.094   5.575   4.628
  697WAT    EPW 3510   7.145   5.629   4.603
  698WAT      O 3511   6.123   6.016   4.399
  698WAT     H1 3512   6.184   5.999   4.460
  698WAT     H2 3513   6.048   6.002   4.441
  698WAT    EPW 3514   6.121   6.011   4.414
  699WAT      O 3515   6.551   4.949   4.394
  699WAT     H1 3516   6.544   5.017   4.340
  699WAT     H2 3517   6.625   4.910   4.369
  699WAT    EPW 3518   6.561   4.953   4.382
  700WAT      O 3519   6.012   6.325   4.007
  700WAT     H1 3520   6.059   6.333   3.934
  700WAT     H2 3521   6.058   6.267   4.054
  700WAT    EPW 3522   6.026   6.317   4.003
  701WAT      O 3523   5.866   6.219   5.117
  701WAT     H1 3524   5.879   6.191   5.198
  701WAT     H2 3525   5.805   6.165   5.086
  701WAT    EPW 3526   5.859   6.207   5.124
  702WAT      O 3527   6.523   5.972   5.624
  702WAT     H1 3528   6.500   5.972   5.708
  702WAT     H2 3529   6.449   5.957   5.581
  702WAT    EPW 3530   6.509   5.970   5.630
  703WAT      O 3531   6.011   5.672   4.537
  703WAT     H1 3532   5.964   5.632   4.474
  703WAT     H2 3533   6.081   5.620   4.546
  703WAT    EPW 3534   6.014   5.658   4.529
  704WAT      O 3535   6.461   5.233   5.072
  704WAT     H1 3536   6.529   5.234   5.017
  704WAT     H2 3537   6.457   5.149   5.096
  704WAT    EPW 3538   6.471   5.220   5.067
  705WAT      O 3539   6.522   6.291   5.350
  705WAT     H1 3540   6.535   6.367   5.309
  705WAT     H2 3541   6.601   6.255   5.353
  705WAT    EPW 3542   6.535   6.297   5.344
  706WAT      O 3543   6.211   5.482   4.539
  706WAT     H1 3544   6.292   5.463   4.564
  706WAT     H2 3545   6.163   5.420   4.579
  706WAT    EPW 3546   6.216   5.470   4.549
  707WAT      O 3547   6.631   6.080   4.800
  707WAT     H1 3548   6.666   6.000   4.803
  707WAT     H2 3549   6.698   6.130   4.775
  707WAT    EPW 3550   6.646   6.075   4.797
  708WAT      O 3551   6.637   6.025   4.421
  708WAT     H1 3552   6.670   5.960   4.470
  708WAT     H2 3553   6.661   6.003   4.340
  708WAT    EPW 3554   6.645   6.012   4.417
  709WAT      O 3555   6.834   5.438   5.555
  709WAT     H1 3556   6.749   5.428   5.538
  709WAT     H2 3557   6.837   5.512   5.601
  709WAT    EPW 3558   6.822   5.447   5.559
  710WAT      O 3559   6.270   4.991   4.466
  710WAT     H1 3560   6.241   5.041   4.401
  710WAT     H2 3561   6.357   4.999   4.460
  710WAT    EPW 3562   6.279   5.000   4.456
  711WAT      O 3563   7.289   4.734   5.467
  711WAT     H1 3564   7.274   4.811   5.429
  711WAT     H2 3565   7.212   4.712   5.501
  711WAT    EPW 3566   7.276   4.742   5.466
  712WAT      O 3567   6.568   4.905   4.688
  712WAT     H1 3568   6.576   4.991   4.701
  712WAT     H2 3569   6.565   4.898   4.601
  712WAT    EPW 3570   6.569   4.917   4.677
  713WAT      O 3571   7.036   5.198   3.918
  713WAT     H1 3572   6.991   5.266   3.949
  713WAT     H2 3573   7.047   5.147   3.988
  713WAT    EPW 3574   7.031   5.200   3.933
  714WAT      O 3575   5.856   5.448   4.838
  714WAT     H1 3576   5.831   5.531   4.831
  714WAT     H2 3577   5.790   5.409   4.880
  714WAT    EPW 3578   5.843   5.454   4.843
  715WAT      O 3579   5.847   6.419   4.628
  715WAT     H1 3580   5.788   6.474   4.597
  715WAT     H2 3581   5.890   6.392   4.557
  715WAT    EPW 3582   5.845   6.423   4.613
  716WAT      O 3583   6.431   6.203   4.376
  716WAT     H1 3584   6.373   6.176   4.436
  716WAT     H2 3585   6.494   6.142   4.379
  716WAT    EPW 3586   6.432   6.190   4.385
  717WAT      O 3587   7.046   6.432   4.129
  717WAT     H1 3588   7.118   6.479   4.139
  717WAT     H2 3589   7.068   6.352   4.157
  717WAT    EPW 3590   7.060   6.427   4.134
  718WAT      O 3591   6.862   6.471   4.328
  718WAT     H1 3592   6.884   6.524   4.394
  718WAT     H2 3593   6.939   6.454   4.290
  718WAT    EPW 3594   6.877   6.476   4.332
  719WAT      O 3595   6.159   4.929   4.887
  719WAT     H1 3596   6.107   4.867   4.857
  719WAT     H2 3597   6.218   4.886   4.935
  719WAT    EPW 3598   6.160   4.914   4.890
  720WAT      O 3599   6.490   5.143   5.817
  720WAT     H1 3600   6.501   5.097   5.744
  720WAT     H2 3601   6.519   5.222   5.797
  720WAT    EPW 3602   6.496   5.148   5.803
  721WAT      O 3603   6.002   6.286   4.421
  721WAT     H1 3604   6.067   6.228   4.423
  721WAT     H2 3605   6.041   6.361   4.399
  721WAT    EPW 3606   6.017   6.288   4.418
  722WAT      O 3607   7.575   5.195   4.548
  722WAT     H1 3608   7.540   5.263   4.590
  722WAT     H2 3609   7.511   5.135   4.549
  722WAT    EPW 3610   7.561   5.196   4.554
  723WAT      O 3611   7.106   6.472   5.158
  723WAT     H1 3612   7.181   6.518   5.157
  723WAT     H2 3613   7.094   6.451   5.074
  723WAT    EPW 3614   7.115   6.476   5.146
  724WAT      O 3615   6.063   5.102   5.716
  724WAT     H1 3616   5.985   5.063   5.708
  724WAT     H2 3617   6.112   5.061   5.657
  724WAT    EPW 3618   6.059   5.090   5.706
  725WAT      O 3619   6.084   6.134   4.771
  725WAT     H1 3620   6.126   6.099   4.704
  725WAT     H2 3621   6.116   6.092   4.841
  725WAT    EPW 3622   6.095   6.123   4.772
  726WAT      O 3623   6.407   6.420   4.701
  726WAT     H1 3624   6.491   6.430   4.682
  726WAT     H2 3625   6.377   6.501   4.708
  726WAT    EPW 3626   6.415   6.433   4.699
  727WAT      O 3627   6.728   4.867   5.632
  727WAT     H1 3628   6.746   4.786   5.605
  727WAT     H2 3629   6.714   4.911   5.559
  727WAT    EPW 3630   6.728   4.861   5.617
  728WAT      O 3631   6.787   5.359   4.510
  728WAT     H1 3632   6.816   5.336   4.431
  728WAT     H2 3633   6.861   5.367   4.557
  728WAT    EPW 3634   6.802   5.357   4.505
  729WAT      O 3635   6.860   5.393   4.022
  729WAT     H1 3636   6.888   5.472   4.047
  729WAT     H2 3637   6.782   5.410   3.986
  729WAT    EPW 3638   6.852   5.407   4.020
  730WAT      O 3639   7.264   6.591   4.169
  730WAT     H1 3640   7.330   6.576   4.114
  730WAT     H2 3641   7.300   6.582   4.248
  730WAT    EPW 3642   7.279   6.587   4.172
  731WAT      O 3643   6.306   6.541   5.275
  731WAT     H1 3644   6.336   6.535   5.357
  731WAT     H2 3645   6.244   6.481   5.271
  731WAT    EPW 3646   6.302   6.532   5.287
  732WAT      O 3647   5.798   5.157   5.474
  732WAT     H1 3648   5.797   5.216   5.539
  732WAT     H2 3649   5.857   5.188   5.419
  732WAT    EPW 3650   5.807   5.170   5.476
  733WAT      O 3651   7.032   6.191   5.528
  733WAT     H1 3652   7.028   6.229   5.607
  733WAT     H2 3653   7.117   6.186   5.511
  733WAT    EPW 3654   7.044   6.196   5.538
  734WAT      O 3655   6.745   6.210   4.003
  734WAT     H1 3656   6.727   6.265   4.069
  734WAT     H2 3657   6.822   6.239   3.973
  734WAT    EPW 3658   6.754   6.223   4.009
  735WAT      O 3659   7.096   5.000   4.109
  735WAT     H1 3660   7.150   4.932   4.116
  735WAT     H2 3661   7.102   5.040   4.186
  735WAT    EPW 3662   7.105   4.996   4.121
  736WAT      O 3663   5.892   5.117   4.366
  736WAT     H1 3664   5.880   5.030   4.369
  736WAT     H2 3665   5.844   5.146   4.433
  736WAT    EPW 3666   5.883   5.108   4.376
  737WAT      O 3667   6.106   6.358   5.187
  737WAT     H1 3668   6.036   6.307   5.200
  737WAT     H2 3669   6.132   6.337   5.106
  737WAT    EPW 3670   6.099   6.347   5.177
  738WAT      O 3671   6.822   5.237   4.240
  738WAT     H1 3672   6.771   5.171   4.215
  738WAT     H2 3673   6.827   5.288   4.169
  738WAT    EPW 3674   6.815   5.235   4.226
  739WAT      O 3675   6.877   6.507   5.278
  739WAT     H1 3676   6.954   6.499   5.238
  739WAT     H2 3677   6.819   6.495   5.214
  739WAT    EPW 3678   6.880   6.504   5.263
  740WAT      O 3679   6.822   4.932   4.229
  740WAT     H1 3680   6.776   4.891   4.167
  740WAT     H2 3681   6.899   4.947   4.192
  740WAT    EPW 3682   6.827   4.928   4.215
  741WAT      O 3683   7.505   6.567   4.568
  741WAT     H1 3684   7.459   6.639   4.588
  741WAT     H2 3685   7.443   6.510   4.544
  741WAT    EPW 3686   7.489   6.569   4.568
  742WAT      O 3687   6.682   5.168   4.682
  742WAT     H1 3688   6.689   5.225   4.616
  742WAT     H2 3689   6.694   5.217   4.753
  742WAT    EPW 3690   6.685   5.184   4.682
  743WAT      O 3691   7.204   6.152   4.523
  743WAT     H1 3692   7.274   6.104   4.542
  743WAT     H2 3693   7.138   6.095   4.527
  743WAT    EPW 3694   7.205   6.136   4.526
  744WAT      O 3695   6.242   6.243   5.444
  744WAT     H1 3696   6.326   6.249   5.422
  744WAT     H2 3697   6.238   6.282   5.522
  744WAT    EPW 3698   6.254   6.250   5.452
  745WAT      O 3699   6.143   4.751   4.516
  745WAT     H1 3700   6.196   4.819   4.515
  745WAT     H2 3701   6.143   4.723   4.434
  745WAT    EPW 3702   6.150   4.757   4.504
  746WAT      O 3703   6.438   5.794   4.919
  746WAT     H1 3704   6.455   5.773   5.002
  746WAT     H2 3705   6.373   5.740   4.897
  746WAT    EPW 3706   6.431   5.783   4.928
  747WAT      O 3707   7.061   5.185   5.270
  747WAT     H1 3708   7.051   5.217   5.351
  747WAT     H2 3709   7.002   5.121   5.267
  747WAT    EPW 3710   7.051   5.180   5.282
  748WAT      O 3711   6.513   5.788   5.178
  748WAT     H1 3712   6.518   5.872   5.198
  748WAT     H2 3713   6.485   5.751   5.252
  748WAT    EPW 3714   6.510   5.795   5.192
  749WAT      O 3715   7.131   5.857   5.091
  749WAT     H1 3716   7.079   5.816   5.148
  749WAT     H2 3717   7.118   5.942   5.109
  749WAT    EPW 3718   7.121   5.864   5.102
  750WAT      O 3719   7.187   4.780   4.554
  750WAT     H1 3720   7.191   4.748   4.635
  750WAT     H2 3721   7.219   4.715   4.505
  750WAT    EPW 3722   7.192   4.765   4.559
  751WAT      O 3723   5.795   6.225   5.799
  751WAT     H1 3724   5.871   6.260   5.825
  751WAT     H2 3725   5.813   6.139   5.793
  751WAT    EPW 3726   5.809   6.217   5.802
  752WAT      O 3727   7.433   5.203   5.385
  752WAT     H1 3728   7.510   5.181   5.418
  752WAT     H2 3729   7.385   5.225   5.455
  752WAT    EPW 3730   7.437   5.203   5.400
  753WAT      O 3731   6.187   5.132   4.682
  753WAT     H1 3732   6.215   5.089   4.611
  753WAT     H2 3733   6.170   5.068   4.739
  753WAT    EPW 3734   6.189   5.116   4.680
  754WAT      O 3735   7.456   5.901   4.104
  754WAT     H1 3736   7.468   5.872   4.185
  754WAT     H2 3737   7.537   5.903   4.071
  754WAT    EPW 3738   7.470   5.897   4.111
  755WAT      O 3739   6.170   5.874   4.637
  755WAT     H1 3740   6.255   5.866   4.619
  755WAT     H2 3741   6.134   5.806   4.595
  755WAT    EPW 3742   6.177   5.863   4.628
  756WAT      O 3743   6.046   6.547   4.760
  756WAT     H1 3744   5.979   6.497   4.736
  756WAT     H2 3745   6.087   6.565   4.685
  756WAT    EPW 3746   6.042   6.542   4.746
  757WAT      O 3747   6.001   5.242   4.990
  757WAT     H1 3748   6.086   5.264   4.986
  757WAT     H2 3749   5.963   5.299   4.937
  757WAT    EPW 3750   6.008   5.253   4.981
  758WAT      O 3751   7.246   5.555   4.062
  758WAT     H1 3752   7.224   5.628   4.020
  758WAT     H2 3753   7.201   5.560   4.137
  758WAT    EPW 3754   7.236   5.566   4.067
  759WAT      O 3755   6.407   5.875   4.460
  759WAT     H1 3756   6.478   5.924   4.469
  759WAT     H2 3757   6.429   5.818   4.398
  759WAT    EPW 3758   6.420   5.874   4.452
  760WAT      O 3759   5.822   6.039   4.792
  760WAT     H1 3760   5.755   6.088   4.820
  760WAT     H2 3761   5.890   6.094   4.795
  760WAT    EPW 3762   5.822   6.054   4.797
  761WAT      O 3763   6.587   5.410   5.802
  761WAT     H1 3764   6.538   5.468   5.846
  761WAT     H2 3765   6.584   5.440   5.720
  761WAT    EPW 3766   6.579   5.423   5.796
  762WAT      O 3767   5.829   5.708   4.302
  762WAT     H1 3768   5.810   5.624   4.318
  762WAT     H2 3769   5.895   5.704   4.245
  762WAT    EPW 3770   5.836   5.695   4.296
  763WAT      O 3771   7.465   4.997   4.235
  763WAT     H1 3772   7.539   4.956   4.255
  763WAT     H2 3773   7.491   5.068   4.193
  763WAT    EPW 3774   7.479   5.001   4.232
  764WAT      O 3775   6.859   6.245   4.693
  764WAT     H1 3776   6.807   6.309   4.664
  764WAT     H2 3777   6.890   6.209   4.620
  764WAT    EPW 3778   6.856   6.249   4.678
  765WAT      O 3779   5.846   6.124   4.260
  765WAT     H1 3780   5.901   6.181   4.296
  765WAT     H2 3781   5.823   6.073   4.326
  765WAT    EPW 3782   5.851   6.125   4.275
  766WAT      O 3783   6.266   6.024   4.969
  766WAT     H1 3784   6.313   6.053   5.037
  766WAT     H2 3785   6.324   5.976   4.923
  766WAT    EPW 3786   6.282   6.021   4.972
  767WAT      O 3787   7.110   5.225   4.743
  767WAT     H1 3788   7.144   5.241   4.821
  767WAT     H2 3789   7.065   5.152   4.754
  767WAT    EPW 3790   7.108   5.217   4.756
  768WAT      O 3791   5.829   5.969   4.023
  768WAT     H1 3792   5.905   5.926   4.029
  768WAT     H2 3793   5.830   6.022   4.092
  768WAT    EPW 3794   5.840   5.970   4.034
  769WAT      O 3795   5.923   5.791   4.823
  769WAT     H1 3796   5.966   5.778   4.749
  769WAT     H2 3797   5.902   5.876   4.821
  769WAT    EPW 3798   5.926   5.802   4.812
  770WAT      O 3799   6.558   5.147   4.188
  770WAT     H1 3800   6.557   5.136   4.102
  770WAT     H2 3801   6.539   5.232   4.197
  770WAT    EPW 3802   6.555   5.158   4.177
  771WAT      O 3803   7.463   6.390   5.338
  771WAT     H1 3804   7.396   6.442   5.360
  771WAT     H2 3805   7.469   6.400   5.252
  771WAT    EPW 3806   7.454   6.399   5.328
  772WAT      O 3807   6.331   6.143   4.651
  772WAT     H1 3808   6.344   6.227   4.670
  772WAT     H2 3809   6.398   6.103   4.691
  772WAT    EPW 3810   6.343   6.149   4.660
  773WAT      O 3811   6.144   5.491   5.638
  773WAT     H1 3812   6.091   5.440   5.684
  773WAT     H2 3813   6.146   5.452   5.560
  773WAT    EPW 3814   6.137   5.478   5.633
  774WAT      O 3815   6.193   5.431   4.152
  774WAT     H1 3816   6.180   5.386   4.225
  774WAT     H2 3817   6.135   5.396   4.096
  774WAT    EPW 3818   6.182   5.419   4.154
  775WAT      O 3819   6.210   5.614   4.812
  775WAT     H1 3820   6.131   5.608   4.773
  775WAT     H2 3821   6.217   5.538   4.855
  775WAT    EPW 3822   6.199   5.602   4.812
  776WAT      O 3823   6.253   5.587   5.158
  776WAT     H1 3824   6.255   5.520   5.103
  776WAT     H2 3825   6.188   5.637   5.127
  776WAT    EPW 3826   6.243   5.585   5.146
  777WAT      O 3827   7.242   5.359   4.998
  777WAT     H1 3828   7.176   5.391   5.044
  777WAT     H2 3829   7.261   5.422   4.941
  777WAT    EPW 3830   7.235   5.373   4.996
  778WAT      O 3831   6.663   6.465   5.098
  778WAT     H1 3832   6.635   6.401   5.045
  778WAT     H2 3833   6.642   6.538   5.054
  778WAT    EPW 3834   6.655   6.466   5.083
  779WAT      O 3835   6.907   4.949   5.341
  779WAT     H1 3836   6.921   4.867   5.317
  779WAT     H2 3837   6.944   4.955   5.419
  779WAT    EPW 3838   6.914   4.938   5.349
  780WAT      O 3839   7.061   5.156   4.349
  780WAT     H1 3840   7.110   5.227   4.341
  780WAT     H2 3841   6.982   5.182   4.323
  780WAT    EPW 3842   7.057   5.170   4.344
  781WAT      O 3843   6.032   5.723   5.714
  781WAT     H1 3844   6.029   5.773   5.643
  781WAT     H2 3845   6.066   5.648   5.685
  781WAT    EPW 3846   6.037   5.719   5.699
  782WAT      O 3847   7.193   5.943   5.540
  782WAT     H1 3848   7.241   6.015   5.550
  782WAT     H2 3849   7.232   5.901   5.475
  782WAT    EPW 3850   7.206   5.948   5.532
  783WAT      O 3851   6.622   6.228   5.658
  783WAT     H1 3852   6.658   6.210   5.735
  783WAT     H2 3853   6.579   6.155   5.638
  783WAT    EPW 3854   6.621   6.214   5.666
  784WAT      O 3855   6.720   5.303   4.922
  784WAT     H1 3856   6.768   5.372   4.942
  784WAT     H2 3857   6.757   5.238   4.967
  784WAT    EPW 3858   6.732   5.303   4.931
  785WAT      O 3859   6.938   5.619   4.149
  785WAT     H1 3860   6.938   5.692   4.100
  785WAT     H2 3861   6.875   5.633   4.207
  785WAT    EPW 3862   6.929   5.632   4.150
  786WAT      O 3863   7.436   6.006   4.547
  786WAT     H1 3864   7.471   5.971   4.619
  786WAT     H2 3865   7.435   5.940   4.490
  786WAT    EPW 3866   7.441   5.991   4.549
  787WAT      O 3867   7.040   6.313   4.931
  787WAT     H1 3868   6.980   6.283   4.876
  787WAT     H2 3869   7.095   6.358   4.881
  787WAT    EPW 3870   7.039   6.315   4.916
  788WAT      O 3871   7.041   5.998   4.871
  788WAT     H1 3872   6.962   6.021   4.899
  788WAT     H2 3873   7.067   5.939   4.930
  788WAT    EPW 3874   7.033   5.993   4.884
  789WAT      O 3875   6.431   6.479   4.316
  789WAT     H1 3876   6.416   6.402   4.353
  789WAT     H2 3877   6.500   6.465   4.265
  789WAT    EPW 3878   6.439   6.466   4.314
  790WAT      O 3879   6.398   4.854   4.115
  790WAT     H1 3880   6.407   4.843   4.201
  790WAT     H2 3881   6.327   4.904   4.109
  790WAT    EPW 3882   6.389   4.860   4.127
  791WAT      O 3883   6.660   6.431   4.156
  791WAT     H1 3884   6.722   6.447   4.215
  791WAT     H2 3885   6.663   6.500   4.103
  791WAT    EPW 3886   6.670   6.444   4.157
  792WAT      O 3887   7.367   5.798   5.356
  792WAT     H1 3888   7.373   5.810   5.270
  792WAT     H2 3889   7.443   5.830   5.386
  792WAT    EPW 3890   7.379   5.804   5.348
  793WAT      O 3891   6.987   6.333   5.784
  793WAT     H1 3892   7.003   6.361   5.865
  793WAT     H2 3893   7.013   6.399   5.733
  793WAT    EPW 3894   6.993   6.347   5.788
  794WAT      O 3895   7.471   4.828   5.655
  794WAT     H1 3896   7.407   4.788   5.611
  794WAT     H2 3897   7.473   4.785   5.731
  794WAT    EPW 3898   7.462   4.816   5.659
  795WAT      O 3899   6.110   5.684   4.239
  795WAT     H1 3900   6.142   5.606   4.217
  795WAT     H2 3901   6.175   5.721   4.285
  795WAT    EPW 3902   6.124   5.678   4.243
  796WAT      O 3903   6.941   5.779   5.316
  796WAT     H1 3904   6.925   5.840   5.376
  796WAT     H2 3905   6.994   5.723   5.357
  796WAT    EPW 3906   6.946   5.779   5.331
  797WAT      O 3907   5.810   4.850   4.336
  797WAT     H1 3908   5.823   4.780   4.287
  797WAT     H2 3909   5.773   4.819   4.409
  797WAT    EPW 3910   5.806   4.835   4.340
  798WAT      O 3911   6.779   5.619   4.382
  798WAT     H1 3912   6.785   5.684   4.440
  798WAT     H2 3913   6.760   5.549   4.431
  798WAT    EPW 3914   6.777   5.618   4.398
  799WAT      O 3915   7.302   6.051   4.969
  799WAT     H1 3916   7.254   6.081   4.902
  799WAT     H2 3917   7.266   5.974   4.987
  799WAT    EPW 3918   7.289   6.044   4.962
  800WAT      O 3919   6.229   5.070   4.033
  800WAT     H1 3920   6.177   5.076   3.962
  800WAT     H2 3921   6.307   5.094   4.003
  800WAT    EPW 3922   6.233   5.075   4.018
  801WAT      O 3923   6.701   5.823   4.825
  801WAT     H1 3924   6.617   5.804   4.833
  801WAT     H2 3925   6.734   5.807   4.904
  801WAT    EPW 3926   6.693   5.818   4.838
  802WAT      O 3927   6.376   6.496   3.914
  802WAT     H1 3928   6.420   6.427   3.942
  802WAT     H2 3929   6.397   6.559   3.971
  802WAT    EPW 3930   6.386   6.495   3.926
  803WAT      O 3931   6.086   5.793   5.057
  803WAT     H1 3932   6.158   5.841   5.053
  803WAT     H2 3933   6.059   5.790   4.974
  803WAT    EPW 3934   6.093   5.799   5.044
  804WAT      O 3935   6.409   5.310   4.730
  804WAT     H1 3936   6.494   5.291   4.740
  804WAT     H2 3937   6.372   5.232   4.716
  804WAT    EPW 3938   6.416   5.295   4.729
  805WAT      O 3939   5.891   5.443   4.396
  805WAT     H1 3940   5.940   5.414   4.462
  805WAT     H2 3941   5.904   5.384   4.333
  805WAT    EPW 3942   5.900   5.430   4.396
  806WAT      O 3943   7.395   5.746   5.081
  806WAT     H1 3944   7.394   5.668   5.120
  806WAT     H2 3945   7.311   5.769   5.080
  806WAT    EPW 3946   7.382   5.738   5.086
  807WAT      O 3947   6.344   5.587   3.944
  807WAT     H1 3948   6.283   5.546   3.992
  807WAT     H2 3949   6.305   5.599   3.867
  807WAT    EPW 3950   6.329   5.583   3.940
  808WAT      O 3951   6.026   5.898   5.484
  808WAT     H1 3952   5.983   5.846   5.428
  808WAT     H2 3953   5.990   5.976   5.470
  808WAT    EPW 3954   6.014   5.902   5.474
  809WAT      O 3955   6.489   5.433   4.215
  809WAT     H1 3956   6.516   5.516   4.222
  809WAT     H2 3957   6.403   5.440   4.206
  809WAT    EPW 3958   6.480   5.446   4.215
  810WAT      O 3959   7.286   5.145   5.678
  810WAT     H1 3960   7.234   5.191   5.731
  810WAT     H2 3961   7.250   5.066   5.678
  810WAT    EPW 3962   7.273   5.140   5.686
  811WAT      O 3963   5.837   5.030   4.869
  811WAT     H1 3964   5.842   5.064   4.789
  811WAT     H2 3965   5.913   5.054   4.905
  811WAT    EPW 3966   5.849   5.039   4.862
  812WAT      O 3967   7.136   5.502   5.686
  812WAT     H1 3968   7.143   5.512   5.772
  812WAT     H2 3969   7.072   5.558   5.664
  812WAT    EPW 3970   7.127   5.512   5.695
  813WAT      O 3971   7.362   5.534   5.522
  813WAT     H1 3972   7.394   5.613   5.543
  813WAT     H2 3973   7.325   5.507   5.597
  813WAT    EPW 3974   7.362   5.542   5.536
  814WAT      O 3975   7.294   6.176   4.075
  814WAT     H1 3976   7.327   6.096   4.079
  814WAT     H2 3977   7.218   6.169   4.118
  814WAT    EPW 3978   7.288   6.163   4.082
  815WAT      O 3979   7.342   5.360   4.641
  815WAT     H1 3980   7.268   5.327   4.673
  815WAT     H2 3981   7.342   5.442   4.669
  815WAT    EPW 3982   7.331   5.367   4.650
  816WAT      O 3983   7.031   5.964   4.016
  816WAT     H1 3984   7.100   5.912   3.999
  816WAT     H2 3985   6.990   5.968   3.939
  816WAT    EPW 3986   7.035   5.957   4.002
  817WAT      O 3987   6.499   6.079   5.146
  817WAT     H1 3988   6.470   6.138   5.203
  817WAT     H2 3989   6.505   6.123   5.071
  817WAT    EPW 3990   6.496   6.094   5.143
  818WAT      O 3991   6.297   5.974   5.486
  818WAT     H1 3992   6.217   5.945   5.503
  818WAT     H2 3993   6.288   6.061   5.487
  818WAT    EPW 3994   6.284   5.982   5.488
  819WAT      O 3995   7.233   4.993   5.387
  819WAT     H1 3996   7.308   5.038   5.381
  819WAT     H2 3997   7.177   5.040   5.341
  819WAT    EPW 3998   7.236   5.006   5.380
  820WAT      O 3999   6.751   5.721   5.095
  820WAT     H1 4000   6.799   5.759   5.158
  820WAT     H2 4001   6.669   5.735   5.121
  820WAT    EPW 4002   6.746   5.729   5.108
  821WAT      O 4003   6.422   5.281   5.369
  821WAT     H1 4004   6.438   5.207   5.412
  821WAT     H2 4005   6.418   5.257   5.286
  821WAT    EPW 4006   6.424   5.267   5.363
  822WAT      O 4007   6.677   6.460   4.618
  822WAT     H1 4008   6.732   6.528   4.623
  822WAT     H2 4009   6.642   6.469   4.539
  822WAT    EPW 4010   6.680   6.472   4.607
  823WAT      O 4011   7.362   4.791   5.154
  823WAT     H1 4012   7.334   4.873   5.150
  823WAT     H2 4013   7.433   4.796   5.204
  823WAT    EPW 4014   7.368   4.804   5.161
  824WAT      O 4015   6.597   4.862   5.357
  824WAT     H1 4016   6.668   4.894   5.317
  824WAT     H2 4017   6.621   4.782   5.380
  824WAT    EPW 4018   6.611   4.855   5.355
  825WAT      O 4019   6.496   6.283   4.957
  825WAT     H1 4020   6.433   6.341   4.939
  825WAT     H2 4021   6.521   6.255   4.878
  825WAT    EPW 4022   6.490   6.288   4.943
  826WAT      O 4023   6.927   5.947   5.656
  826WAT     H1 4024   7.002   5.975   5.623
  826WAT     H2 4025   6.872   5.952   5.588
  826WAT    EPW 4026   6.930   5.952   5.641
  827WAT      O 4027   7.318   6.202   5.506
  827WAT     H1 4028   7.352   6.229   5.582
  827WAT     H2 4029   7.347   6.260   5.448
  827WAT    EPW 4030   7.327   6.214   5.509
  828WAT      O 4031   7.504   5.416   4.040
  828WAT     H1 4032   7.542   5.484   4.000
  828WAT     H2 4033   7.420   5.439   4.043
  828WAT    EPW 4034   7.497   5.430   4.035
  829WAT      O 4035   6.655   5.761   3.948
  829WAT     H1 4036   6.575   5.743   3.920
  829WAT     H2 4037   6.652   5.846   3.968
  829WAT    EPW 4038   6.643   5.771   3.947
  830WAT      O 4039   6.248   5.368   4.963
  830WAT     H1 4040   6.292   5.357   4.889
  830WAT     H2 4041   6.303   5.336   5.024
  830WAT    EPW 4042   6.263   5.361   4.961
  831WAT      O 4043   7.050   5.278   5.523
  831WAT     H1 4044   6.985   5.325   5.557
  831WAT     H2 4045   7.106   5.269   5.589
  831WAT    EPW 4046   7.049   5.283   5.538
  832WAT      O 4047   7.019   5.431   5.152
  832WAT     H1 4048   7.049   5.473   5.223
  832WAT     H2 4049   7.022   5.347   5.176
  832WAT    EPW 4050   7.024   5.425   5.166
  833WAT      O 4051   6.761   6.448   5.545
  833WAT     H1 4052   6.809   6.388   5.503
  833WAT     H2 4053   6.726   6.404   5.611
  833WAT    EPW 4054   6.763   6.433   5.549
  834WAT      O 4055   7.273   5.376   4.378
  834WAT     H1 4056   7.294   5.356   4.460
  834WAT     H2 4057   7.349   5.403   4.343
  834WAT    EPW 4058   7.288   5.377   4.385
  835WAT      O 4059   6.603   4.866   4.968
  835WAT     H1 4060   6.520   4.851   4.992
  835WAT     H2 4061   6.599   4.870   4.881
  835WAT    EPW 4062   6.590   4.864   4.959
  836WAT      O 4063   7.376   4.984   4.525
  836WAT     H1 4064   7.304   4.937   4.542
  836WAT     H2 4065   7.359   5.019   4.446
  836WAT    EPW 4066   7.363   4.983   4.516
  837WAT      O 4067   7.420   5.779   4.363
  837WAT     H1 4068   7.467   5.706   4.358
  837WAT     H2 4069   7.338   5.750   4.355
  837WAT    EPW 4070   7.415   5.764   4.361
  838WAT      O 4071   6.767   5.970   5.447
  838WAT     H1 4072   6.687   5.964   5.482
  838WAT     H2 4073   6.774   6.055   5.427
  838WAT    EPW 4074   6.756   5.982   5.449
  839WAT      O 4075   5.859   4.906   5.572
  839WAT     H1 4076   5.845   4.985   5.539
  839WAT     H2 4077   5.781   4.882   5.601
  839WAT    EPW 4078   5.846   4.914   5.571
  840WAT      O 4079   6.350   6.591   4.979
  840WAT     H1 4080   6.351   6.597   5.066
  840WAT     H2 4081   6.307   6.516   4.964
  840WAT    EPW 4082   6.344   6.581   4.989
  841WAT      O 4083   6.166   5.180   4.294
  841WAT     H1 4084   6.178   5.147   4.214
  841WAT     H2 4085   6.085   5.155   4.314
  841WAT    EPW 4086   6.156   5.172   4.285
  842WAT      O 4087   7.041   5.896   4.599
  842WAT     H1 4088   7.049   5.930   4.678
  842WAT     H2 4089   7.058   5.811   4.611
  842WAT    EPW 4090   7.045   5.888   4.612
  843WAT      O 4091   6.794   5.823   4.555
  843WAT     H1 4092   6.764   5.791   4.631
  843WAT     H2 4093   6.863   5.870   4.579
  843WAT    EPW 4094   6.800   5.825   4.570
  844WAT      O 4095   6.816   6.235   5.358
  844WAT     H1 4096   6.885   6.223   5.410
  844WAT     H2 4097   6.829   6.314   5.323
  844WAT    EPW 4098   6.828   6.245   5.360
  845WAT      O 4099   7.085   5.562   5.396
  845WAT     H1 4100   7.059   5.490   5.439
  845WAT     H2 4101   7.167   5.574   5.423
  845WAT    EPW 4102   7.093   5.553   5.407
  846WAT      O 4103   6.026   6.541   5.523
  846WAT     H1 4104   5.961   6.484   5.533
  846WAT     H2 4105   5.989   6.618   5.538
  846WAT    EPW 4106   6.011   6.544   5.527
  847WAT      O 4107   6.878   5.681   5.715
  847WAT     H1 4108   6.910   5.750   5.672
  847WAT     H2 4109   6.808   5.713   5.755
  847WAT    EPW 4110   6.872   5.696   5.715
  848WAT      O 4111   7.187   6.519   4.808
  848WAT     H1 4112   7.141   6.583   4.846
  848WAT     H2 4113   7.257   6.511   4.859
  848WAT    EPW 4114   7.190   6.527   4.821
  849WAT      O 4115   6.857   6.028   5.101
  849WAT     H1 4116   6.787   6.068   5.135
  849WAT     H2 4117   6.924   6.071   5.135
  849WAT    EPW 4118   6.856   6.040   5.111
  850WAT      O 4119   7.394   6.287   5.759
  850WAT     H1 4120   7.472   6.248   5.767
  850WAT     H2 4121   7.347   6.253   5.825
  850WAT    EPW 4122   7.399   6.276   5.770
  851WAT      O 4123   6.163   5.381   5.336
  851WAT     H1 4124   6.201   5.443   5.287
  851WAT     H2 4125   6.231   5.334   5.364
  851WAT    EPW 4126   6.179   5.384   5.333
  852WAT      O 4127   5.941   5.226   5.263
  852WAT     H1 4128   5.949   5.209   5.178
  852WAT     H2 4129   6.016   5.267   5.283
  852WAT    EPW 4130   5.953   5.230   5.254
  853WAT      O 4131   7.497   5.490   4.307
  853WAT     H1 4132   7.507   5.484   4.221
  853WAT     H2 4133   7.571   5.457   4.339
  853WAT    EPW 4134   7.509   5.484   4.299
  854WAT      O 4135   6.196   4.967   5.504
  854WAT     H1 4136   6.188   4.883   5.525
  854WAT     H2 4137   6.165   4.972   5.423
  854WAT    EPW 4138   6.191   4.955   5.495
  855WAT      O 4139   6.889   6.187   4.418
  855WAT     H1 4140   6.868   6.270   4.402
  855WAT     H2 4141   6.811   6.148   4.430
  855WAT    EPW 4142   6.874   6.193   4.417
  856WAT      O 4143   7.407   5.505   5.243
  856WAT     H1 4144   7.407   5.418   5.255
  856WAT     H2 4145   7.414   5.537   5.324
  856WAT    EPW 4146   7.408   5.497   5.257
  857WAT      O 4147   5.881   5.749   5.286
  857WAT     H1 4148   5.913   5.771   5.208
  857WAT     H2 4149   5.871   5.662   5.280
  857WAT    EPW 4150   5.884   5.739   5.273
  858WAT      O 4151   6.026   5.342   3.947
  858WAT     H1 4152   5.959   5.344   4.003
  858WAT     H2 4153   6.036   5.258   3.929
  858WAT    EPW 4154   6.018   5.330   3.953
  859WAT      O 4155   6.995   4.985   5.621
  859WAT     H1 4156   7.004   5.056   5.670
  859WAT     H2 4157   6.931   4.940   5.661
  859WAT    EPW 4158   6.987   4.989   5.634
  860WAT      O 4159   6.894   5.004   4.706
  860WAT     H1 4160   6.824   5.056   4.701
  860WAT     H2 4161   6.898   4.966   4.628
  860WAT    EPW 4162   6.885   5.006   4.694
  861WAT      O 4163   6.425   6.213   4.059
  861WAT     H1 4164   6.469   6.221   4.134
  861WAT     H2 4165   6.345   6.191   4.085
  861WAT    EPW 4166   6.420   6.211   4.074
  862WAT      O 4167   7.254   5.055   4.986
  862WAT     H1 4168   7.340   5.065   5.001
  862WAT     H2 4169   7.217   5.111   5.043
  862WAT    EPW 4170   7.261   5.065   4.997
  863WAT      O 4171   6.357   5.678   5.424
  863WAT     H1 4172   6.317   5.755   5.432
  863WAT     H2 4173   6.316   5.641   5.357
  863WAT    EPW 4174   6.345   5.684   5.415
  864WAT      O 4175   7.285   5.583   4.836
  864WAT     H1 4176   7.351   5.637   4.852
  864WAT     H2 4177   7.250   5.614   4.762
  864WAT    EPW 4178   7.289   5.596   4.827
  865WAT      O 4179   7.316   6.390   4.416
  865WAT     H1 4180   7.298   6.325   4.471
  865WAT     H2 4181   7.387   6.363   4.374
  865WAT    EPW 4182   7.324   6.376   4.418
  866WAT      O 4183   6.158   6.120   4.119
  866WAT     H1 4184   6.134   6.089   4.197
  866WAT     H2 4185   6.155   6.050   4.067
  866WAT    EPW 4186   6.154   6.105   4.123
  867WAT      O 4187   6.440   5.944   3.993
  867WAT     H1 4188   6.358   5.918   4.007
  867WAT     H2 4189   6.437   6.030   4.012
  867WAT    EPW 4190   6.427   5.953   3.998
  868WAT      O 4191   6.400   4.976   5.169
  868WAT     H1 4192   6.313   4.984   5.177
  868WAT     H2 4193   6.422   4.924   5.236
  868WAT    EPW 4194   6.390   4.969   5.180
  869WAT      O 4195   6.810   5.050   5.007
  869WAT     H1 4196   6.736   5.005   5.018
  869WAT     H2 4197   6.867   5.010   5.059
  869WAT    EPW 4198   6.808   5.038   5.016
  870WAT      O 4199   7.083   6.135   5.185
  870WAT     H1 4200   7.104   6.165   5.265
  870WAT     H2 4201   7.077   6.207   5.137
  870WAT    EPW 4202   7.085   6.150   5.190
  871WAT      O 4203   7.037   6.557   5.610
  871WAT     H1 4204   6.961   6.555   5.566
  871WAT     H2 4205   7.054   6.642   5.618
  871WAT    EPW 4206   7.028   6.569   5.605
  872WAT      O 4207   6.560   5.483   5.527
  872WAT     H1 4208   6.528   5.426   5.470
  872WAT     H2 4209   6.525   5.559   5.502
  872WAT    EPW 4210   6.550   5.486   5.515
  873WAT      O 4211   6.640   4.809   3.990
  873WAT     H1 4212   6.648   4.833   3.906
  873WAT     H2 4213   6.566   4.846   4.015
  873WAT    EPW 4214   6.630   4.818   3.981
  874WAT      O 4215   7.565   5.999   5.131
  874WAT     H1 4216   7.561   5.913   5.118
  874WAT     H2 4217   7.495   6.029   5.088
  874WAT    EPW 4218   7.554   5.991   5.123
  875WAT      O 4219   6.404   6.519   5.552
  875WAT     H1 4220   6.408   6.532   5.638
  875WAT     H2 4221   6.469   6.463   5.536
  875WAT    EPW 4222   6.414   6.513   5.562
  876WAT      O 4223   7.375   6.325   5.011
  876WAT     H1 4224   7.428   6.317   4.942
  876WAT     H2 4225   7.336   6.247   5.016
  876WAT    EPW 4226   7.377   6.312   5.001
  877WAT      O 4227   6.122   4.984   5.234
  877WAT     H1 4228   6.088   4.907   5.211
  877WAT     H2 4229   6.052   5.036   5.240
  877WAT    EPW 4230   6.107   4.980   5.231
  878WAT      O 4231   7.026   4.870   4.932
  878WAT     H1 4232   7.093   4.924   4.944
  878WAT     H2 4233   6.976   4.912   4.874
  878WAT    EPW 4234   7.029   4.884   4.925
  879WAT      O 4235   6.163   6.357   5.688
  879WAT     H1 4236   6.223   6.400   5.735
  879WAT     H2 4237   6.127   6.420   5.639
  879WAT    EPW 4238   6.167   6.373   5.687
  880WAT      O 4239   6.962   5.450   4.681
  880WAT     H1 4240   7.017   5.390   4.711
  880WAT     H2 4241   6.920   5.477   4.752
  880WAT    EPW 4242   6.964   5.445   4.696
  881WAT      O 4243   5.987   5.315   4.630
  881WAT     H1 4244   5.950   5.346   4.703
  881WAT     H2 4245   6.041   5.252   4.658
  881WAT    EPW 4246   5.990   5.311   4.645
  882WAT      O 4247   5.956   6.156   5.381
  882WAT     H1 4248   5.899   6.198   5.432
  882WAT     H2 4249   6.029   6.203   5.390
  882WAT    EPW 4250   5.958   6.169   5.390
  883WAT      O 4251   7.159   5.633   4.337
  883WAT     H1 4252   7.166   5.548   4.355
  883WAT     H2 4253   7.077   5.642   4.309
  883WAT    EPW 4254   7.148   5.622   4.336
  884WAT      O 4255   6.135   6.483   4.258
  884WAT     H1 4256   6.120   6.498   4.174
  884WAT     H2 4257   6.221   6.491   4.266
  884WAT    EPW 4258   6.145   6.486   4.247
  885WAT      O 4259   6.551   5.723   4.231
  885WAT     H1 4260   6.561   5.736   4.145
  885WAT     H2 4261   6.633   5.717   4.261
  885WAT    EPW 4262   6.565   5.724   4.223
  886WAT      O 4263   7.467   6.529   3.979
  886WAT     H1 4264   7.531   6.516   4.037
  886WAT     H2 4265   7.433   6.450   3.967
  886WAT    EPW 4266   7.472   6.515   3.986
  887WAT      O 4267   7.487   5.771   5.652
  887WAT     H1 4268   7.550   5.754   5.710
  887WAT     H2 4269   7.528   5.811   5.587
  887WAT    EPW 4270   7.502   5.774   5.651
  888WAT      O 4271   7.075   6.155   4.211
  888WAT     H1 4272   7.050   6.143   4.294
  888WAT     H2 4273   7.043   6.086   4.169
  888WAT    EPW 4274   7.066   6.143   4.217
  889WAT      O 4275   7.549   5.227   5.726
  889WAT     H1 4276   7.530   5.292   5.782
  889WAT     H2 4277   7.477   5.178   5.725
  889WAT    EPW 4278   7.536   5.229   5.734
  890WAT      O 4279   7.539   5.321   5.023
  890WAT     H1 4280   7.456   5.346   5.016
  890WAT     H2 4281   7.534   5.237   5.046
  890WAT    EPW 4282   7.526   5.313   5.025
  891WAT      O 4283   6.465   5.020   5.543
  891WAT     H1 4284   6.489   4.962   5.481
  891WAT     H2 4285   6.381   5.002   5.557
  891WAT    EPW 4286   6.456   5.009   5.536
  892WAT      O 4287   7.228   5.782   5.788
  892WAT     H1 4288   7.315   5.778   5.784
  892WAT     H2 4289   7.206   5.824   5.715
  892WAT    EPW 4290   7.238   5.787   5.776
  893WAT      O 4291   6.203   6.364   4.906
  893WAT     H1 4292   6.195   6.283   4.874
  893WAT     H2 4293   6.159   6.413   4.849
  893WAT    EPW 4294   6.196   6.360   4.893
  894WAT      O 4295   6.763   5.976   4.154
  894WAT     H1 4296   6.835   5.942   4.119
  894WAT     H2 4297   6.760   6.056   4.119
  894WAT    EPW 4298   6.773   5.983   4.144
  895WAT      O 4299   5.960   6.589   5.264
  895WAT     H1 4300   6.010   6.583   5.336
  895WAT     H2 4301   5.979   6.515   5.220
  895WAT    EPW 4302   5.971   6.577   5.268
  896WAT      O 4303   6.904   4.840   2.578
  896WAT     H1 4304   6.880   4.889   2.510
  896WAT     H2 4305   6.991   4.833   2.568
  896WAT    EPW 4306   6.913   4.846   2.567
  897WAT      O 4307   6.885   5.532   3.045
  897WAT     H1 4308   6.833   5.592   3.081
  897WAT     H2 4309   6.925   5.495   3.114
  897WAT    EPW 4310   6.883   5.535   3.061
  898WAT      O 4311   5.872   5.946   2.591
  898WAT     H1 4312   5.828   5.958   2.665
  898WAT     H2 4313   5.844   5.868   2.562
  898WAT    EPW 4314   5.861   5.936   2.598
  899WAT      O 4315   7.500   6.276   2.342
  899WAT     H1 4316   7.570   6.224   2.342
  899WAT     H2 4317   7.441   6.232   2.295
  899WAT    EPW 4318   7.501   6.262   2.335
  900WAT      O 4319   5.846   5.325   2.241
  900WAT     H1 4320   5.769   5.341   2.205
  900WAT     H2 4321   5.850   5.238   2.244
  900WAT    EPW 4322   5.835   5.315   2.236
  901WAT      O 4323   6.160   5.851   2.109
  901WAT     H1 4324   6.121   5.814   2.040
  901WAT     H2 4325   6.152   5.792   2.172
  901WAT    EPW 4326   6.153   5.837   2.108
  902WAT      O 4327   7.152   5.639   2.713
  902WAT     H1 4328   7.160   5.639   2.626
  902WAT     H2 4329   7.094   5.575   2.728
  902WAT    EPW 4330   7.145   5.629   2.702
  903WAT      O 4331   6.123   6.016   2.499
  903WAT     H1 4332   6.184   5.999   2.559
  903WAT     H2 4333   6.048   6.002   2.541
  903WAT    EPW 4334   6.121   6.011   2.514
  904WAT      O 4335   6.551   4.949   2.494
  904WAT     H1 4336   6.544   5.017   2.439
  904WAT     H2 4337   6.625   4.910   2.469
  904WAT    EPW 4338   6.561   4.953   2.482
  905WAT      O 4339   6.012   6.325   2.106
  905WAT     H1 4340   6.059   6.333   2.033
  905WAT     H2 4341   6.058   6.267   2.153
  905WAT    EPW 4342   6.026   6.317   2.102
  906WAT      O 4343   5.866   6.219   3.216
  906WAT     H1 4344   5.879   6.191   3.298
  906WAT     H2 4345   5.805   6.165   3.185
  906WAT    EPW 4346   5.859   6.207   3.224
  907WAT      O 4347   6.523   5.972   3.723
  907WAT     H1 4348   6.500   5.972   3.807
  907WAT     H2 4349   6.449   5.957   3.681
  907WAT    EPW 4350   6.509   5.970   3.729
  908WAT      O 4351   6.011   5.672   2.636
  908WAT     H1 4352   5.964   5.632   2.574
  908WAT     H2 4353   6.081   5.620   2.646
  908WAT    EPW 4354   6.014   5.658   2.629
  909WAT      O 4355   6.461   5.233   3.171
  909WAT     H1 4356   6.529   5.234   3.116
  909WAT     H2 4357   6.457   5.149   3.196
  909WAT    EPW 4358   6.471   5.220   3.167
  910WAT      O 4359   6.522   6.291   3.449
  910WAT     H1 4360   6.535   6.367   3.409
  910WAT     H2 4361   6.601   6.255   3.452
  910WAT    EPW 4362   6.535   6.297   3.444
  911WAT      O 4363   6.211   5.482   2.639
  911WAT     H1 4364   6.292   5.463   2.663
  911WAT     H2 4365   6.163   5.420   2.678
  911WAT    EPW 4366   6.216   5.470   2.648
  912WAT      O 4367   6.631   6.080   2.900
  912WAT     H1 4368   6.666   6.000   2.903
  912WAT     H2 4369   6.698   6.130   2.874
  912WAT    EPW 4370   6.646   6.075   2.896
  913WAT      O 4371   6.637   6.025   2.521
  913WAT     H1 4372   6.670   5.960   2.569
  913WAT     H2 4373   6.661   6.003   2.440
  913WAT    EPW 4374   6.645   6.012   2.516
  914WAT      O 4375   6.834   5.438   3.655
  914WAT     H1 4376   6.749   5.428   3.637
  914WAT     H2 4377   6.837   5.512   3.700
  914WAT    EPW 4378   6.822   5.447   3.659
  915WAT      O 4379   6.270   4.991   2.565
  915WAT     H1 4380   6.241   5.041   2.500
  915WAT     H2 4381   6.357   4.999   2.560
  915WAT    EPW 4382   6.279   5.000   2.555
  916WAT      O 4383   7.289   4.734   3.566
  916WAT     H1 4384   7.274   4.811   3.528
  916WAT     H2 4385   7.212   4.712   3.601
  916WAT    EPW 4386   7.276   4.742   3.566
  917WAT      O 4387   6.568   4.905   2.788
  917WAT     H1 4388   6.576   4.991   2.801
  917WAT     H2 4389   6.565   4.898   2.701
  917WAT    EPW 4390   6.569   4.917   2.777
  918WAT      O 4391   7.036   5.198   2.018
  918WAT     H1 4392   6.991   5.266   2.048
  918WAT     H2 4393   7.047   5.147   2.088
  918WAT    EPW 4394   7.031   5.200   2.032
  919WAT      O 4395   5.856   5.448   2.938
  919WAT     H1 4396   5.831   5.531   2.930
  919WAT     H2 4397   5.790   5.409   2.979
  919WAT    EPW 4398   5.843   5.454   2.943
  920WAT      O 4399   5.847   6.419   2.728
  920WAT     H1 4400   5.788   6.474   2.696
  920WAT     H2 4401   5.890   6.392   2.657
  920WAT    EPW 4402   5.845   6.423   2.713
  921WAT      O 4403   6.431   6.203   2.476
  921WAT     H1 4404   6.373   6.176   2.535
  921WAT     H2 4405   6.494   6.142   2.478
  921WAT    EPW 4406   6.432   6.190   2.485
  922WAT      O 4407   7.046   6.432   2.228
  922WAT     H1 4408   7.118   6.479   2.238
  922WAT     H2 4409   7.068   6.352   2.256
  922WAT    EPW 4410   7.060   6.427   2.234
  923WAT      O 4411   6.862   6.471   2.427
  923WAT     H1 4412   6.884   6.524   2.493
  923WAT     H2 4413   6.939   6.454   2.389
  923WAT    EPW 4414   6.877   6.476   2.431
  924WAT      O 4415   6.159   4.929   2.987
  924WAT     H1 4416   6.107   4.867   2.956
  924WAT     H2 4417   6.218   4.886   3.034
  924WAT    EPW 4418   6.160   4.914   2.989
  925WAT      O 4419   6.490   5.143   3.917
  925WAT     H1 4420   6.501   5.097   3.843
  925WAT     H2 4421   6.519   5.222   3.896
  925WAT    EPW 4422   6.496   5.148   3.903
  926WAT      O 4423   6.002   6.286   2.521
  926WAT     H1 4424   6.067   6.228   2.522
  926WAT     H2 4425   6.041   6.361   2.499
  926WAT    EPW 4426   6.017   6.288   2.518
  927WAT      O 4427   7.575   5.195   2.647
  927WAT     H1 4428   7.540   5.263   2.690
  927WAT     H2 4429   7.511   5.135   2.649
  927WAT    EPW 4430   7.561   5.196   2.654
  928WAT      O 4431   7.106   6.472   3.257
  928WAT     H1 4432   7.181   6.518   3.256
  928WAT     H2 4433   7.094   6.451   3.174
  928WAT    EPW 4434   7.115   6.476   3.245
  929WAT      O 4435   6.063   5.102   3.815
  929WAT     H1 4436   5.985   5.063   3.808
  929WAT     H2 4437   6.112   5.061   3.756
  929WAT    EPW 4438   6.059   5.090   3.805
  930WAT      O 4439   6.084   6.134   2.871
  930WAT     H1 4440   6.126   6.099   2.803
  930WAT     H2 4441   6.116   6.092   2.940
  930WAT    EPW 4442   6.095   6.123   2.871
  931WAT      O 4443   6.407   6.420   2.800
  931WAT     H1 4444   6.491   6.430   2.781
  931WAT     H2 4445   6.377   6.501   2.807
  931WAT    EPW 4446   6.415   6.433   2.799
  932WAT      O 4447   6.728   4.867   3.732
  932WAT     H1 4448   6.746   4.786   3.704
  932WAT     H2 4449   6.714   4.911   3.658
  932WAT    EPW 4450   6.728   4.861   3.717
  933WAT      O 4451   6.787   5.359   2.609
  933WAT     H1 4452   6.816   5.336   2.530
  933WAT     H2 4453   6.861   5.367   2.656
  933WAT    EPW 4454   6.802   5.357   2.604
  934WAT      O 4455   6.860   5.393   2.121
  934WAT     H1 4456   6.888   5.472   2.146
  934WAT     H2 4457   6.782   5.410   2.085
  934WAT    EPW 4458   6.852   5.407   2.120
  935WAT      O 4459   7.264   6.591   2.268
  935WAT     H1 4460   7.330   6.576   2.213
  935WAT     H2 4461   7.300   6.582   2.347
  935WAT    EPW 4462   7.279   6.587   2.272
  936WAT      O 4463   6.306   6.541   3.374
  936WAT     H1 4464   6.336   6.535   3.456
  936WAT     H2 4465   6.244   6.481   3.370
  936WAT    EPW 4466   6.302   6.532   3.386
  937WAT      O 4467   5.798   5.157   3.574
  937WAT     H1 4468   5.797   5.216   3.638
  937WAT     H2 4469   5.857   5.188   3.518
  937WAT    EPW 4470   5.807   5.170   3.575
  938WAT      O 4471   7.032   6.191   3.628
  938WAT     H1 4472   7.028   6.229   3.706
  938WAT     H2 4473   7.117   6.186   3.611
  938WAT    EPW 4474   7.044   6.196   3.637
  939WAT      O 4475   6.745   6.210   2.103
  939WAT     H1 4476   6.727   6.265   2.169
  939WAT     H2 4477   6.822   6.239   2.073
  939WAT    EPW 4478   6.754   6.223   2.108
  940WAT      O 4479   7.096   5.000   2.208
  940WAT     H1 4480   7.150   4.932   2.216
  940WAT     H2 4481   7.102   5.040   2.286
  940WAT    EPW 4482   7.105   4.996   2.221
  941WAT      O 4483   5.892   5.117   2.465
  941WAT     H1 4484   5.880   5.030   2.468
  941WAT     H2 4485   5.844   5.146   2.532
  941WAT    EPW 4486   5.883   5.108   2.475
  942WAT      O 4487   6.106   6.358   3.287
  942WAT     H1 4488   6.036   6.307   3.299
  942WAT     H2 4489   6.132   6.337   3.206
  942WAT    EPW 4490   6.099   6.347   3.277
  943WAT      O 4491   6.822   5.237   2.340
  943WAT     H1 4492   6.771   5.171   2.314
  943WAT     H2 4493   6.827   5.288   2.269
  943WAT    EPW 4494   6.815   5.235   2.325
  944WAT      O 4495   6.877   6.507   3.378
  944WAT     H1 4496   6.954   6.499   3.337
  944WAT     H2 4497   6.819   6.495   3.314
  944WAT    EPW 4498   6.880   6.504   3.362
  945WAT      O 4499   6.822   4.932   2.329
  945WAT     H1 4500   6.776   4.891   2.266
  945WAT     H2 4501   6.899   4.947   2.291
  945WAT    EPW 4502   6.827   4.928   2.314
  946WAT      O 4503   7.505   6.567   2.668
  946WAT     H1 4504   7.459   6.639   2.688
  946WAT     H2 4505   7.443   6.510   2.644
  946WAT    EPW 4506   7.489   6.569   2.667
  947WAT      O 4507   6.682   5.168   2.781
  947WAT     H1 4508   6.689   5.225   2.715
  947WAT     H2 4509   6.694   5.217   2.852
  947WAT    EPW 4510   6.685   5.184   2.782
  948WAT      O 4511   7.204   6.152   2.622
  948WAT     H1 4512   7.274   6.104   2.641
  948WAT     H2 4513   7.138   6.095   2.627
  948WAT    EPW 4514   7.205   6.136   2.626
  949WAT      O 4515   6.242   6.243   3.543
  949WAT     H1 4516   6.326   6.249   3.521
  949WAT     H2 4517   6.238   6.282   3.621
  949WAT    EPW 4518   6.254   6.250   3.552
  950WAT      O 4519   6.438   5.794   3.018
  950WAT     H1 4520   6.455   5.773   3.101
  950WAT     H2 4521   6.373   5.740   2.997
  950WAT    EPW 4522   6.431   5.783   3.027
  951WAT      O 4523   7.061   5.185   3.370
  951WAT     H1 4524   7.051   5.217   3.450
  951WAT     H2 4525   7.002   5.121   3.366
  951WAT    EPW 4526   7.051   5.180   3.381
  952WAT      O 4527   6.513   5.788   3.277
  952WAT     H1 4528   6.518   5.872   3.297
  952WAT     H2 4529   6.485   5.751   3.351
  952WAT    EPW 4530   6.510   5.795   3.291
  953WAT      O 4531   7.131   5.857   3.190
  953WAT     H1 4532   7.079   5.816   3.247
  953WAT     H2 4533   7.118   5.942   3.208
  953WAT    EPW 4534   7.121   5.864   3.201
  954WAT      O 4535   7.187   4.780   2.653
  954WAT     H1 4536   7.191   4.748   2.734
  954WAT     H2 4537   7.219   4.715   2.604
  954WAT    EPW 4538   7.192   4.765   2.658
  955WAT      O 4539   5.795   6.225   3.898
  955WAT     H1 4540   5.871   6.260   3.924
  955WAT     H2 4541   5.813   6.139   3.893
  955WAT    EPW 4542   5.809   6.217   3.901
  956WAT      O 4543   7.433   5.203   3.484
  956WAT     H1 4544   7.510   5.181   3.518
  956WAT     H2 4545   7.385   5.225   3.554
  956WAT    EPW 4546   7.437   5.203   3.499
  957WAT      O 4547   6.187   5.132   2.781
  957WAT     H1 4548   6.215   5.089   2.710
  957WAT     H2 4549   6.170   5.068   2.838
  957WAT    EPW 4550   6.189   5.116   2.779
  958WAT      O 4551   7.456   5.901   2.203
  958WAT     H1 4552   7.468   5.872   2.284
  958WAT     H2 4553   7.537   5.903   2.170
  958WAT    EPW 4554   7.470   5.897   2.210
  959WAT      O 4555   6.170   5.874   2.736
  959WAT     H1 4556   6.255   5.866   2.719
  959WAT     H2 4557   6.134   5.806   2.695
  959WAT    EPW 4558   6.177   5.863   2.727
  960WAT      O 4559   6.046   6.547   2.860
  960WAT     H1 4560   5.979   6.497   2.835
  960WAT     H2 4561   6.087   6.565   2.785
  960WAT    EPW 4562   6.042   6.542   2.845
  961WAT      O 4563   6.001   5.242   3.089
  961WAT     H1 4564   6.086   5.264   3.085
  961WAT     H2 4565   5.963   5.299   3.036
  961WAT    EPW 4566   6.008   5.253   3.081
  962WAT      O 4567   7.246   5.555   2.161
  962WAT     H1 4568   7.224   5.628   2.119
  962WAT     H2 4569   7.201   5.560   2.236
  962WAT    EPW 4570   7.236   5.566   2.166
  963WAT      O 4571   6.407   5.875   2.560
  963WAT     H1 4572   6.478   5.924   2.569
  963WAT     H2 4573   6.429   5.818   2.497
  963WAT    EPW 4574   6.420   5.874   2.552
  964WAT      O 4575   5.822   6.039   2.892
  964WAT     H1 4576   5.755   6.088   2.919
  964WAT     H2 4577   5.890   6.094   2.894
  964WAT    EPW 4578   5.822   6.054   2.896
  965WAT      O 4579   6.587   5.410   3.901
  965WAT     H1 4580   6.538   5.468   3.945
  965WAT     H2 4581   6.584   5.440   3.819
  965WAT    EPW 4582   6.579   5.423   3.896
  966WAT      O 4583   5.829   5.708   2.402
  966WAT     H1 4584   5.810   5.624   2.417
  966WAT     H2 4585   5.895   5.704   2.345
  966WAT    EPW 4586   5.836   5.695   2.396
  967WAT      O 4587   7.465   4.997   2.335
  967WAT     H1 4588   7.539   4.956   2.355
  967WAT     H2 4589   7.491   5.068   2.292
  967WAT    EPW 4590   7.479   5.001   2.331
  968WAT      O 4591   6.859   6.245   2.792
  968WAT     H1 4592   6.807   6.309   2.763
  968WAT     H2 4593   6.890   6.209   2.719
  968WAT    EPW 4594   6.856   6.249   2.777
  969WAT      O 4595   5.846   6.124   2.359
  969WAT     H1 4596   5.901   6.181   2.396
  969WAT     H2 4597   5.823   6.073   2.426
  969WAT    EPW 4598   5.851   6.125   2.375
  970WAT      O 4599   6.266   6.024   3.068
  970WAT     H1 4600   6.313   6.053   3.136
  970WAT     H2 4601   6.324   5.976   3.023
  970WAT    EPW 4602   6.282   6.021   3.072
  971WAT      O 4603   7.110   5.225   2.842
  971WAT     H1 4604   7.144   5.241   2.921
  971WAT     H2 4605   7.065   5.152   2.853
  971WAT    EPW 4606   7.108   5.217   2.855
  972WAT      O 4607   5.829   5.969   2.122
  972WAT     H1 4608   5.905   5.926   2.128
  972WAT     H2 4609   5.830   6.022   2.191
  972WAT    EPW 4610   5.840   5.970   2.133
  973WAT      O 4611   5.923   5.791   2.923
  973WAT     H1 4612   5.966   5.778   2.848
  973WAT     H2 4613   5.902   5.876   2.920
  973WAT    EPW 4614   5.926   5.802   2.911
  974WAT      O 4615   6.558   5.147   2.288
  974WAT     H1 4616   6.557   5.136   2.201
  974WAT     H2 4617   6.539   5.232   2.297
  974WAT    EPW 4618   6.555   5.158   2.276
  975WAT      O 4619   7.463   6.390   3.437
  975WAT     H1 4620   7.396   6.442   3.459
  975WAT     H2 4621   7.469   6.400   3.351
  975WAT    EPW 4622   7.454   6.399   3.428
  976WAT      O 4623   6.331   6.143   2.751
  976WAT     H1 4624   6.344   6.227   2.770
  976WAT     H2 4625   6.398   6.103   2.790
  976WAT    EPW 4626   6.343   6.149   2.759
  977WAT      O 4627   6.144   5.491   3.737
  977WAT     H1 4628   6.091   5.440   3.784
  977WAT     H2 4629   6.146   5.452   3.659
  977WAT    EPW 4630   6.137   5.478   3.732
  978WAT      O 4631   6.193   5.431   2.251
  978WAT     H1 4632   6.180   5.386   2.325
  978WAT     H2 4633   6.135   5.396   2.196
  978WAT    EPW 4634   6.182   5.419   2.254
  979WAT      O 4635   6.210   5.614   2.911
  979WAT     H1 4636   6.131   5.608   2.873
  979WAT     H2 4637   6.217   5.538   2.955
  979WAT    EPW 4638   6.199   5.602   2.912
  980WAT      O 4639   6.253   5.587   3.258
  980WAT     H1 4640   6.255   5.520   3.203
  980WAT     H2 4641   6.188   5.637   3.227
  980WAT    EPW 4642   6.243   5.585   3.245
  981WAT      O 4643   7.242   5.359   3.097
  981WAT     H1 4644   7.176   5.391   3.144
  981WAT     H2 4645   7.261   5.422   3.040
  981WAT    EPW 4646   7.235   5.373   3.096
  982WAT      O 4647   6.663   6.465   3.197
  982WAT     H1 4648   6.635   6.401   3.145
  982WAT     H2 4649   6.642   6.538   3.153
  982WAT    EPW 4650   6.655   6.466   3.183
  983WAT      O 4651   6.907   4.949   3.440
  983WAT     H1 4652   6.921   4.867   3.416
  983WAT     H2 4653   6.944   4.955   3.519
  983WAT    EPW 4654   6.914   4.938   3.448
  984WAT      O 4655   7.061   5.156   2.448
  984WAT     H1 4656   7.110   5.227   2.441
  984WAT     H2 4657   6.982   5.182   2.422
  984WAT    EPW 4658   7.057   5.170   2.443
  985WAT      O 4659   6.032   5.723   3.814
  985WAT     H1 4660   6.029   5.773   3.742
  985WAT     H2 4661   6.066   5.648   3.784
  985WAT    EPW 4662   6.037   5.719   3.799
  986WAT      O 4663   7.193   5.943   3.639
  986WAT     H1 4664   7.241   6.015   3.649
  986WAT     H2 4665   7.232   5.901   3.574
  986WAT    EPW 4666   7.206   5.948   3.631
  987WAT      O 4667   6.622   6.228   3.757
  987WAT     H1 4668   6.658   6.210   3.835
  987WAT     H2 4669   6.579   6.155   3.737
  987WAT    EPW 4670   6.621   6.214   3.766
  988WAT      O 4671   6.720   5.303   3.021
  988WAT     H1 4672   6.768   5.372   3.042
  988WAT     H2 4673   6.757   5.238   3.066
  988WAT    EPW 4674   6.732   5.303   3.031
  989WAT      O 4675   6.938   5.619   2.248
  989WAT     H1 4676   6.938   5.692   2.199
  989WAT     H2 4677   6.875   5.633   2.306
  989WAT    EPW 4678   6.929   5.632   2.250
  990WAT      O 4679   7.436   6.006   2.646
  990WAT     H1 4680   7.471   5.971   2.718
  990WAT     H2 4681   7.435   5.940   2.589
  990WAT    EPW 4682   7.441   5.991   2.649
  991WAT      O 4683   7.040   6.313   3.031
  991WAT     H1 4684   6.980   6.283   2.975
  991WAT     H2 4685   7.095   6.358   2.980
  991WAT    EPW 4686   7.039   6.315   3.015
  992WAT      O 4687   7.041   5.998   2.971
  992WAT     H1 4688   6.962   6.021   2.998
  992WAT     H2 4689   7.067   5.939   3.029
  992WAT    EPW 4690   7.033   5.993   2.984
  993WAT      O 4691   6.431   6.479   2.416
  993WAT     H1 4692   6.416   6.402   2.453
  993WAT     H2 4693   6.500   6.465   2.364
  993WAT    EPW 4694   6.439   6.466   2.414
  994WAT      O 4695   6.398   4.854   2.214
  994WAT     H1 4696   6.407   4.843   2.301
  994WAT     H2 4697   6.327   4.904   2.208
  994WAT    EPW 4698   6.389   4.860   2.226
  995WAT      O 4699   6.660   6.431   2.256
  995WAT     H1 4700   6.722   6.447   2.315
  995WAT     H2 4701   6.663   6.500   2.203
  995WAT    EPW 4702   6.670   6.444   2.257
  996WAT      O 4703   7.367   5.798   3.455
  996WAT     H1 4704   7.373   5.810   3.369
  996WAT     H2 4705   7.443   5.830   3.486
  996WAT    EPW 4706   7.379   5.804   3.447
  997WAT      O 4707   6.987   6.333   3.883
  997WAT     H1 4708   7.003   6.361   3.964
  997WAT     H2 4709   7.013   6.399   3.833
  997WAT    EPW 4710   6.993   6.347   3.888
  998WAT      O 4711   7.471   4.828   3.754
  998WAT     H1 4712   7.407   4.788   3.710
  998WAT     H2 4713   7.473   4.785   3.830
  998WAT    EPW 4714   7.462   4.816   3.759
  999WAT      O 4715   6.110   5.684   2.339
  999WAT     H1 4716   6.142   5.606   2.317
  999WAT     H2 4717   6.175   5.721   2.384
  999WAT    EPW 4718   6.124   5.678   2.342
 1000WAT      O 4719   6.941   5.779   3.415
 1000WAT     H1 4720   6.925   5.840   3.476
 1000WAT     H2 4721   6.994   5.723   3.456
 1000WAT    EPW 4722   6.946   5.779   3.430
 1001WAT      O 4723   5.810   4.850   2.436
 1001WAT     H1 4724   5.823   4.780   2.386
 1001WAT     H2 4725   5.773   4.819   2.508
 1001WAT    EPW 4726   5.806   4.835   2.439
 1002WAT      O 4727   6.779   5.619   2.481
 1002WAT     H1 4728   6.785   5.684   2.539
 1002WAT     H2 4729   6.760   5.549   2.530
 1002WAT    EPW 4730   6.777   5.618   2.497
 1003WAT      O 4731   7.302   6.051   3.068
 1003WAT     H1 4732   7.254   6.081   3.002
 1003WAT     H2 4733   7.266   5.974   3.086
 1003WAT    EPW 4734   7.289   6.044   3.061
 1004WAT      O 4735   6.229   5.070   2.132
 1004WAT     H1 4736   6.177   5.076   2.062
 1004WAT     H2 4737   6.307   5.094   2.103
 1004WAT    EPW 4738   6.233   5.075   2.118
 1005WAT      O 4739   6.701   5.823   2.924
 1005WAT     H1 4740   6.617   5.804   2.932
 1005WAT     H2 4741   6.734   5.807   3.004
 1005WAT    EPW 4742   6.693   5.818   2.937
 1006WAT      O 4743   6.376   6.496   2.013
 1006WAT     H1 4744   6.420   6.427   2.042
 1006WAT     H2 4745   6.397   6.559   2.070
 1006WAT    EPW 4746   6.386   6.495   2.026
 1007WAT      O 4747   6.086   5.793   3.156
 1007WAT     H1 4748   6.158   5.841   3.152
 1007WAT     H2 4749   6.059   5.790   3.073
 1007WAT    EPW 4750   6.093   5.799   3.143
 1008WAT      O 4751   6.409   5.310   2.829
 1008WAT     H1 4752   6.494   5.291   2.839
 1008WAT     H2 4753   6.372   5.232   2.816
 1008WAT    EPW 4754   6.416   5.295   2.829
 1009WAT      O 4755   5.891   5.443   2.495
 1009WAT     H1 4756   5.940   5.414   2.561
 1009WAT     H2 4757   5.904   5.384   2.432
 1009WAT    EPW 4758   5.900   5.430   2.495
 1010WAT      O 4759   7.395   5.746   3.180
 1010WAT     H1 4760   7.394   5.668   3.220
 1010WAT     H2 4761   7.311   5.769   3.179
 1010WAT    EPW 4762   7.382   5.738   3.186
 1011WAT      O 4763   6.344   5.587   2.044
 1011WAT     H1 4764   6.283   5.546   2.091
 1011WAT     H2 4765   6.305   5.599   1.966
 1011WAT    EPW 4766   6.329   5.583   2.039
 1012WAT      O 4767   6.026   5.898   3.584
 1012WAT     H1 4768   5.983   5.846   3.528
 1012WAT     H2 4769   5.990   5.976   3.569
 1012WAT    EPW 4770   6.014   5.902   3.573
 1013WAT      O 4771   6.489   5.433   2.315
 1013WAT     H1 4772   6.516   5.516   2.321
 1013WAT     H2 4773   6.403   5.440   2.305
 1013WAT    EPW 4774   6.480   5.446   2.314
 1014WAT      O 4775   7.286   5.145   3.778
 1014WAT     H1 4776   7.234   5.191   3.830
 1014WAT     H2 4777   7.250   5.066   3.777
 1014WAT    EPW 4778   7.273   5.140   3.785
 1015WAT      O 4779   5.837   5.030   2.968
 1015WAT     H1 4780   5.842   5.064   2.888
 1015WAT     H2 4781   5.913   5.054   3.005
 1015WAT    EPW 4782   5.849   5.039   2.962
 1016WAT      O 4783   7.136   5.502   3.785
 1016WAT     H1 4784   7.143   5.512   3.872
 1016WAT     H2 4785   7.072   5.558   3.763
 1016WAT    EPW 4786   7.127   5.512   3.795
 1017WAT      O 4787   7.362   5.534   3.622
 1017WAT     H1 4788   7.394   5.613   3.642
 1017WAT     H2 4789   7.325   5.507   3.696
 1017WAT    EPW 4790   7.362   5.542   3.636
 1018WAT      O 4791   7.294   6.176   2.175
 1018WAT     H1 4792   7.327   6.096   2.178
 1018WAT     H2 4793   7.218   6.169   2.218
 1018WAT    EPW 4794   7.288   6.163   2.182
 1019WAT      O 4795   7.342   5.360   2.741
 1019WAT     H1 4796   7.268   5.327   2.773
 1019WAT     H2 4797   7.342   5.442   2.769
 1019WAT    EPW 4798   7.331   5.367   2.750
 1020WAT      O 4799   7.031   5.964   2.115
 1020WAT     H1 4800   7.100   5.912   2.098
 1020WAT     H2 4801   6.990   5.968   2.039
 1020WAT    EPW 4802   7.035   5.957   2.101
 1021WAT      O 4803   6.499   6.079   3.246
 1021WAT     H1 4804   6.470   6.138   3.302
 1021WAT     H2 4805   6.505   6.123   3.171
 1021WAT    EPW 4806   6.496   6.094   3.243
 1022WAT      O 4807   6.297   5.974   3.585
 1022WAT     H1 4808   6.217   5.945   3.602
 1022WAT     H2 4809   6.288   6.061   3.586
 1022WAT    EPW 4810   6.284   5.982   3.588
 1023WAT      O 4811   7.233   4.993   3.487
 1023WAT     H1 4812   7.308   5.038   3.481
 1023WAT     H2 4813   7.177   5.040   3.440
 1023WAT    EPW 4814   7.236   5.006   3.479
 1024WAT      O 4815   6.751   5.721   3.195
 1024WAT     H1 4816   6.799   5.759   3.257
 1024WAT     H2 4817   6.669   5.735   3.221
 1024WAT    EPW 4818   6.746   5.729   3.208
 1025WAT      O 4819   6.422   5.281   3.469
 1025WAT     H1 4820   6.438   5.207   3.511
 1025WAT     H2 4821   6.418   5.257   3.385
 1025WAT    EPW 4822   6.424   5.267   3.463
 1026WAT      O 4823   6.677   6.460   2.717
 1026WAT     H1 4824   6.732   6.528   2.723
 1026WAT     H2 4825   6.642   6.469   2.638
 1026WAT    EPW 4826   6.680   6.472   2.706
 1027WAT      O 4827   7.362   4.791   3.254
 1027WAT     H1 4828   7.334   4.873   3.249
 1027WAT     H2 4829   7.433   4.796   3.303
 1027WAT    EPW 4830   7.368   4.804   3.261
 1028WAT      O 4831   6.597   4.862   3.457
 1028WAT     H1 4832   6.668   4.894   3.417
 1028WAT     H2 4833   6.621   4.782   3.479
 1028WAT    EPW 4834   6.611   4.855   3.454
 1029WAT      O 4835   6.496   6.283   3.056
 1029WAT     H1 4836   6.433   6.341   3.038
 1029WAT     H2 4837   6.521   6.255   2.978
 1029WAT    EPW 4838   6.490   6.288   3.042
 1030WAT      O 4839   6.927   5.947   3.755
 1030WAT     H1 4840   7.002   5.975   3.723
 1030WAT     H2 4841   6.872   5.952   3.687
 1030WAT    EPW 4842   6.930   5.952   3.740
 1031WAT      O 4843   7.318   6.202   3.606
 1031WAT     H1 4844   7.352   6.229   3.681
 1031WAT     H2 4845   7.347   6.260   3.548
 1031WAT    EPW 4846   7.327   6.214   3.608
 1032WAT      O 4847   7.504   5.416   2.140
 1032WAT     H1 4848   7.542   5.484   2.100
 1032WAT     H2 4849   7.420   5.439   2.143
 1032WAT    EPW 4850   7.497   5.430   2.134
 1033WAT      O 4851   6.655   5.761   2.048
 1033WAT     H1 4852   6.575   5.743   2.019
 1033WAT     H2 4853   6.652   5.846   2.067
 1033WAT    EPW 4854   6.643   5.771   2.047
 1034WAT      O 4855   6.248   5.368   3.063
 1034WAT     H1 4856   6.292   5.357   2.988
 1034WAT     H2 4857   6.303   5.336   3.123
 1034WAT    EPW 4858   6.263   5.361   3.061
 1035WAT      O 4859   7.050   5.278   3.622
 1035WAT     H1 4860   6.985   5.325   3.657
 1035WAT     H2 4861   7.106   5.269   3.688
 1035WAT    EPW 4862   7.049   5.283   3.637
 1036WAT      O 4863   7.019   5.431   3.252
 1036WAT     H1 4864   7.049   5.473   3.322
 1036WAT     H2 4865   7.022   5.347   3.275
 1036WAT    EPW 4866   7.024   5.425   3.266
 1037WAT      O 4867   6.761   6.448   3.644
 1037WAT     H1 4868   6.809   6.388   3.603
 1037WAT     H2 4869   6.726   6.404   3.711
 1037WAT    EPW 4870   6.763   6.433   3.648
 1038WAT      O 4871   7.273   5.376   2.477
 1038WAT     H1 4872   7.294   5.356   2.559
 1038WAT     H2 4873   7.349   5.403   2.443
 1038WAT    EPW 4874   7.288   5.377   2.484
 1039WAT      O 4875   6.603   4.866   3.068
 1039WAT     H1 4876   6.520   4.851   3.091
 1039WAT     H2 4877   6.599   4.870   2.980
 1039WAT    EPW 4878   6.590   4.864   3.058
 1040WAT      O 4879   7.376   4.984   2.624
 1040WAT     H1 4880   7.304   4.937   2.642
 1040WAT     H2 4881   7.359   5.019   2.546
 1040WAT    EPW 4882   7.363   4.983   2.615
 1041WAT      O 4883   7.420   5.779   2.462
 1041WAT     H1 4884   7.467   5.706   2.458
 1041WAT     H2 4885   7.338   5.750   2.455
 1041WAT    EPW 4886   7.415   5.764   2.461
 1042WAT      O 4887   6.767   5.970   3.546
 1042WAT     H1 4888   6.687   5.964   3.581
 1042WAT     H2 4889   6.774   6.055   3.527
 1042WAT    EPW 4890   6.756   5.982   3.549
 1043WAT      O 4891   5.859   4.906   3.671
 1043WAT     H1 4892   5.845   4.985   3.638
 1043WAT     H2 4893   5.781   4.882   3.700
 1043WAT    EPW 4894   5.846   4.914   3.670
 1044WAT      O 4895   6.350   6.591   3.078
 1044WAT     H1 4896   6.351   6.597   3.165
 1044WAT     H2 4897   6.307   6.516   3.063
 1044WAT    EPW 4898   6.344   6.581   3.089
 1045WAT      O 4899   6.166   5.180   2.394
 1045WAT     H1 4900   6.178   5.147   2.314
 1045WAT     H2 4901   6.085   5.155   2.413
 1045WAT    EPW 4902   6.156   5.172   2.385
 1046WAT      O 4903   7.041   5.896   2.698
 1046WAT     H1 4904   7.049   5.930   2.778
 1046WAT     H2 4905   7.058   5.811   2.710
 1046WAT    EPW 4906   7.045   5.888   2.712
 1047WAT      O 4907   6.794   5.823   2.654
 1047WAT     H1 4908   6.764   5.791   2.730
 1047WAT     H2 4909   6.863   5.870   2.678
 1047WAT    EPW 4910   6.800   5.825   2.669
 1048WAT      O 4911   6.816   6.235   3.457
 1048WAT     H1 4912   6.885   6.223   3.510
 1048WAT     H2 4913   6.829   6.314   3.423
 1048WAT    EPW 4914   6.828   6.245   3.460
 1049WAT      O 4915   7.085   5.562   3.496
 1049WAT     H1 4916   7.059   5.490   3.538
 1049WAT     H2 4917   7.167   5.574   3.523
 1049WAT    EPW 4918   7.093   5.553   3.506
 1050WAT      O 4919   6.026   6.541   3.622
 1050WAT     H1 4920   5.961   6.484   3.632
 1050WAT     H2 4921   5.989   6.618   3.637
 1050WAT    EPW 4922   6.011   6.544   3.626
 1051WAT      O 4923   6.878   5.681   3.815
 1051WAT     H1 4924   6.910   5.750   3.771
 1051WAT     H2 4925   6.808   5.713   3.855
 1051WAT    EPW 4926   6.872   5.696   3.814
 1052WAT      O 4927   7.187   6.519   2.907
 1052WAT     H1 4928   7.141   6.583   2.945
 1052WAT     H2 4929   7.257   6.511   2.958
 1052WAT    EPW 4930   7.190   6.527   2.921
 1053WAT      O 4931   6.857   6.028   3.200
 1053WAT     H1 4932   6.787   6.068   3.235
 1053WAT     H2 4933   6.924   6.071   3.234
 1053WAT    EPW 4934   6.856   6.040   3.211
 1054WAT      O 4935   7.394   6.287   3.858
 1054WAT     H1 4936   7.472   6.248   3.867
 1054WAT     H2 4937   7.347   6.253   3.924
 1054WAT    EPW 4938   7.399   6.276   3.869
 1055WAT      O 4939   6.163   5.381   3.435
 1055WAT     H1 4940   6.201   5.443   3.386
 1055WAT     H2 4941   6.231   5.334   3.464
 1055WAT    EPW 4942   6.179   5.384   3.432
 1056WAT      O 4943   5.941   5.226   3.363
 1056WAT     H1 4944   5.949   5.209   3.277
 1056WAT     H2 4945   6.016   5.267   3.382
 1056WAT    EPW 4946   5.953   5.230   3.353
 1057WAT      O 4947   7.497   5.490   2.407
 1057WAT     H1 4948   7.507   5.484   2.320
 1057WAT     H2 4949   7.571   5.457   2.438
 1057WAT    EPW 4950   7.509   5.484   2.399
 1058WAT      O 4951   6.196   4.967   3.604
 1058WAT     H1 4952   6.188   4.883   3.624
 1058WAT     H2 4953   6.165   4.972   3.522
 1058WAT    EPW 4954   6.191   4.955   3.595
 1059WAT      O 4955   6.889   6.187   2.517
 1059WAT     H1 4956   6.868   6.270   2.501
 1059WAT     H2 4957   6.811   6.148   2.530
 1059WAT    EPW 4958   6.874   6.193   2.517
 1060WAT      O 4959   7.407   5.505   3.342
 1060WAT     H1 4960   7.407   5.418   3.355
 1060WAT     H2 4961   7.414   5.537   3.423
 1060WAT    EPW 4962   7.408   5.497   3.356
 1061WAT      O 4963   5.881   5.749   3.385
 1061WAT     H1 4964   5.913   5.771   3.307
 1061WAT     H2 4965   5.871   5.662   3.380
 1061WAT    EPW 4966   5.884   5.739   3.373
 1062WAT      O 4967   6.026   5.342   2.047
 1062WAT     H1 4968   5.959   5.344   2.102
 1062WAT     H2 4969   6.036   5.258   2.028
 1062WAT    EPW 4970   6.018   5.330   2.052
 1063WAT      O 4971   6.995   4.985   3.720
 1063WAT     H1 4972   7.004   5.056   3.770
 1063WAT     H2 4973   6.931   4.940   3.760
 1063WAT    EPW 4974   6.987   4.989   3.734
 1064WAT      O 4975   6.894   5.004   2.806
 1064WAT     H1 4976   6.824   5.056   2.800
 1064WAT     H2 4977   6.898   4.966   2.727
 1064WAT    EPW 4978   6.885   5.006   2.793
 1065WAT      O 4979   6.425   6.213   2.158
 1065WAT     H1 4980   6.469   6.221   2.233
 1065WAT     H2 4981   6.345   6.191   2.184
 1065WAT    EPW 4982   6.420   6.211   2.173
 1066WAT      O 4983   7.254   5.055   3.086
 1066WAT     H1 4984   7.340   5.065   3.100
 1066WAT     H2 4985   7.217   5.111   3.142
 1066WAT    EPW 4986   7.261   5.065   3.096
 1067WAT      O 4987   6.357   5.678   3.524
 1067WAT     H1 4988   6.317   5.755   3.531
 1067WAT     H2 4989   6.316   5.641   3.456
 1067WAT    EPW 4990   6.345   5.684   3.515
 1068WAT      O 4991   7.285   5.583   2.935
 1068WAT     H1 4992   7.351   5.637   2.951
 1068WAT     H2 4993   7.250   5.614   2.861
 1068WAT    EPW 4994   7.289   5.596   2.926
 1069WAT      O 4995   7.316   6.390   2.516
 1069WAT     H1 4996   7.298   6.325   2.571
 1069WAT     H2 4997   7.387   6.363   2.473
 1069WAT    EPW 4998   7.324   6.376   2.518
 1070WAT      O 4999   6.158   6.120   2.218
 1070WAT     H1 5000   6.134   6.089   2.296
 1070WAT     H2 5001   6.155   6.050   2.167
 1070WAT    EPW 5002   6.154   6.105   2.222
 1071WAT      O 5003   6.440   5.944   2.093
 1071WAT     H1 5004   6.358   5.918   2.107
 1071WAT     H2 5005   6.437   6.030   2.111
 1071WAT    EPW 5006   6.427   5.953   2.097
 1072WAT      O 5007   6.400   4.976   3.269
 1072WAT     H1 5008   6.313   4.984   3.277
 1072WAT     H2 5009   6.422   4.924   3.335
 1072WAT    EPW 5010   6.390   4.969   3.280
 1073WAT      O 5011   6.810   5.050   3.106
 1073WAT     H1 5012   6.736   5.005   3.117
 1073WAT     H2 5013   6.867   5.010   3.158
 1073WAT    EPW 5014   6.808   5.038   3.115
 1074WAT      O 5015   7.083   6.135   3.285
 1074WAT     H1 5016   7.104   6.165   3.364
 1074WAT     H2 5017   7.077   6.207   3.236
 1074WAT    EPW 5018   7.085   6.150   3.289
 1075WAT      O 5019   7.037   6.557   3.709
 1075WAT     H1 5020   6.961   6.555   3.665
 1075WAT     H2 5021   7.054   6.642   3.718
 1075WAT    EPW 5022   7.028   6.569   3.704
 1076WAT      O 5023   6.560   5.483   3.626
 1076WAT     H1 5024   6.528   5.426   3.569
 1076WAT     H2 5025   6.525   5.559   3.602
 1076WAT    EPW 5026   6.550   5.486   3.614
 1077WAT      O 5027   6.640   4.809   2.089
 1077WAT     H1 5028   6.648   4.833   2.006
 1077WAT     H2 5029   6.566   4.846   2.115
 1077WAT    EPW 5030   6.630   4.818   2.081
 1078WAT      O 5031   7.565   5.999   3.231
 1078WAT     H1 5032   7.561   5.913   3.217
 1078WAT     H2 5033   7.495   6.029   3.187
 1078WAT    EPW 5034   7.554   5.991   3.222
 1079WAT      O 5035   6.404   6.519   3.651
 1079WAT     H1 5036   6.408   6.532   3.737
 1079WAT     H2 5037   6.469   6.463   3.636
 1079WAT    EPW 5038   6.414   6.513   3.662
 1080WAT      O 5039   7.375   6.325   3.110
 1080WAT     H1 5040   7.428   6.317   3.041
 1080WAT     H2 5041   7.336   6.247   3.116
 1080WAT    EPW 5042   7.377   6.312   3.101
 1081WAT      O 5043   6.122   4.984   3.333
 1081WAT     H1 5044   6.088   4.907   3.310
 1081WAT     H2 5045   6.052   5.036   3.340
 1081WAT    EPW 5046   6.107   4.980   3.331
 1082WAT      O 5047   7.026   4.870   3.031
 1082WAT     H1 5048   7.093   4.924   3.044
 1082WAT     H2 5049   6.976   4.912   2.974
 1082WAT    EPW 5050   7.029   4.884   3.024
 1083WAT      O 5051   6.163   6.357   3.787
 1083WAT     H1 5052   6.223   6.400   3.834
 1083WAT     H2 5053   6.127   6.420   3.738
 1083WAT    EPW 5054   6.167   6.373   3.787
 1084WAT      O 5055   6.962   5.450   2.780
 1084WAT     H1 5056   7.017   5.390   2.810
 1084WAT     H2 5057   6.920   5.477   2.852
 1084WAT    EPW 5058   6.964   5.445   2.795
 1085WAT      O 5059   5.987   5.315   2.729
 1085WAT     H1 5060   5.950   5.346   2.802
 1085WAT     H2 5061   6.041   5.252   2.757
 1085WAT    EPW 5062   5.990   5.311   2.744
 1086WAT      O 5063   5.956   6.156   3.480
 1086WAT     H1 5064   5.899   6.198   3.531
 1086WAT     H2 5065   6.029   6.203   3.490
 1086WAT    EPW 5066   5.958   6.169   3.489
 1087WAT      O 5067   7.159   5.633   2.437
 1087WAT     H1 5068   7.166   5.548   2.455
 1087WAT     H2 5069   7.077   5.642   2.409
 1087WAT    EPW 5070   7.148   5.622   2.435
 1088WAT      O 5071   6.135   6.483   2.358
 1088WAT     H1 5072   6.120   6.498   2.273
 1088WAT     H2 5073   6.221   6.491   2.365
 1088WAT    EPW 5074   6.145   6.486   2.346
 1089WAT      O 5075   6.551   5.723   2.330
 1089WAT     H1 5076   6.561   5.736   2.245
 1089WAT     H2 5077   6.633   5.717   2.360
 1089WAT    EPW 5078   6.565   5.724   2.322
 1090WAT      O 5079   7.467   6.529   2.078
 1090WAT     H1 5080   7.531   6.516   2.136
 1090WAT     H2 5081   7.433   6.450   2.067
 1090WAT    EPW 5082   7.472   6.515   2.085
 1091WAT      O 5083   7.487   5.771   3.752
 1091WAT     H1 5084   7.550   5.754   3.809
 1091WAT     H2 5085   7.528   5.811   3.686
 1091WAT    EPW 5086   7.502   5.774   3.751
 1092WAT      O 5087   7.075   6.155   2.311
 1092WAT     H1 5088   7.050   6.143   2.393
 1092WAT     H2 5089   7.043   6.086   2.268
 1092WAT    EPW 5090   7.066   6.143   2.317
 1093WAT      O 5091   7.549   5.227   3.825
 1093WAT     H1 5092   7.530   5.292   3.881
 1093WAT     H2 5093   7.477   5.178   3.825
 1093WAT    EPW 5094   7.536   5.229   3.834
 1094WAT      O 5095   7.539   5.321   3.123
 1094WAT     H1 5096   7.456   5.346   3.115
 1094WAT     H2 5097   7.534   5.237   3.145
 1094WAT    EPW 5098   7.526   5.313   3.125
 1095WAT      O 5099   6.465   5.020   3.642
 1095WAT     H1 5100   6.489   4.962   3.581
 1095WAT     H2 5101   6.381   5.002   3.656
 1095WAT    EPW 5102   6.456   5.009   3.635
 1096WAT      O 5103   7.228   5.782   3.887
 1096WAT     H1 5104   7.315   5.778   3.884
 1096WAT     H2 5105   7.206   5.824   3.814
 1096WAT    EPW 5106   7.238   5.787   3.876
 1097WAT      O 5107   6.203   6.364   3.005
 1097WAT     H1 5108   6.195   6.283   2.974
 1097WAT     H2 5109   6.159   6.413   2.948
 1097WAT    EPW 5110   6.196   6.360   2.992
 1098WAT      O 5111   6.763   5.976   2.254
 1098WAT     H1 5112   6.835   5.942   2.218
 1098WAT     H2 5113   6.760   6.056   2.219
 1098WAT    EPW 5114   6.773   5.983   2.243
 1099WAT      O 5115   5.960   6.589   3.363
 1099WAT     H1 5116   6.010   6.583   3.435
 1099WAT     H2 5117   5.979   6.515   3.320
 1099WAT    EPW 5118   5.971   6.577   3.368
 1100WAT      O 5119   6.904   4.840   0.677
 1100WAT     H1 5120   6.880   4.889   0.609
 1100WAT     H2 5121   6.991   4.833   0.667
 1100WAT    EPW 5122   6.913   4.846   0.666
 1101WAT      O 5123   6.885   5.532   1.145
 1101WAT     H1 5124   6.833   5.592   1.181
 1101WAT     H2 5125   6.925   5.495   1.213
 1101WAT    EPW 5126   6.883   5.535   1.160
 1102WAT      O 5127   5.872   5.946   0.690
 1102WAT     H1 5128   5.828   5.958   0.764
 1102WAT     H2 5129   5.844   5.868   0.662
 1102WAT    EPW 5130   5.861   5.936   0.697
 1103WAT      O 5131   7.500   6.276   0.442
 1103WAT     H1 5132   7.570   6.224   0.441
 1103WAT     H2 5133   7.441   6.232   0.395
 1103WAT    EPW 5134   7.501   6.262   0.435
 1104WAT      O 5135   5.846   5.325   0.341
 1104WAT     H1 5136   5.769   5.341   0.305
 1104WAT     H2 5137   5.850   5.238   0.343
 1104WAT    EPW 5138   5.835   5.315   0.336
 1105WAT      O 5139   6.160   5.851   0.208
 1105WAT     H1 5140   6.121   5.814   0.139
 1105WAT     H2 5141   6.152   5.792   0.271
 1105WAT    EPW 5142   6.153   5.837   0.207
 1106WAT      O 5143   7.152   5.639   0.812
 1106WAT     H1 5144   7.160   5.639   0.725
 1106WAT     H2 5145   7.094   5.575   0.827
 1106WAT    EPW 5146   7.145   5.629   0.802
 1107WAT      O 5147   6.123   6.016   0.598
 1107WAT     H1 5148   6.184   5.999   0.658
 1107WAT     H2 5149   6.048   6.002   0.640
 1107WAT    EPW 5150   6.121   6.011   0.613
 1108WAT      O 5151   6.551   4.949   0.593
 1108WAT     H1 5152   6.544   5.017   0.538
 1108WAT     H2 5153   6.625   4.910   0.568
 1108WAT    EPW 5154   6.561   4.953   0.581
 1109WAT      O 5155   6.012   6.325   0.206
 1109WAT     H1 5156   6.059   6.333   0.133
 1109WAT     H2 5157   6.058   6.267   0.253
 1109WAT    EPW 5158   6.026   6.317   0.202
 1110WAT      O 5159   5.866   6.219   1.316
 1110WAT     H1 5160   5.879   6.191   1.397
 1110WAT     H2 5161   5.805   6.165   1.285
 1110WAT    EPW 5162   5.859   6.207   1.323
 1111WAT      O 5163   6.523   5.972   1.822
 1111WAT     H1 5164   6.500   5.972   1.906
 1111WAT     H2 5165   6.449   5.957   1.780
 1111WAT    EPW 5166   6.509   5.970   1.828
 1112WAT      O 5167   6.011   5.672   0.736
 1112WAT     H1 5168   5.964   5.632   0.673
 1112WAT     H2 5169   6.081   5.620   0.745
 1112WAT    EPW 5170   6.014   5.658   0.728
 1113WAT      O 5171   6.461   5.233   1.271
 1113WAT     H1 5172   6.529   5.234   1.216
 1113WAT     H2 5173   6.457   5.149   1.295
 1113WAT    EPW 5174   6.471   5.220   1.266
 1114WAT      O 5175   6.522   6.291   1.549
 1114WAT     H1 5176   6.535   6.367   1.508
 1114WAT     H2 5177   6.601   6.255   1.551
 1114WAT    EPW 5178   6.535   6.297   1.543
 1115WAT      O 5179   6.211   5.482   0.738
 1115WAT     H1 5180   6.292   5.463   0.762
 1115WAT     H2 5181   6.163   5.420   0.778
 1115WAT    EPW 5182   6.216   5.470   0.748
 1116WAT      O 5183   6.631   6.080   0.999
 1116WAT     H1 5184   6.666   6.000   1.002
 1116WAT     H2 5185   6.698   6.130   0.974
 1116WAT    EPW 5186   6.646   6.075   0.996
 1117WAT      O 5187   6.637   6.025   0.620
 1117WAT     H1 5188   6.670   5.960   0.669
 1117WAT     H2 5189   6.661   6.003   0.539
 1117WAT    EPW 5190   6.645   6.012   0.615
 1118WAT      O 5191   6.834   5.438   1.754
 1118WAT     H1 5192   6.749   5.428   1.736
 1118WAT     H2 5193   6.837   5.512   1.800
 1118WAT    EPW 5194   6.822   5.447   1.758
 1119WAT      O 5195   6.270   4.991   0.665
 1119WAT     H1 5196   6.241   5.041   0.600
 1119WAT     H2 5197   6.357   4.999   0.659
 1119WAT    EPW 5198   6.279   5.000   0.654
 1120WAT      O 5199   7.289   4.734   1.666
 1120WAT     H1 5200   7.274   4.811   1.627
 1120WAT     H2 5201   7.212   4.712   1.700
 1120WAT    EPW 5202   7.276   4.742   1.665
 1121WAT      O 5203   6.568   4.905   0.887
 1121WAT     H1 5204   6.576   4.991   0.900
 1121WAT     H2 5205   6.565   4.898   0.800
 1121WAT    EPW 5206   6.569   4.917   0.876
 1122WAT      O 5207   5.856   5.448   1.037
 1122WAT     H1 5208   5.831   5.531   1.030
 1122WAT     H2 5209   5.790   5.409   1.079
 1122WAT    EPW 5210   5.843   5.454   1.042
 1123WAT      O 5211   5.847   6.419   0.827
 1123WAT     H1 5212   5.788   6.474   0.796
 1123WAT     H2 5213   5.890   6.392   0.756
 1123WAT    EPW 5214   5.845   6.423   0.812
 1124WAT      O 5215   6.431   6.203   0.575
 1124WAT     H1 5216   6.373   6.176   0.634
 1124WAT     H2 5217   6.494   6.142   0.578
 1124WAT    EPW 5218   6.432   6.190   0.584
 1125WAT      O 5219   7.046   6.432   0.327
 1125WAT     H1 5220   7.118   6.479   0.338
 1125WAT     H2 5221   7.068   6.352   0.355
 1125WAT    EPW 5222   7.060   6.427   0.333
 1126WAT      O 5223   6.862   6.471   0.526
 1126WAT     H1 5224   6.884   6.524   0.593
 1126WAT     H2 5225   6.939   6.454   0.488
 1126WAT    EPW 5226   6.877   6.476   0.531
 1127WAT      O 5227   6.159   4.929   1.086
 1127WAT     H1 5228   6.107   4.867   1.055
 1127WAT     H2 5229   6.218   4.886   1.133
 1127WAT    EPW 5230   6.160   4.914   1.089
 1128WAT      O 5231   6.490   5.143   2.016
 1128WAT     H1 5232   6.501   5.097   1.942
 1128WAT     H2 5233   6.519   5.222   1.996
 1128WAT    EPW 5234   6.496   5.148   2.002
 1129WAT      O 5235   6.002   6.286   0.620
 1129WAT     H1 5236   6.067   6.228   0.622
 1129WAT     H2 5237   6.041   6.361   0.598
 1129WAT    EPW 5238   6.017   6.288   0.617
 1130WAT      O 5239   7.575   5.195   0.746
 1130WAT     H1 5240   7.540   5.263   0.789
 1130WAT     H2 5241   7.511   5.135   0.748
 1130WAT    EPW 5242   7.561   5.196   0.753
 1131WAT      O 5243   7.106   6.472   1.357
 1131WAT     H1 5244   7.181   6.518   1.356
 1131WAT     H2 5245   7.094   6.451   1.273
 1131WAT    EPW 5246   7.115   6.476   1.344
 1132WAT      O 5247   6.063   5.102   1.914
 1132WAT     H1 5248   5.985   5.063   1.907
 1132WAT     H2 5249   6.112   5.061   1.855
 1132WAT    EPW 5250   6.059   5.090   1.905
 1133WAT      O 5251   6.084   6.134   0.970
 1133WAT     H1 5252   6.126   6.099   0.903
 1133WAT     H2 5253   6.116   6.092   1.039
 1133WAT    EPW 5254   6.095   6.123   0.971
 1134WAT      O 5255   6.407   6.420   0.900
 1134WAT     H1 5256   6.491   6.430   0.880
 1134WAT     H2 5257   6.377   6.501   0.907
 1134WAT    EPW 5258   6.415   6.433   0.898
 1135WAT      O 5259   6.728   4.867   1.831
 1135WAT     H1 5260   6.746   4.786   1.804
 1135WAT     H2 5261   6.714   4.911   1.757
 1135WAT    EPW 5262   6.728   4.861   1.816
 1136WAT      O 5263   6.787   5.359   0.709
 1136WAT     H1 5264   6.816   5.336   0.630
 1136WAT     H2 5265   6.861   5.367   0.755
 1136WAT    EPW 5266   6.802   5.357   0.704
 1137WAT      O 5267   6.860   5.393   0.221
 1137WAT     H1 5268   6.888   5.472   0.246
 1137WAT     H2 5269   6.782   5.410   0.184
 1137WAT    EPW 5270   6.852   5.407   0.219
 1138WAT      O 5271   7.264   6.591   0.367
 1138WAT     H1 5272   7.330   6.576   0.313
 1138WAT     H2 5273   7.300   6.582   0.446
 1138WAT    EPW 5274   7.279   6.587   0.371
 1139WAT      O 5275   6.306   6.541   1.474
 1139WAT     H1 5276   6.336   6.535   1.556
 1139WAT     H2 5277   6.244   6.481   1.469
 1139WAT    EPW 5278   6.302   6.532   1.485
 1140WAT      O 5279   5.798   5.157   1.673
 1140WAT     H1 5280   5.797   5.216   1.738
 1140WAT     H2 5281   5.857   5.188   1.617
 1140WAT    EPW 5282   5.807   5.170   1.674
 1141WAT      O 5283   7.032   6.191   1.727
 1141WAT     H1 5284   7.028   6.229   1.806
 1141WAT     H2 5285   7.117   6.186   1.710
 1141WAT    EPW 5286   7.044   6.196   1.736
 1142WAT      O 5287   6.745   6.210   0.202
 1142WAT     H1 5288   6.727   6.265   0.268
 1142WAT     H2 5289   6.822   6.239   0.172
 1142WAT    EPW 5290   6.754   6.223   0.208
 1143WAT      O 5291   7.096   5.000   0.308
 1143WAT     H1 5292   7.150   4.932   0.315
 1143WAT     H2 5293   7.102   5.040   0.385
 1143WAT    EPW 5294   7.105   4.996   0.320
 1144WAT      O 5295   5.892   5.117   0.565
 1144WAT     H1 5296   5.880   5.030   0.568
 1144WAT     H2 5297   5.844   5.146   0.632
 1144WAT    EPW 5298   5.883   5.108   0.575
 1145WAT      O 5299   6.106   6.358   1.386
 1145WAT     H1 5300   6.036   6.307   1.399
 1145WAT     H2 5301   6.132   6.337   1.305
 1145WAT    EPW 5302   6.099   6.347   1.376
 1146WAT      O 5303   6.822   5.237   0.439
 1146WAT     H1 5304   6.771   5.171   0.414
 1146WAT     H2 5305   6.827   5.288   0.368
 1146WAT    EPW 5306   6.815   5.235   0.425
 1147WAT      O 5307   6.877   6.507   1.477
 1147WAT     H1 5308   6.954   6.499   1.436
 1147WAT     H2 5309   6.819   6.495   1.413
 1147WAT    EPW 5310   6.880   6.504   1.462
 1148WAT      O 5311   6.822   4.932   0.428
 1148WAT     H1 5312   6.776   4.891   0.366
 1148WAT     H2 5313   6.899   4.947   0.391
 1148WAT    EPW 5314   6.827   4.928   0.413
 1149WAT      O 5315   7.505   6.567   0.767
 1149WAT     H1 5316   7.459   6.639   0.787
 1149WAT     H2 5317   7.443   6.510   0.743
 1149WAT    EPW 5318   7.489   6.569   0.767
 1150WAT      O 5319   6.682   5.168   0.880
 1150WAT     H1 5320   6.689   5.225   0.815
 1150WAT     H2 5321   6.694   5.217   0.951
 1150WAT    EPW 5322   6.685   5.184   0.881
 1151WAT      O 5323   7.204   6.152   0.722
 1151WAT     H1 5324   7.274   6.104   0.740
 1151WAT     H2 5325   7.138   6.095   0.726
 1151WAT    EPW 5326   7.205   6.136   0.725
 1152WAT      O 5327   6.242   6.243   1.643
 1152WAT     H1 5328   6.326   6.249   1.621
 1152WAT     H2 5329   6.238   6.282   1.720
 1152WAT    EPW 5330   6.254   6.250   1.651
 1153WAT      O 5331   6.143   4.751   0.715
 1153WAT     H1 5332   6.196   4.819   0.714
 1153WAT     H2 5333   6.143   4.723   0.632
 1153WAT    EPW 5334   6.150   4.757   0.703
 1154WAT      O 5335   6.438   5.794   1.118
 1154WAT     H1 5336   6.455   5.773   1.201
 1154WAT     H2 5337   6.373   5.740   1.096
 1154WAT    EPW 5338   6.431   5.783   1.127
 1155WAT      O 5339   7.061   5.185   1.469
 1155WAT     H1 5340   7.051   5.217   1.550
 1155WAT     H2 5341   7.002   5.121   1.465
 1155WAT    EPW 5342   7.051   5.180   1.481
 1156WAT      O 5343   6.513   5.788   1.377
 1156WAT     H1 5344   6.518   5.872   1.397
 1156WAT     H2 5345   6.485   5.751   1.450
 1156WAT    EPW 5346   6.510   5.795   1.390
 1157WAT      O 5347   7.131   5.857   1.290
 1157WAT     H1 5348   7.079   5.816   1.347
 1157WAT     H2 5349   7.118   5.942   1.308
 1157WAT    EPW 5350   7.121   5.864   1.301
 1158WAT      O 5351   7.187   4.780   0.753
 1158WAT     H1 5352   7.191   4.748   0.834
 1158WAT     H2 5353   7.219   4.715   0.703
 1158WAT    EPW 5354   7.192   4.765   0.757
 1159WAT      O 5355   5.795   6.225   1.998
 1159WAT     H1 5356   5.871   6.260   2.024
 1159WAT     H2 5357   5.813   6.139   1.992
 1159WAT    EPW 5358   5.809   6.217   2.001
 1160WAT      O 5359   7.433   5.203   1.584
 1160WAT     H1 5360   7.510   5.181   1.617
 1160WAT     H2 5361   7.385   5.225   1.654
 1160WAT    EPW 5362   7.437   5.203   1.599
 1161WAT      O 5363   6.187   5.132   0.881
 1161WAT     H1 5364   6.215   5.089   0.810
 1161WAT     H2 5365   6.170   5.068   0.938
 1161WAT    EPW 5366   6.189   5.116   0.879
 1162WAT      O 5367   7.456   5.901   0.302
 1162WAT     H1 5368   7.468   5.872   0.384
 1162WAT     H2 5369   7.537   5.903   0.269
 1162WAT    EPW 5370   7.470   5.897   0.310
 1163WAT      O 5371   6.170   5.874   0.835
 1163WAT     H1 5372   6.255   5.866   0.818
 1163WAT     H2 5373   6.134   5.806   0.794
 1163WAT    EPW 5374   6.177   5.863   0.827
 1164WAT      O 5375   6.046   6.547   0.959
 1164WAT     H1 5376   5.979   6.497   0.935
 1164WAT     H2 5377   6.087   6.565   0.884
 1164WAT    EPW 5378   6.042   6.542   0.944
 1165WAT      O 5379   6.001   5.242   1.189
 1165WAT     H1 5380   6.086   5.264   1.184
 1165WAT     H2 5381   5.963   5.299   1.136
 1165WAT    EPW 5382   6.008   5.253   1.180
 1166WAT      O 5383   7.246   5.555   0.261
 1166WAT     H1 5384   7.224   5.628   0.219
 1166WAT     H2 5385   7.201   5.560   0.336
 1166WAT    EPW 5386   7.236   5.566   0.266
 1167WAT      O 5387   6.407   5.875   0.659
 1167WAT     H1 5388   6.478   5.924   0.668
 1167WAT     H2 5389   6.429   5.818   0.596
 1167WAT    EPW 5390   6.420   5.874   0.651
 1168WAT      O 5391   5.822   6.039   0.991
 1168WAT     H1 5392   5.755   6.088   1.019
 1168WAT     H2 5393   5.890   6.094   0.994
 1168WAT    EPW 5394   5.822   6.054   0.995
 1169WAT      O 5395   6.587   5.410   2.001
 1169WAT     H1 5396   6.538   5.468   2.045
 1169WAT     H2 5397   6.584   5.440   1.918
 1169WAT    EPW 5398   6.579   5.423   1.995
 1170WAT      O 5399   5.829   5.708   0.501
 1170WAT     H1 5400   5.810   5.624   0.516
 1170WAT     H2 5401   5.895   5.704   0.444
 1170WAT    EPW 5402   5.836   5.695   0.495
 1171WAT      O 5403   7.465   4.997   0.434
 1171WAT     H1 5404   7.539   4.956   0.454
 1171WAT     H2 5405   7.491   5.068   0.392
 1171WAT    EPW 5406   7.479   5.001   0.431
 1172WAT      O 5407   6.859   6.245   0.892
 1172WAT     H1 5408   6.807   6.309   0.862
 1172WAT     H2 5409   6.890   6.209   0.819
 1172WAT    EPW 5410   6.856   6.249   0.877
 1173WAT      O 5411   5.846   6.124   0.459
 1173WAT     H1 5412   5.901   6.181   0.495
 1173WAT     H2 5413   5.823   6.073   0.525
 1173WAT    EPW 5414   5.851   6.125   0.474
 1174WAT      O 5415   6.266   6.024   1.168
 1174WAT     H1 5416   6.313   6.053   1.235
 1174WAT     H2 5417   6.324   5.976   1.122
 1174WAT    EPW 5418   6.282   6.021   1.171
 1175WAT      O 5419   7.110   5.225   0.941
 1175WAT     H1 5420   7.144   5.241   1.020
 1175WAT     H2 5421   7.065   5.152   0.953
 1175WAT    EPW 5422   7.108   5.217   0.955
 1176WAT      O 5423   5.829   5.969   0.222
 1176WAT     H1 5424   5.905   5.926   0.227
 1176WAT     H2 5425   5.830   6.022   0.291
 1176WAT    EPW 5426   5.840   5.970   0.233
 1177WAT      O 5427   5.923   5.791   1.022
 1177WAT     H1 5428   5.966   5.778   0.947
 1177WAT     H2 5429   5.902   5.876   1.019
 1177WAT    EPW 5430   5.926   5.802   1.011
 1178WAT      O 5431   6.558   5.147   0.387
 1178WAT     H1 5432   6.557   5.136   0.301
 1178WAT     H2 5433   6.539   5.232   0.396
 1178WAT    EPW 5434   6.555   5.158   0.376
 1179WAT      O 5435   7.463   6.390   1.537
 1179WAT     H1 5436   7.396   6.442   1.559
 1179WAT     H2 5437   7.469   6.400   1.450
 1179WAT    EPW 5438   7.454   6.399   1.527
 1180WAT      O 5439   6.331   6.143   0.850
 1180WAT     H1 5440   6.344   6.227   0.869
 1180WAT     H2 5441   6.398   6.103   0.890
 1180WAT    EPW 5442   6.343   6.149   0.859
 1181WAT      O 5443   6.144   5.491   1.836
 1181WAT     H1 5444   6.091   5.440   1.883
 1181WAT     H2 5445   6.146   5.452   1.758
 1181WAT    EPW 5446   6.137   5.478   1.832
 1182WAT      O 5447   6.193   5.431   0.350
 1182WAT     H1 5448   6.180   5.386   0.424
 1182WAT     H2 5449   6.135   5.396   0.295
 1182WAT    EPW 5450   6.182   5.419   0.353
 1183WAT      O 5451   6.210   5.614   1.010
 1183WAT     H1 5452   6.131   5.608   0.972
 1183WAT     H2 5453   6.217   5.538   1.054
 1183WAT    EPW 5454   6.199   5.602   1.011
 1184WAT      O 5455   6.253   5.587   1.357
 1184WAT     H1 5456   6.255   5.520   1.302
 1184WAT     H2 5457   6.188   5.637   1.326
 1184WAT    EPW 5458   6.243   5.585   1.344
 1185WAT      O 5459   7.242   5.359   1.197
 1185WAT     H1 5460   7.176   5.391   1.243
 1185WAT     H2 5461   7.261   5.422   1.140
 1185WAT    EPW 5462   7.235   5.373   1.195
 1186WAT      O 5463   6.663   6.465   1.296
 1186WAT     H1 5464   6.635   6.401   1.244
 1186WAT     H2 5465   6.642   6.538   1.253
 1186WAT    EPW 5466   6.655   6.466   1.282
 1187WAT      O 5467   6.907   4.949   1.540
 1187WAT     H1 5468   6.921   4.867   1.515
 1187WAT     H2 5469   6.944   4.955   1.618
 1187WAT    EPW 5470   6.914   4.938   1.548
 1188WAT      O 5471   7.061   5.156   0.548
 1188WAT     H1 5472   7.110   5.227   0.540
 1188WAT     H2 5473   6.982   5.182   0.522
 1188WAT    EPW 5474   7.057   5.170   0.543
 1189WAT      O 5475   6.032   5.723   1.913
 1189WAT     H1 5476   6.029   5.773   1.842
 1189WAT     H2 5477   6.066   5.648   1.884
 1189WAT    EPW 5478   6.037   5.719   1.898
 1190WAT      O 5479   7.193   5.943   1.739
 1190WAT     H1 5480   7.241   6.015   1.749
 1190WAT     H2 5481   7.232   5.901   1.674
 1190WAT    EPW 5482   7.206   5.948   1.731
 1191WAT      O 5483   6.622   6.228   1.857
 1191WAT     H1 5484   6.658   6.210   1.934
 1191WAT     H2 5485   6.579   6.155   1.837
 1191WAT    EPW 5486   6.621   6.214   1.865
 1192WAT      O 5487   6.720   5.303   1.120
 1192WAT     H1 5488   6.768   5.372   1.141
 1192WAT     H2 5489   6.757   5.238   1.165
 1192WAT    EPW 5490   6.732   5.303   1.130
 1193WAT      O 5491   6.938   5.619   0.348
 1193WAT     H1 5492   6.938   5.692   0.299
 1193WAT     H2 5493   6.875   5.633   0.405
 1193WAT    EPW 5494   6.929   5.632   0.349
 1194WAT      O 5495   7.436   6.006   0.746
 1194WAT     H1 5496   7.471   5.971   0.817
 1194WAT     H2 5497   7.435   5.940   0.689
 1194WAT    EPW 5498   7.441   5.991   0.748
 1195WAT      O 5499   7.040   6.313   1.130
 1195WAT     H1 5500   6.980   6.283   1.075
 1195WAT     H2 5501   7.095   6.358   1.079
 1195WAT    EPW 5502   7.039   6.315   1.114
 1196WAT      O 5503   7.041   5.998   1.070
 1196WAT     H1 5504   6.962   6.021   1.098
 1196WAT     H2 5505   7.067   5.939   1.129
 1196WAT    EPW 5506   7.033   5.993   1.083
 1197WAT      O 5507   6.431   6.479   0.515
 1197WAT     H1 5508   6.416   6.402   0.552
 1197WAT     H2 5509   6.500   6.465   0.464
 1197WAT    EPW 5510   6.439   6.466   0.513
 1198WAT      O 5511   6.398   4.854   0.314
 1198WAT     H1 5512   6.407   4.843   0.400
 1198WAT     H2 5513   6.327   4.904   0.307
 1198WAT    EPW 5514   6.389   4.860   0.326
 1199WAT      O 5515   6.660   6.431   0.355
 1199WAT     H1 5516   6.722   6.447   0.414
 1199WAT     H2 5517   6.663   6.500   0.302
 1199WAT    EPW 5518   6.670   6.444   0.356
 1200WAT      O 5519   7.367   5.798   1.555
 1200WAT     H1 5520   7.373   5.810   1.469
 1200WAT     H2 5521   7.443   5.830   1.585
 1200WAT    EPW 5522   7.379   5.804   1.547
 1201WAT      O 5523   6.987   6.333   1.983
 1201WAT     H1 5524   7.003   6.361   2.063
 1201WAT     H2 5525   7.013   6.399   1.932
 1201WAT    EPW 5526   6.993   6.347   1.987
 1202WAT      O 5527   7.471   4.828   1.854
 1202WAT     H1 5528   7.407   4.788   1.809
 1202WAT     H2 5529   7.473   4.785   1.929
 1202WAT    EPW 5530   7.462   4.816   1.858
 1203WAT      O 5531   6.110   5.684   0.438
 1203WAT     H1 5532   6.142   5.606   0.416
 1203WAT     H2 5533   6.175   5.721   0.484
 1203WAT    EPW 5534   6.124   5.678   0.442
 1204WAT      O 5535   6.941   5.779   1.515
 1204WAT     H1 5536   6.925   5.840   1.575
 1204WAT     H2 5537   6.994   5.723   1.555
 1204WAT    EPW 5538   6.946   5.779   1.530
 1205WAT      O 5539   5.810   4.850   0.535
 1205WAT     H1 5540   5.823   4.780   0.486
 1205WAT     H2 5541   5.773   4.819   0.607
 1205WAT    EPW 5542   5.806   4.835   0.538
 1206WAT      O 5543   6.779   5.619   0.581
 1206WAT     H1 5544   6.785   5.684   0.639
 1206WAT     H2 5545   6.760   5.549   0.630
 1206WAT    EPW 5546   6.777   5.618   0.596
 1207WAT      O 5547   7.302   6.051   1.168
 1207WAT     H1 5548   7.254   6.081   1.101
 1207WAT     H2 5549   7.266   5.974   1.185
 1207WAT    EPW 5550   7.289   6.044   1.160
 1208WAT      O 5551   6.229   5.070   0.232
 1208WAT     H1 5552   6.177   5.076   0.161
 1208WAT     H2 5553   6.307   5.094   0.202
 1208WAT    EPW 5554   6.233   5.075   0.217
 1209WAT      O 5555   6.701   5.823   1.024
 1209WAT     H1 5556   6.617   5.804   1.032
 1209WAT     H2 5557   6.734   5.807   1.103
 1209WAT    EPW 5558   6.693   5.818   1.037
 1210WAT      O 5559   6.086   5.793   1.255
 1210WAT     H1 5560   6.158   5.841   1.252
 1210WAT     H2 5561   6.059   5.790   1.172
 1210WAT    EPW 5562   6.093   5.799   1.243
 1211WAT      O 5563   6.409   5.310   0.929
 1211WAT     H1 5564   6.494   5.291   0.939
 1211WAT     H2 5565   6.372   5.232   0.915
 1211WAT    EPW 5566   6.416   5.295   0.928
 1212WAT      O 5567   5.891   5.443   0.594
 1212WAT     H1 5568   5.940   5.414   0.660
 1212WAT     H2 5569   5.904   5.384   0.532
 1212WAT    EPW 5570   5.900   5.430   0.595
 1213WAT      O 5571   7.395   5.746   1.279
 1213WAT     H1 5572   7.394   5.668   1.319
 1213WAT     H2 5573   7.311   5.769   1.279
 1213WAT    EPW 5574   7.382   5.738   1.285
 1214WAT      O 5575   6.026   5.898   1.683
 1214WAT     H1 5576   5.983   5.846   1.627
 1214WAT     H2 5577   5.990   5.976   1.669
 1214WAT    EPW 5578   6.014   5.902   1.673
 1215WAT      O 5579   6.489   5.433   0.414
 1215WAT     H1 5580   6.516   5.516   0.421
 1215WAT     H2 5581   6.403   5.440   0.404
 1215WAT    EPW 5582   6.480   5.446   0.413
 1216WAT      O 5583   7.286   5.145   1.877
 1216WAT     H1 5584   7.234   5.191   1.930
 1216WAT     H2 5585   7.250   5.066   1.877
 1216WAT    EPW 5586   7.273   5.140   1.885
 1217WAT      O 5587   5.837   5.030   1.068
 1217WAT     H1 5588   5.842   5.064   0.987
 1217WAT     H2 5589   5.913   5.054   1.104
 1217WAT    EPW 5590   5.849   5.039   1.061
 1218WAT      O 5591   7.136   5.502   1.885
 1218WAT     H1 5592   7.143   5.512   1.971
 1218WAT     H2 5593   7.072   5.558   1.863
 1218WAT    EPW 5594   7.127   5.512   1.894
 1219WAT      O 5595   7.362   5.534   1.721
 1219WAT     H1 5596   7.394   5.613   1.742
 1219WAT     H2 5597   7.325   5.507   1.796
 1219WAT    EPW 5598   7.362   5.542   1.735
 1220WAT      O 5599   7.294   6.176   0.274
 1220WAT     H1 5600   7.327   6.096   0.278
 1220WAT     H2 5601   7.218   6.169   0.317
 1220WAT    EPW 5602   7.288   6.163   0.281
 1221WAT      O 5603   7.342   5.360   0.840
 1221WAT     H1 5604   7.268   5.327   0.872
 1221WAT     H2 5605   7.342   5.442   0.868
 1221WAT    EPW 5606   7.331   5.367   0.849
 1222WAT      O 5607   7.031   5.964   0.215
 1222WAT     H1 5608   7.100   5.912   0.198
 1222WAT     H2 5609   6.990   5.968   0.138
 1222WAT    EPW 5610   7.035   5.957   0.201
 1223WAT      O 5611   6.499   6.079   1.345
 1223WAT     H1 5612   6.470   6.138   1.402
 1223WAT     H2 5613   6.505   6.123   1.270
 1223WAT    EPW 5614   6.496   6.094   1.342
 1224WAT      O 5615   6.297   5.974   1.685
 1224WAT     H1 5616   6.217   5.945   1.701
 1224WAT     H2 5617   6.288   6.061   1.685
 1224WAT    EPW 5618   6.284   5.982   1.687
 1225WAT      O 5619   7.233   4.993   1.586
 1225WAT     H1 5620   7.308   5.038   1.580
 1225WAT     H2 5621   7.177   5.040   1.539
 1225WAT    EPW 5622   7.236   5.006   1.578
 1226WAT      O 5623   6.751   5.721   1.294
 1226WAT     H1 5624   6.799   5.759   1.357
 1226WAT     H2 5625   6.669   5.735   1.320
 1226WAT    EPW 5626   6.746   5.729   1.307
 1227WAT      O 5627   6.422   5.281   1.568
 1227WAT     H1 5628   6.438   5.207   1.611
 1227WAT     H2 5629   6.418   5.257   1.485
 1227WAT    EPW 5630   6.424   5.267   1.562
 1228WAT      O 5631   6.677   6.460   0.817
 1228WAT     H1 5632   6.732   6.528   0.822
 1228WAT     H2 5633   6.642   6.469   0.737
 1228WAT    EPW 5634   6.680   6.472   0.806
 1229WAT      O 5635   7.362   4.791   1.353
 1229WAT     H1 5636   7.334   4.873   1.349
 1229WAT     H2 5637   7.433   4.796   1.403
 1229WAT    EPW 5638   7.368   4.804   1.360
 1230WAT      O 5639   6.597   4.862   1.556
 1230WAT     H1 5640   6.668   4.894   1.516
 1230WAT     H2 5641   6.621   4.782   1.579
 1230WAT    EPW 5642   6.611   4.855   1.554
 1231WAT      O 5643   6.496   6.283   1.156
 1231WAT     H1 5644   6.433   6.341   1.138
 1231WAT     H2 5645   6.521   6.255   1.077
 1231WAT    EPW 5646   6.490   6.288   1.141
 1232WAT      O 5647   6.927   5.947   1.855
 1232WAT     H1 5648   7.002   5.975   1.822
 1232WAT     H2 5649   6.872   5.952   1.787
 1232WAT    EPW 5650   6.930   5.952   1.840
 1233WAT      O 5651   7.318   6.202   1.705
 1233WAT     H1 5652   7.352   6.229   1.780
 1233WAT     H2 5653   7.347   6.260   1.647
 1233WAT    EPW 5654   7.327   6.214   1.708
 1234WAT      O 5655   7.504   5.416   0.239
 1234WAT     H1 5656   7.542   5.484   0.199
 1234WAT     H2 5657   7.420   5.439   0.242
 1234WAT    EPW 5658   7.497   5.430   0.233
 1235WAT      O 5659   6.248   5.368   1.162
 1235WAT     H1 5660   6.292   5.357   1.088
 1235WAT     H2 5661   6.303   5.336   1.223
 1235WAT    EPW 5662   6.263   5.361   1.160
 1236WAT      O 5663   7.050   5.278   1.721
 1236WAT     H1 5664   6.985   5.325   1.756
 1236WAT     H2 5665   7.106   5.269   1.787
 1236WAT    EPW 5666   7.049   5.283   1.736
 1237WAT      O 5667   7.019   5.431   1.351
 1237WAT     H1 5668   7.049   5.473   1.422
 1237WAT     H2 5669   7.022   5.347   1.374
 1237WAT    EPW 5670   7.024   5.425   1.365
 1238WAT      O 5671   6.761   6.448   1.744
 1238WAT     H1 5672   6.809   6.388   1.702
 1238WAT     H2 5673   6.726   6.404   1.810
 1238WAT    EPW 5674   6.763   6.433   1.747
 1239WAT      O 5675   7.273   5.376   0.576
 1239WAT     H1 5676   7.294   5.356   0.659
 1239WAT     H2 5677   7.349   5.403   0.542
 1239WAT    EPW 5678   7.288   5.377   0.584
 1240WAT      O 5679   6.603   4.866   1.167
 1240WAT     H1 5680   6.520   4.851   1.191
 1240WAT     H2 5681   6.599   4.870   1.080
 1240WAT    EPW 5682   6.590   4.864   1.158
 1241WAT      O 5683   7.376   4.984   0.724
 1241WAT     H1 5684   7.304   4.937   0.741
 1241WAT     H2 5685   7.359   5.019   0.645
 1241WAT    EPW 5686   7.363   4.983   0.715
 1242WAT      O 5687   7.420   5.779   0.562
 1242WAT     H1 5688   7.467   5.706   0.557
 1242WAT     H2 5689   7.338   5.750   0.554
 1242WAT    EPW 5690   7.415   5.764   0.560
 1243WAT      O 5691   6.767   5.970   1.646
 1243WAT     H1 5692   6.687   5.964   1.681
 1243WAT     H2 5693   6.774   6.055   1.626
 1243WAT    EPW 5694   6.756   5.982   1.648
 1244WAT      O 5695   5.859   4.906   1.770
 1244WAT     H1 5696   5.845   4.985   1.737
 1244WAT     H2 5697   5.781   4.882   1.799
 1244WAT    EPW 5698   5.846   4.914   1.770
 1245WAT      O 5699   6.350   6.591   1.177
 1245WAT     H1 5700   6.351   6.597   1.264
 1245WAT     H2 5701   6.307   6.516   1.162
 1245WAT    EPW 5702   6.344   6.581   1.188
 1246WAT      O 5703   6.166   5.180   0.493
 1246WAT     H1 5704   6.178   5.147   0.413
 1246WAT     H2 5705   6.085   5.155   0.513
 1246WAT    EPW 5706   6.156   5.172   0.484
 1247WAT      O 5707   7.041   5.896   0.797
 1247WAT     H1 5708   7.049   5.930   0.877
 1247WAT     H2 5709   7.058   5.811   0.809
 1247WAT    EPW 5710   7.045   5.888   0.811
 1248WAT      O 5711   6.794   5.823   0.754
 1248WAT     H1 5712   6.764   5.791   0.830
 1248WAT     H2 5713   6.863   5.870   0.777
 1248WAT    EPW 5714   6.800   5.825   0.769
 1249WAT      O 5715   6.816   6.235   1.557
 1249WAT     H1 5716   6.885   6.223   1.609
 1249WAT     H2 5717   6.829   6.314   1.522
 1249WAT    EPW 5718   6.828   6.245   1.559
 1250WAT      O 5719   7.085   5.562   1.595
 1250WAT     H1 5720   7.059   5.490   1.637
 1250WAT     H2 5721   7.167   5.574   1.622
 1250WAT    EPW 5722   7.093   5.553   1.605
 1251WAT      O 5723   6.026   6.541   1.722
 1251WAT     H1 5724   5.961   6.484   1.731
 1251WAT     H2 5725   5.989   6.618   1.737
 1251WAT    EPW 5726   6.011   6.544   1.725
 1252WAT      O 5727   6.878   5.681   1.914
 1252WAT     H1 5728   6.910   5.750   1.871
 1252WAT     H2 5729   6.808   5.713   1.954
 1252WAT    EPW 5730   6.872   5.696   1.913
 1253WAT      O 5731   7.187   6.519   1.007
 1253WAT     H1 5732   7.141   6.583   1.045
 1253WAT     H2 5733   7.257   6.511   1.057
 1253WAT    EPW 5734   7.190   6.527   1.020
 1254WAT      O 5735   6.857   6.028   1.300
 1254WAT     H1 5736   6.787   6.068   1.334
 1254WAT     H2 5737   6.924   6.071   1.334
 1254WAT    EPW 5738   6.856   6.040   1.310
 1255WAT      O 5739   7.394   6.287   1.958
 1255WAT     H1 5740   7.472   6.248   1.966
 1255WAT     H2 5741   7.347   6.253   2.023
 1255WAT    EPW 5742   7.399   6.276   1.969
 1256WAT      O 5743   6.163   5.381   1.535
 1256WAT     H1 5744   6.201   5.443   1.486
 1256WAT     H2 5745   6.231   5.334   1.563
 1256WAT    EPW 5746   6.179   5.384   1.532
 1257WAT      O 5747   5.941   5.226   1.462
 1257WAT     H1 5748   5.949   5.209   1.377
 1257WAT     H2 5749   6.016   5.267   1.482
 1257WAT    EPW 5750   5.953   5.230   1.452
 1258WAT      O 5751   7.497   5.490   0.506
 1258WAT     H1 5752   7.507   5.484   0.420
 1258WAT     H2 5753   7.571   5.457   0.538
 1258WAT    EPW 5754   7.509   5.484   0.498
 1259WAT      O 5755   6.196   4.967   1.703
 1259WAT     H1 5756   6.188   4.883   1.724
 1259WAT     H2 5757   6.165   4.972   1.622
 1259WAT    EPW 5758   6.191   4.955   1.694
 1260WAT      O 5759   6.889   6.187   0.617
 1260WAT     H1 5760   6.868   6.270   0.601
 1260WAT     H2 5761   6.811   6.148   0.629
 1260WAT    EPW 5762   6.874   6.193   0.616
 1261WAT      O 5763   7.407   5.505   1.442
 1261WAT     H1 5764   7.407   5.418   1.454
 1261WAT     H2 5765   7.414   5.537   1.522
 1261WAT    EPW 5766   7.408   5.497   1.455
 1262WAT      O 5767   5.881   5.749   1.484
 1262WAT     H1 5768   5.913   5.771   1.406
 1262WAT     H2 5769   5.871   5.662   1.479
 1262WAT    EPW 5770   5.884   5.739   1.472
 1263WAT      O 5771   6.995   4.985   1.820
 1263WAT     H1 5772   7.004   5.056   1.869
 1263WAT     H2 5773   6.931   4.940   1.860
 1263WAT    EPW 5774   6.987   4.989   1.833
 1264WAT      O 5775   6.894   5.004   0.905
 1264WAT     H1 5776   6.824   5.056   0.900
 1264WAT     H2 5777   6.898   4.966   0.827
 1264WAT    EPW 5778   6.885   5.006   0.893
 1265WAT      O 5779   6.425   6.213   0.258
 1265WAT     H1 5780   6.469   6.221   0.332
 1265WAT     H2 5781   6.345   6.191   0.283
 1265WAT    EPW 5782   6.420   6.211   0.273
 1266WAT      O 5783   7.254   5.055   1.185
 1266WAT     H1 5784   7.340   5.065   1.200
 1266WAT     H2 5785   7.217   5.111   1.242
 1266WAT    EPW 5786   7.261   5.065   1.196
 1267WAT      O 5787   6.357   5.678   1.623
 1267WAT     H1 5788   6.317   5.755   1.630
 1267WAT     H2 5789   6.316   5.641   1.555
 1267WAT    EPW 5790   6.345   5.684   1.614
 1268WAT      O 5791   7.285   5.583   1.034
 1268WAT     H1 5792   7.351   5.637   1.050
 1268WAT     H2 5793   7.250   5.614   0.960
 1268WAT    EPW 5794   7.289   5.596   1.026
 1269WAT      O 5795   7.316   6.390   0.615
 1269WAT     H1 5796   7.298   6.325   0.670
 1269WAT     H2 5797   7.387   6.363   0.573
 1269WAT    EPW 5798   7.324   6.376   0.617
 1270WAT      O 5799   6.158   6.120   0.318
 1270WAT     H1 5800   6.134   6.089   0.396
 1270WAT     H2 5801   6.155   6.050   0.266
 1270WAT    EPW 5802   6.154   6.105   0.322
 1271WAT      O 5803   6.440   5.944   0.192
 1271WAT     H1 5804   6.358   5.918   0.206
 1271WAT     H2 5805   6.437   6.030   0.211
 1271WAT    EPW 5806   6.427   5.953   0.197
 1272WAT      O 5807   6.400   4.976   1.368
 1272WAT     H1 5808   6.313   4.984   1.376
 1272WAT     H2 5809   6.422   4.924   1.435
 1272WAT    EPW 5810   6.390   4.969   1.379
 1273WAT      O 5811   6.810   5.050   1.205
 1273WAT     H1 5812   6.736   5.005   1.217
 1273WAT     H2 5813   6.867   5.010   1.258
 1273WAT    EPW 5814   6.808   5.038   1.215
 1274WAT      O 5815   7.083   6.135   1.384
 1274WAT     H1 5816   7.104   6.165   1.463
 1274WAT     H2 5817   7.077   6.207   1.336
 1274WAT    EPW 5818   7.085   6.150   1.389
 1275WAT      O 5819   7.037   6.557   1.809
 1275WAT     H1 5820   6.961   6.555   1.765
 1275WAT     H2 5821   7.054   6.642   1.817
 1275WAT    EPW 5822   7.028   6.569   1.803
 1276WAT      O 5823   6.560   5.483   1.726
 1276WAT     H1 5824   6.528   5.426   1.669
 1276WAT     H2 5825   6.525   5.559   1.701
 1276WAT    EPW 5826   6.550   5.486   1.714
 1277WAT      O 5827   7.565   5.999   1.330
 1277WAT     H1 5828   7.561   5.913   1.316
 1277WAT     H2 5829   7.495   6.029   1.287
 1277WAT    EPW 5830   7.554   5.991   1.322
 1278WAT      O 5831   6.404   6.519   1.751
 1278WAT     H1 5832   6.408   6.532   1.837
 1278WAT     H2 5833   6.469   6.463   1.735
 1278WAT    EPW 5834   6.414   6.513   1.761
 1279WAT      O 5835   7.375   6.325   1.210
 1279WAT     H1 5836   7.428   6.317   1.141
 1279WAT     H2 5837   7.336   6.247   1.215
 1279WAT    EPW 5838   7.377   6.312   1.200
 1280WAT      O 5839   6.122   4.984   1.433
 1280WAT     H1 5840   6.088   4.907   1.409
 1280WAT     H2 5841   6.052   5.036   1.439
 1280WAT    EPW 5842   6.107   4.980   1.430
 1281WAT      O 5843   7.026   4.870   1.130
 1281WAT     H1 5844   7.093   4.924   1.143
 1281WAT     H2 5845   6.976   4.912   1.073
 1281WAT    EPW 5846   7.029   4.884   1.124
 1282WAT      O 5847   6.163   6.357   1.887
 1282WAT     H1 5848   6.223   6.400   1.934
 1282WAT     H2 5849   6.127   6.420   1.838
 1282WAT    EPW 5850   6.167   6.373   1.886
 1283WAT      O 5851   6.962   5.450   0.880
 1283WAT     H1 5852   7.017   5.390   0.910
 1283WAT     H2 5853   6.920   5.477   0.951
 1283WAT    EPW 5854   6.964   5.445   0.895
 1284WAT      O 5855   5.987   5.315   0.828
 1284WAT     H1 5856   5.950   5.346   0.901
 1284WAT     H2 5857   6.041   5.252   0.857
 1284WAT    EPW 5858   5.990   5.311   0.843
 1285WAT      O 5859   5.956   6.156   1.579
 1285WAT     H1 5860   5.899   6.198   1.630
 1285WAT     H2 5861   6.029   6.203   1.589
 1285WAT    EPW 5862   5.958   6.169   1.588
 1286WAT      O 5863   7.159   5.633   0.536
 1286WAT     H1 5864   7.166   5.548   0.554
 1286WAT     H2 5865   7.077   5.642   0.508
 1286WAT    EPW 5866   7.148   5.622   0.535
 1287WAT      O 5867   6.135   6.483   0.457
 1287WAT     H1 5868   6.120   6.498   0.372
 1287WAT     H2 5869   6.221   6.491   0.465
 1287WAT    EPW 5870   6.145   6.486   0.446
 1288WAT      O 5871   6.551   5.723   0.430
 1288WAT     H1 5872   6.561   5.736   0.344
 1288WAT     H2 5873   6.633   5.717   0.459
 1288WAT    EPW 5874   6.565   5.724   0.421
 1289WAT      O 5875   7.467   6.529   0.178
 1289WAT     H1 5876   7.531   6.516   0.236
 1289WAT     H2 5877   7.433   6.450   0.166
 1289WAT    EPW 5878   7.472   6.515   0.185
 1290WAT      O 5879   7.487   5.771   1.851
 1290WAT     H1 5880   7.550   5.754   1.908
 1290WAT     H2 5881   7.528   5.811   1.786
 1290WAT    EPW 5882   7.502   5.774   1.850
 1291WAT      O 5883   7.075   6.155   0.410
 1291WAT     H1 5884   7.050   6.143   0.493
 1291WAT     H2 5885   7.043   6.086   0.368
 1291WAT    EPW 5886   7.066   6.143   0.416
 1292WAT      O 5887   7.549   5.227   1.925
 1292WAT     H1 5888   7.530   5.292   1.980
 1292WAT     H2 5889   7.477   5.178   1.924
 1292WAT    EPW 5890   7.536   5.229   1.933
 1293WAT      O 5891   7.539   5.321   1.222
 1293WAT     H1 5892   7.456   5.346   1.215
 1293WAT     H2 5893   7.534   5.237   1.245
 1293WAT    EPW 5894   7.526   5.313   1.224
 1294WAT      O 5895   6.465   5.020   1.741
 1294WAT     H1 5896   6.489   4.962   1.680
 1294WAT     H2 5897   6.381   5.002   1.755
 1294WAT    EPW 5898   6.456   5.009   1.734
 1295WAT      O 5899   7.228   5.782   1.987
 1295WAT     H1 5900   7.315   5.778   1.983
 1295WAT     H2 5901   7.206   5.824   1.913
 1295WAT    EPW 5902   7.238   5.787   1.975
 1296WAT      O 5903   6.203   6.364   1.105
 1296WAT     H1 5904   6.195   6.283   1.073
 1296WAT     H2 5905   6.159   6.413   1.047
 1296WAT    EPW 5906   6.196   6.360   1.092
 1297WAT      O 5907   6.763   5.976   0.353
 1297WAT     H1 5908   6.835   5.942   0.317
 1297WAT     H2 5909   6.760   6.056   0.318
 1297WAT    EPW 5910   6.773   5.983   0.343
 1298WAT      O 5911   5.960   6.589   1.463
 1298WAT     H1 5912   6.010   6.583   1.535
 1298WAT     H2 5913   5.979   6.515   1.419
 1298WAT    EPW 5914   5.971   6.577   1.467
 1299WAT      O 5915   6.904   2.993   6.379
 1299WAT     H1 5916   6.880   3.041   6.311
 1299WAT     H2 5917   6.991   2.985   6.369
 1299WAT    EPW 5918   6.913   2.999   6.368
 1300WAT      O 5919   6.885   3.684   6.846
 1300WAT     H1 5920   6.833   3.744   6.883
 1300WAT     H2 5921   6.925   3.647   6.915
 1300WAT    EPW 5922   6.883   3.688   6.862
 1301WAT      O 5923   5.872   4.098   6.392
 1301WAT     H1 5924   5.828   4.110   6.466
 1301WAT     H2 5925   5.844   4.021   6.363
 1301WAT    EPW 5926   5.861   4.088   6.399
 1302WAT      O 5927   7.500   4.428   6.143
 1302WAT     H1 5928   7.570   4.376   6.143
 1302WAT     H2 5929   7.441   4.384   6.097
 1302WAT    EPW 5930   7.501   4.414   6.136
 1303WAT      O 5931   5.846   3.477   6.043
 1303WAT     H1 5932   5.769   3.494   6.007
 1303WAT     H2 5933   5.850   3.390   6.045
 1303WAT    EPW 5934   5.835   3.467   6.038
 1304WAT      O 5935   6.160   4.004   5.910
 1304WAT     H1 5936   6.121   3.967   5.841
 1304WAT     H2 5937   6.152   3.944   5.973
 1304WAT    EPW 5938   6.153   3.989   5.909
 1305WAT      O 5939   7.152   3.791   6.514
 1305WAT     H1 5940   7.160   3.791   6.427
 1305WAT     H2 5941   7.094   3.728   6.529
 1305WAT    EPW 5942   7.145   3.782   6.503
 1306WAT      O 5943   6.123   4.168   6.300
 1306WAT     H1 5944   6.184   4.151   6.360
 1306WAT     H2 5945   6.048   4.154   6.342
 1306WAT    EPW 5946   6.121   4.163   6.315
 1307WAT      O 5947   6.551   3.101   6.295
 1307WAT     H1 5948   6.544   3.169   6.240
 1307WAT     H2 5949   6.625   3.062   6.270
 1307WAT    EPW 5950   6.561   3.106   6.283
 1308WAT      O 5951   6.012   4.477   5.908
 1308WAT     H1 5952   6.059   4.485   5.834
 1308WAT     H2 5953   6.058   4.419   5.954
 1308WAT    EPW 5954   6.026   4.470   5.904
 1309WAT      O 5955   5.866   4.372   7.017
 1309WAT     H1 5956   5.879   4.344   7.099
 1309WAT     H2 5957   5.805   4.318   6.987
 1309WAT    EPW 5958   5.859   4.360   7.025
 1310WAT      O 5959   6.523   4.124   7.524
 1310WAT     H1 5960   6.500   4.124   7.608
 1310WAT     H2 5961   6.449   4.109   7.482
 1310WAT    EPW 5962   6.509   4.122   7.530
 1311WAT      O 5963   6.011   3.824   6.438
 1311WAT     H1 5964   5.964   3.785   6.375
 1311WAT     H2 5965   6.081   3.772   6.447
 1311WAT    EPW 5966   6.014   3.810   6.430
 1312WAT      O 5967   6.461   3.385   6.972
 1312WAT     H1 5968   6.529   3.387   6.917
 1312WAT     H2 5969   6.457   3.301   6.997
 1312WAT    EPW 5970   6.471   3.373   6.968
 1313WAT      O 5971   6.522   4.443   7.250
 1313WAT     H1 5972   6.535   4.519   7.210
 1313WAT     H2 5973   6.601   4.407   7.253
 1313WAT    EPW 5974   6.535   4.449   7.245
 1314WAT      O 5975   6.211   3.634   6.440
 1314WAT     H1 5976   6.292   3.615   6.464
 1314WAT     H2 5977   6.163   3.572   6.480
 1314WAT    EPW 5978   6.216   3.622   6.449
 1315WAT      O 5979   6.631   4.232   6.701
 1315WAT     H1 5980   6.666   4.152   6.704
 1315WAT     H2 5981   6.698   4.282   6.675
 1315WAT    EPW 5982   6.646   4.227   6.698
 1316WAT      O 5983   6.637   4.177   6.322
 1316WAT     H1 5984   6.670   4.112   6.371
 1316WAT     H2 5985   6.661   4.156   6.241
 1316WAT    EPW 5986   6.645   4.164   6.317
 1317WAT      O 5987   6.834   3.590   7.456
 1317WAT     H1 5988   6.749   3.580   7.438
 1317WAT     H2 5989   6.837   3.664   7.501
 1317WAT    EPW 5990   6.822   3.599   7.460
 1318WAT      O 5991   6.270   3.143   6.367
 1318WAT     H1 5992   6.241   3.193   6.302
 1318WAT     H2 5993   6.357   3.151   6.361
 1318WAT    EPW 5994   6.279   3.152   6.356
 1319WAT      O 5995   7.289   2.886   7.367
 1319WAT     H1 5996   7.274   2.963   7.329
 1319WAT     H2 5997   7.212   2.864   7.402
 1319WAT    EPW 5998   7.276   2.894   7.367
 1320WAT      O 5999   6.568   3.057   6.589
 1320WAT     H1 6000   6.576   3.143   6.602
 1320WAT     H2 6001   6.565   3.050   6.502
 1320WAT    EPW 6002   6.569   3.069   6.578
 1321WAT      O 6003   7.036   3.350   5.819
 1321WAT     H1 6004   6.991   3.418   5.849
 1321WAT     H2 6005   7.047   3.300   5.889
 1321WAT    EPW 6006   7.031   3.353   5.834
 1322WAT      O 6007   5.856   3.600   6.739
 1322WAT     H1 6008   5.831   3.683   6.731
 1322WAT     H2 6009   5.790   3.562   6.781
 1322WAT    EPW 6010   5.843   3.606   6.744
 1323WAT      O 6011   5.847   4.571   6.529
 1323WAT     H1 6012   5.788   4.627   6.498
 1323WAT     H2 6013   5.890   4.544   6.458
 1323WAT    EPW 6014   5.845   4.575   6.514
 1324WAT      O 6015   6.431   4.355   6.277
 1324WAT     H1 6016   6.373   4.328   6.336
 1324WAT     H2 6017   6.494   4.294   6.279
 1324WAT    EPW 6018   6.432   4.342   6.286
 1325WAT      O 6019   7.046   4.584   6.029
 1325WAT     H1 6020   7.118   4.631   6.039
 1325WAT     H2 6021   7.068   4.505   6.057
 1325WAT    EPW 6022   7.060   4.579   6.035
 1326WAT      O 6023   6.862   4.623   6.228
 1326WAT     H1 6024   6.884   4.676   6.294
 1326WAT     H2 6025   6.939   4.606   6.190
 1326WAT    EPW 6026   6.877   4.628   6.232
 1327WAT      O 6027   6.159   3.082   6.788
 1327WAT     H1 6028   6.107   3.019   6.757
 1327WAT     H2 6029   6.218   3.038   6.835
 1327WAT    EPW 6030   6.160   3.066   6.790
 1328WAT      O 6031   6.002   4.438   6.322
 1328WAT     H1 6032   6.067   4.380   6.324
 1328WAT     H2 6033   6.041   4.513   6.300
 1328WAT    EPW 6034   6.017   4.440   6.319
 1329WAT      O 6035   7.575   3.347   6.448
 1329WAT     H1 6036   7.540   3.415   6.491
 1329WAT     H2 6037   7.511   3.287   6.450
 1329WAT    EPW 6038   7.561   3.348   6.455
 1330WAT      O 6039   7.106   4.624   7.059
 1330WAT     H1 6040   7.181   4.670   7.058
 1330WAT     H2 6041   7.094   4.603   6.975
 1330WAT    EPW 6042   7.115   4.628   7.046
 1331WAT      O 6043   6.063   3.255   7.616
 1331WAT     H1 6044   5.985   3.216   7.609
 1331WAT     H2 6045   6.112   3.213   7.557
 1331WAT    EPW 6046   6.059   3.243   7.606
 1332WAT      O 6047   6.084   4.287   6.672
 1332WAT     H1 6048   6.126   4.251   6.605
 1332WAT     H2 6049   6.116   4.244   6.741
 1332WAT    EPW 6050   6.095   4.275   6.672
 1333WAT      O 6051   6.407   4.572   6.602
 1333WAT     H1 6052   6.491   4.582   6.582
 1333WAT     H2 6053   6.377   4.654   6.608
 1333WAT    EPW 6054   6.415   4.585   6.600
 1334WAT      O 6055   6.728   3.019   7.533
 1334WAT     H1 6056   6.746   2.938   7.506
 1334WAT     H2 6057   6.714   3.063   7.459
 1334WAT    EPW 6058   6.728   3.013   7.518
 1335WAT      O 6059   6.787   3.511   6.410
 1335WAT     H1 6060   6.816   3.488   6.331
 1335WAT     H2 6061   6.861   3.519   6.457
 1335WAT    EPW 6062   6.802   3.509   6.406
 1336WAT      O 6063   6.860   3.545   5.922
 1336WAT     H1 6064   6.888   3.624   5.947
 1336WAT     H2 6065   6.782   3.562   5.886
 1336WAT    EPW 6066   6.852   3.559   5.921
 1337WAT      O 6067   7.264   4.743   6.069
 1337WAT     H1 6068   7.330   4.728   6.015
 1337WAT     H2 6069   7.300   4.734   6.148
 1337WAT    EPW 6070   7.279   4.739   6.073
 1338WAT      O 6071   6.306   4.694   7.176
 1338WAT     H1 6072   6.336   4.687   7.258
 1338WAT     H2 6073   6.244   4.633   7.171
 1338WAT    EPW 6074   6.302   4.684   7.187
 1339WAT      O 6075   5.798   3.309   7.375
 1339WAT     H1 6076   5.797   3.368   7.439
 1339WAT     H2 6077   5.857   3.341   7.319
 1339WAT    EPW 6078   5.807   3.323   7.376
 1340WAT      O 6079   7.032   4.343   7.429
 1340WAT     H1 6080   7.028   4.381   7.507
 1340WAT     H2 6081   7.117   4.339   7.412
 1340WAT    EPW 6082   7.044   4.348   7.438
 1341WAT      O 6083   6.745   4.362   5.904
 1341WAT     H1 6084   6.727   4.417   5.970
 1341WAT     H2 6085   6.822   4.391   5.874
 1341WAT    EPW 6086   6.754   4.375   5.909
 1342WAT      O 6087   7.096   3.152   6.009
 1342WAT     H1 6088   7.150   3.084   6.017
 1342WAT     H2 6089   7.102   3.192   6.087
 1342WAT    EPW 6090   7.105   3.148   6.022
 1343WAT      O 6091   5.892   3.269   6.266
 1343WAT     H1 6092   5.880   3.182   6.269
 1343WAT     H2 6093   5.844   3.298   6.333
 1343WAT    EPW 6094   5.883   3.260   6.277
 1344WAT      O 6095   6.106   4.510   7.088
 1344WAT     H1 6096   6.036   4.459   7.100
 1344WAT     H2 6097   6.132   4.489   7.007
 1344WAT    EPW 6098   6.099   4.499   7.078
 1345WAT      O 6099   6.822   3.390   6.141
 1345WAT     H1 6100   6.771   3.323   6.115
 1345WAT     H2 6101   6.827   3.440   6.070
 1345WAT    EPW 6102   6.815   3.387   6.127
 1346WAT      O 6103   6.877   4.659   7.179
 1346WAT     H1 6104   6.954   4.651   7.138
 1346WAT     H2 6105   6.819   4.647   7.115
 1346WAT    EPW 6106   6.880   4.656   7.163
 1347WAT      O 6107   6.822   3.084   6.130
 1347WAT     H1 6108   6.776   3.044   6.067
 1347WAT     H2 6109   6.899   3.099   6.092
 1347WAT    EPW 6110   6.827   3.080   6.115
 1348WAT      O 6111   7.505   4.719   6.469
 1348WAT     H1 6112   7.459   4.791   6.489
 1348WAT     H2 6113   7.443   4.662   6.445
 1348WAT    EPW 6114   7.489   4.722   6.468
 1349WAT      O 6115   6.682   3.320   6.582
 1349WAT     H1 6116   6.689   3.377   6.516
 1349WAT     H2 6117   6.694   3.370   6.653
 1349WAT    EPW 6118   6.685   3.336   6.583
 1350WAT      O 6119   7.204   4.304   6.423
 1350WAT     H1 6120   7.274   4.256   6.442
 1350WAT     H2 6121   7.138   4.247   6.428
 1350WAT    EPW 6122   7.205   4.288   6.427
 1351WAT      O 6123   6.242   4.395   7.345
 1351WAT     H1 6124   6.326   4.401   7.322
 1351WAT     H2 6125   6.238   4.435   7.422
 1351WAT    EPW 6126   6.254   4.402   7.353
 1352WAT      O 6127   6.143   2.903   6.417
 1352WAT     H1 6128   6.196   2.972   6.416
 1352WAT     H2 6129   6.143   2.875   6.334
 1352WAT    EPW 6130   6.150   2.909   6.405
 1353WAT      O 6131   6.438   3.946   6.819
 1353WAT     H1 6132   6.455   3.925   6.902
 1353WAT     H2 6133   6.373   3.893   6.798
 1353WAT    EPW 6134   6.431   3.935   6.829
 1354WAT      O 6135   7.061   3.337   7.171
 1354WAT     H1 6136   7.051   3.369   7.252
 1354WAT     H2 6137   7.002   3.274   7.167
 1354WAT    EPW 6138   7.051   3.333   7.182
 1355WAT      O 6139   6.513   3.940   7.078
 1355WAT     H1 6140   6.518   4.025   7.099
 1355WAT     H2 6141   6.485   3.903   7.152
 1355WAT    EPW 6142   6.510   3.947   7.092
 1356WAT      O 6143   7.131   4.009   6.991
 1356WAT     H1 6144   7.079   3.968   7.049
 1356WAT     H2 6145   7.118   4.094   7.010
 1356WAT    EPW 6146   7.121   4.016   7.003
 1357WAT      O 6147   7.187   2.932   6.455
 1357WAT     H1 6148   7.191   2.900   6.536
 1357WAT     H2 6149   7.219   2.867   6.405
 1357WAT    EPW 6150   7.192   2.918   6.459
 1358WAT      O 6151   7.433   3.355   7.285
 1358WAT     H1 6152   7.510   3.333   7.319
 1358WAT     H2 6153   7.385   3.377   7.355
 1358WAT    EPW 6154   7.437   3.355   7.301
 1359WAT      O 6155   6.187   3.284   6.582
 1359WAT     H1 6156   6.215   3.241   6.512
 1359WAT     H2 6157   6.170   3.220   6.639
 1359WAT    EPW 6158   6.189   3.268   6.580
 1360WAT      O 6159   7.456   4.053   6.004
 1360WAT     H1 6160   7.468   4.025   6.086
 1360WAT     H2 6161   7.537   4.055   5.971
 1360WAT    EPW 6162   7.470   4.049   6.011
 1361WAT      O 6163   6.170   4.026   6.537
 1361WAT     H1 6164   6.255   4.018   6.520
 1361WAT     H2 6165   6.134   3.958   6.496
 1361WAT    EPW 6166   6.177   4.015   6.529
 1362WAT      O 6167   6.046   4.699   6.661
 1362WAT     H1 6168   5.979   4.649   6.636
 1362WAT     H2 6169   6.087   4.717   6.586
 1362WAT    EPW 6170   6.042   4.694   6.646
 1363WAT      O 6171   6.001   3.394   6.891
 1363WAT     H1 6172   6.086   3.416   6.886
 1363WAT     H2 6173   5.963   3.451   6.837
 1363WAT    EPW 6174   6.008   3.406   6.882
 1364WAT      O 6175   7.246   3.707   5.963
 1364WAT     H1 6176   7.224   3.780   5.920
 1364WAT     H2 6177   7.201   3.712   6.037
 1364WAT    EPW 6178   7.236   3.718   5.967
 1365WAT      O 6179   6.407   4.027   6.361
 1365WAT     H1 6180   6.478   4.077   6.370
 1365WAT     H2 6181   6.429   3.970   6.298
 1365WAT    EPW 6182   6.420   4.026   6.353
 1366WAT      O 6183   5.822   4.191   6.693
 1366WAT     H1 6184   5.755   4.240   6.720
 1366WAT     H2 6185   5.890   4.246   6.696
 1366WAT    EPW 6186   5.822   4.207   6.697
 1367WAT      O 6187   5.829   3.860   6.203
 1367WAT     H1 6188   5.810   3.776   6.218
 1367WAT     H2 6189   5.895   3.856   6.146
 1367WAT    EPW 6190   5.836   3.847   6.197
 1368WAT      O 6191   7.465   3.149   6.136
 1368WAT     H1 6192   7.539   3.108   6.156
 1368WAT     H2 6193   7.491   3.220   6.093
 1368WAT    EPW 6194   7.479   3.153   6.133
 1369WAT      O 6195   6.859   4.397   6.593
 1369WAT     H1 6196   6.807   4.461   6.564
 1369WAT     H2 6197   6.890   4.361   6.521
 1369WAT    EPW 6198   6.856   4.401   6.578
 1370WAT      O 6199   5.846   4.276   6.161
 1370WAT     H1 6200   5.901   4.333   6.197
 1370WAT     H2 6201   5.823   4.225   6.227
 1370WAT    EPW 6202   5.851   4.277   6.176
 1371WAT      O 6203   6.266   4.176   6.869
 1371WAT     H1 6204   6.313   4.205   6.937
 1371WAT     H2 6205   6.324   4.128   6.824
 1371WAT    EPW 6206   6.282   4.173   6.873
 1372WAT      O 6207   7.110   3.378   6.643
 1372WAT     H1 6208   7.144   3.393   6.722
 1372WAT     H2 6209   7.065   3.304   6.654
 1372WAT    EPW 6210   7.108   3.369   6.656
 1373WAT      O 6211   5.829   4.121   5.923
 1373WAT     H1 6212   5.905   4.078   5.929
 1373WAT     H2 6213   5.830   4.174   5.992
 1373WAT    EPW 6214   5.840   4.123   5.934
 1374WAT      O 6215   5.923   3.943   6.724
 1374WAT     H1 6216   5.966   3.930   6.649
 1374WAT     H2 6217   5.902   4.028   6.721
 1374WAT    EPW 6218   5.926   3.954   6.712
 1375WAT      O 6219   6.558   3.300   6.089
 1375WAT     H1 6220   6.557   3.288   6.002
 1375WAT     H2 6221   6.539   3.384   6.098
 1375WAT    EPW 6222   6.555   3.310   6.077
 1376WAT      O 6223   7.463   4.542   7.239
 1376WAT     H1 6224   7.396   4.594   7.260
 1376WAT     H2 6225   7.469   4.552   7.152
 1376WAT    EPW 6226   7.454   4.551   7.229
 1377WAT      O 6227   6.331   4.295   6.552
 1377WAT     H1 6228   6.344   4.379   6.571
 1377WAT     H2 6229   6.398   4.255   6.592
 1377WAT    EPW 6230   6.343   4.301   6.561
 1378WAT      O 6231   6.144   3.643   7.538
 1378WAT     H1 6232   6.091   3.593   7.585
 1378WAT     H2 6233   6.146   3.604   7.460
 1378WAT    EPW 6234   6.137   3.630   7.534
 1379WAT      O 6235   6.193   3.583   6.052
 1379WAT     H1 6236   6.180   3.538   6.126
 1379WAT     H2 6237   6.135   3.549   5.997
 1379WAT    EPW 6238   6.182   3.571   6.055
 1380WAT      O 6239   6.210   3.766   6.712
 1380WAT     H1 6240   6.131   3.760   6.674
 1380WAT     H2 6241   6.217   3.691   6.756
 1380WAT    EPW 6242   6.199   3.754   6.713
 1381WAT      O 6243   6.253   3.740   7.059
 1381WAT     H1 6244   6.255   3.672   7.004
 1381WAT     H2 6245   6.188   3.789   7.028
 1381WAT    EPW 6246   6.243   3.737   7.046
 1382WAT      O 6247   7.242   3.511   6.899
 1382WAT     H1 6248   7.176   3.544   6.945
 1382WAT     H2 6249   7.261   3.574   6.842
 1382WAT    EPW 6250   7.235   3.525   6.897
 1383WAT      O 6251   6.663   4.617   6.998
 1383WAT     H1 6252   6.635   4.553   6.946
 1383WAT     H2 6253   6.642   4.690   6.954
 1383WAT    EPW 6254   6.655   4.619   6.984
 1384WAT      O 6255   6.907   3.101   7.241
 1384WAT     H1 6256   6.921   3.019   7.217
 1384WAT     H2 6257   6.944   3.107   7.320
 1384WAT    EPW 6258   6.914   3.090   7.249
 1385WAT      O 6259   7.061   3.308   6.250
 1385WAT     H1 6260   7.110   3.379   6.242
 1385WAT     H2 6261   6.982   3.334   6.223
 1385WAT    EPW 6262   7.057   3.322   6.245
 1386WAT      O 6263   6.032   3.875   7.615
 1386WAT     H1 6264   6.029   3.925   7.543
 1386WAT     H2 6265   6.066   3.800   7.585
 1386WAT    EPW 6266   6.037   3.871   7.600
 1387WAT      O 6267   7.193   4.096   7.441
 1387WAT     H1 6268   7.241   4.167   7.450
 1387WAT     H2 6269   7.232   4.053   7.376
 1387WAT    EPW 6270   7.206   4.100   7.432
 1388WAT      O 6271   6.622   4.380   7.558
 1388WAT     H1 6272   6.658   4.362   7.636
 1388WAT     H2 6273   6.579   4.307   7.538
 1388WAT    EPW 6274   6.621   4.367   7.567
 1389WAT      O 6275   6.720   3.455   6.822
 1389WAT     H1 6276   6.768   3.525   6.843
 1389WAT     H2 6277   6.757   3.390   6.867
 1389WAT    EPW 6278   6.732   3.456   6.832
 1390WAT      O 6279   6.938   3.772   6.050
 1390WAT     H1 6280   6.938   3.844   6.001
 1390WAT     H2 6281   6.875   3.785   6.107
 1390WAT    EPW 6282   6.929   3.784   6.051
 1391WAT      O 6283   7.436   4.159   6.448
 1391WAT     H1 6284   7.471   4.124   6.519
 1391WAT     H2 6285   7.435   4.093   6.391
 1391WAT    EPW 6286   7.441   4.144   6.450
 1392WAT      O 6287   7.040   4.465   6.832
 1392WAT     H1 6288   6.980   4.436   6.776
 1392WAT     H2 6289   7.095   4.510   6.781
 1392WAT    EPW 6290   7.039   4.468   6.816
 1393WAT      O 6291   7.041   4.150   6.772
 1393WAT     H1 6292   6.962   4.173   6.799
 1393WAT     H2 6293   7.067   4.091   6.831
 1393WAT    EPW 6294   7.033   4.145   6.785
 1394WAT      O 6295   6.431   4.632   6.217
 1394WAT     H1 6296   6.416   4.554   6.254
 1394WAT     H2 6297   6.500   4.617   6.165
 1394WAT    EPW 6298   6.439   4.618   6.215
 1395WAT      O 6299   6.398   3.006   6.016
 1395WAT     H1 6300   6.407   2.995   6.102
 1395WAT     H2 6301   6.327   3.056   6.009
 1395WAT    EPW 6302   6.389   3.012   6.027
 1396WAT      O 6303   6.660   4.583   6.057
 1396WAT     H1 6304   6.722   4.599   6.116
 1396WAT     H2 6305   6.663   4.652   6.004
 1396WAT    EPW 6306   6.670   4.596   6.058
 1397WAT      O 6307   7.367   3.950   7.257
 1397WAT     H1 6308   7.373   3.963   7.170
 1397WAT     H2 6309   7.443   3.982   7.287
 1397WAT    EPW 6310   7.379   3.957   7.248
 1398WAT      O 6311   7.471   2.980   7.555
 1398WAT     H1 6312   7.407   2.940   7.511
 1398WAT     H2 6313   7.473   2.937   7.631
 1398WAT    EPW 6314   7.462   2.968   7.560
 1399WAT      O 6315   6.110   3.837   6.140
 1399WAT     H1 6316   6.142   3.759   6.118
 1399WAT     H2 6317   6.175   3.873   6.185
 1399WAT    EPW 6318   6.124   3.830   6.143
 1400WAT      O 6319   6.941   3.931   7.217
 1400WAT     H1 6320   6.925   3.992   7.277
 1400WAT     H2 6321   6.994   3.875   7.257
 1400WAT    EPW 6322   6.946   3.932   7.232
 1401WAT      O 6323   5.810   3.003   6.237
 1401WAT     H1 6324   5.823   2.932   6.188
 1401WAT     H2 6325   5.773   2.971   6.309
 1401WAT    EPW 6326   5.806   2.987   6.240
 1402WAT      O 6327   6.779   3.771   6.282
 1402WAT     H1 6328   6.785   3.836   6.340
 1402WAT     H2 6329   6.760   3.701   6.332
 1402WAT    EPW 6330   6.777   3.770   6.298
 1403WAT      O 6331   7.302   4.204   6.869
 1403WAT     H1 6332   7.254   4.233   6.803
 1403WAT     H2 6333   7.266   4.126   6.887
 1403WAT    EPW 6334   7.289   4.197   6.862
 1404WAT      O 6335   6.229   3.222   5.934
 1404WAT     H1 6336   6.177   3.228   5.863
 1404WAT     H2 6337   6.307   3.246   5.904
 1404WAT    EPW 6338   6.233   3.227   5.919
 1405WAT      O 6339   6.701   3.975   6.726
 1405WAT     H1 6340   6.617   3.956   6.734
 1405WAT     H2 6341   6.734   3.959   6.805
 1405WAT    EPW 6342   6.693   3.970   6.738
 1406WAT      O 6343   6.376   4.648   5.814
 1406WAT     H1 6344   6.420   4.579   5.843
 1406WAT     H2 6345   6.397   4.711   5.871
 1406WAT    EPW 6346   6.386   4.647   5.827
 1407WAT      O 6347   6.086   3.945   6.957
 1407WAT     H1 6348   6.158   3.994   6.953
 1407WAT     H2 6349   6.059   3.942   6.874
 1407WAT    EPW 6350   6.093   3.952   6.944
 1408WAT      O 6351   6.409   3.462   6.631
 1408WAT     H1 6352   6.494   3.443   6.640
 1408WAT     H2 6353   6.372   3.384   6.617
 1408WAT    EPW 6354   6.416   3.448   6.630
 1409WAT      O 6355   5.891   3.596   6.296
 1409WAT     H1 6356   5.940   3.566   6.362
 1409WAT     H2 6357   5.904   3.536   6.233
 1409WAT    EPW 6358   5.900   3.583   6.297
 1410WAT      O 6359   7.395   3.898   6.981
 1410WAT     H1 6360   7.394   3.820   7.021
 1410WAT     H2 6361   7.311   3.921   6.981
 1410WAT    EPW 6362   7.382   3.890   6.987
 1411WAT      O 6363   6.344   3.739   5.845
 1411WAT     H1 6364   6.283   3.699   5.892
 1411WAT     H2 6365   6.305   3.751   5.767
 1411WAT    EPW 6366   6.329   3.735   5.840
 1412WAT      O 6367   6.026   4.050   7.385
 1412WAT     H1 6368   5.983   3.998   7.329
 1412WAT     H2 6369   5.990   4.129   7.371
 1412WAT    EPW 6370   6.014   4.054   7.375
 1413WAT      O 6371   6.489   3.585   6.116
 1413WAT     H1 6372   6.516   3.668   6.122
 1413WAT     H2 6373   6.403   3.593   6.106
 1413WAT    EPW 6374   6.480   3.598   6.115
 1414WAT      O 6375   7.286   3.297   7.579
 1414WAT     H1 6376   7.234   3.343   7.631
 1414WAT     H2 6377   7.250   3.218   7.578
 1414WAT    EPW 6378   7.273   3.292   7.587
 1415WAT      O 6379   5.837   3.182   6.769
 1415WAT     H1 6380   5.842   3.217   6.689
 1415WAT     H2 6381   5.913   3.206   6.806
 1415WAT    EPW 6382   5.849   3.191   6.763
 1416WAT      O 6383   7.136   3.654   7.587
 1416WAT     H1 6384   7.143   3.665   7.673
 1416WAT     H2 6385   7.072   3.710   7.564
 1416WAT    EPW 6386   7.127   3.664   7.596
 1417WAT      O 6387   7.362   3.686   7.423
 1417WAT     H1 6388   7.394   3.765   7.443
 1417WAT     H2 6389   7.325   3.659   7.497
 1417WAT    EPW 6390   7.362   3.694   7.437
 1418WAT      O 6391   7.294   4.329   5.976
 1418WAT     H1 6392   7.327   4.248   5.980
 1418WAT     H2 6393   7.218   4.321   6.019
 1418WAT    EPW 6394   7.288   4.316   5.983
 1419WAT      O 6395   7.342   3.512   6.542
 1419WAT     H1 6396   7.268   3.480   6.574
 1419WAT     H2 6397   7.342   3.595   6.570
 1419WAT    EPW 6398   7.331   3.519   6.551
 1420WAT      O 6399   7.031   4.116   5.916
 1420WAT     H1 6400   7.100   4.065   5.899
 1420WAT     H2 6401   6.990   4.121   5.840
 1420WAT    EPW 6402   7.035   4.109   5.903
 1421WAT      O 6403   6.499   4.231   7.047
 1421WAT     H1 6404   6.470   4.290   7.103
 1421WAT     H2 6405   6.505   4.275   6.972
 1421WAT    EPW 6406   6.496   4.246   7.044
 1422WAT      O 6407   6.297   4.126   7.387
 1422WAT     H1 6408   6.217   4.097   7.403
 1422WAT     H2 6409   6.288   4.213   7.387
 1422WAT    EPW 6410   6.284   4.135   7.389
 1423WAT      O 6411   7.233   3.145   7.288
 1423WAT     H1 6412   7.308   3.190   7.282
 1423WAT     H2 6413   7.177   3.192   7.241
 1423WAT    EPW 6414   7.236   3.159   7.280
 1424WAT      O 6415   6.751   3.873   6.996
 1424WAT     H1 6416   6.799   3.911   7.059
 1424WAT     H2 6417   6.669   3.887   7.022
 1424WAT    EPW 6418   6.746   3.881   7.009
 1425WAT      O 6419   6.422   3.434   7.270
 1425WAT     H1 6420   6.438   3.359   7.313
 1425WAT     H2 6421   6.418   3.409   7.186
 1425WAT    EPW 6422   6.424   3.419   7.264
 1426WAT      O 6423   6.677   4.613   6.519
 1426WAT     H1 6424   6.732   4.681   6.524
 1426WAT     H2 6425   6.642   4.621   6.439
 1426WAT    EPW 6426   6.680   4.624   6.508
 1427WAT      O 6427   7.362   2.943   7.055
 1427WAT     H1 6428   7.334   3.025   7.051
 1427WAT     H2 6429   7.433   2.948   7.105
 1427WAT    EPW 6430   7.368   2.956   7.062
 1428WAT      O 6431   6.597   3.014   7.258
 1428WAT     H1 6432   6.668   3.046   7.218
 1428WAT     H2 6433   6.621   2.934   7.281
 1428WAT    EPW 6434   6.611   3.007   7.255
 1429WAT      O 6435   6.496   4.435   6.858
 1429WAT     H1 6436   6.433   4.494   6.839
 1429WAT     H2 6437   6.521   4.407   6.779
 1429WAT    EPW 6438   6.490   4.440   6.843
 1430WAT      O 6439   6.927   4.099   7.556
 1430WAT     H1 6440   7.002   4.127   7.524
 1430WAT     H2 6441   6.872   4.104   7.489
 1430WAT    EPW 6442   6.930   4.104   7.542
 1431WAT      O 6443   7.318   4.354   7.407
 1431WAT     H1 6444   7.352   4.381   7.482
 1431WAT     H2 6445   7.347   4.412   7.349
 1431WAT    EPW 6446   7.327   4.366   7.409
 1432WAT      O 6447   7.504   3.568   5.941
 1432WAT     H1 6448   7.542   3.636   5.901
 1432WAT     H2 6449   7.420   3.591   5.944
 1432WAT    EPW 6450   7.497   3.582   5.935
 1433WAT      O 6451   6.655   3.913   5.849
 1433WAT     H1 6452   6.575   3.895   5.821
 1433WAT     H2 6453   6.652   3.998   5.868
 1433WAT    EPW 6454   6.643   3.923   5.848
 1434WAT      O 6455   6.248   3.520   6.864
 1434WAT     H1 6456   6.292   3.509   6.789
 1434WAT     H2 6457   6.303   3.488   6.925
 1434WAT    EPW 6458   6.263   3.514   6.862
 1435WAT      O 6459   7.050   3.430   7.423
 1435WAT     H1 6460   6.985   3.477   7.458
 1435WAT     H2 6461   7.106   3.421   7.489
 1435WAT    EPW 6462   7.049   3.436   7.438
 1436WAT      O 6463   7.019   3.584   7.053
 1436WAT     H1 6464   7.049   3.626   7.123
 1436WAT     H2 6465   7.022   3.500   7.076
 1436WAT    EPW 6466   7.024   3.577   7.067
 1437WAT      O 6467   6.761   4.600   7.446
 1437WAT     H1 6468   6.809   4.540   7.404
 1437WAT     H2 6469   6.726   4.556   7.512
 1437WAT    EPW 6470   6.763   4.585   7.449
 1438WAT      O 6471   7.273   3.528   6.278
 1438WAT     H1 6472   7.294   3.508   6.361
 1438WAT     H2 6473   7.349   3.555   6.244
 1438WAT    EPW 6474   7.288   3.529   6.285
 1439WAT      O 6475   6.603   3.018   6.869
 1439WAT     H1 6476   6.520   3.003   6.892
 1439WAT     H2 6477   6.599   3.022   6.782
 1439WAT    EPW 6478   6.590   3.017   6.859
 1440WAT      O 6479   7.376   3.137   6.426
 1440WAT     H1 6480   7.304   3.090   6.443
 1440WAT     H2 6481   7.359   3.171   6.347
 1440WAT    EPW 6482   7.363   3.135   6.417
 1441WAT      O 6483   7.420   3.931   6.264
 1441WAT     H1 6484   7.467   3.858   6.259
 1441WAT     H2 6485   7.338   3.902   6.256
 1441WAT    EPW 6486   7.415   3.916   6.262
 1442WAT      O 6487   6.767   4.122   7.348
 1442WAT     H1 6488   6.687   4.116   7.383
 1442WAT     H2 6489   6.774   4.207   7.328
 1442WAT    EPW 6490   6.756   4.134   7.350
 1443WAT      O 6491   5.859   3.058   7.472
 1443WAT     H1 6492   5.845   3.138   7.439
 1443WAT     H2 6493   5.781   3.034   7.501
 1443WAT    EPW 6494   5.846   3.066   7.472
 1444WAT      O 6495   6.350   4.743   6.879
 1444WAT     H1 6496   6.351   4.749   6.966
 1444WAT     H2 6497   6.307   4.668   6.864
 1444WAT    EPW 6498   6.344   4.733   6.890
 1445WAT      O 6499   6.166   3.332   6.195
 1445WAT     H1 6500   6.178   3.300   6.115
 1445WAT     H2 6501   6.085   3.308   6.215
 1445WAT    EPW 6502   6.156   3.324   6.186
 1446WAT      O 6503   7.041   4.048   6.499
 1446WAT     H1 6504   7.049   4.082   6.579
 1446WAT     H2 6505   7.058   3.963   6.511
 1446WAT    EPW 6506   7.045   4.040   6.513
 1447WAT      O 6507   6.794   3.975   6.456
 1447WAT     H1 6508   6.764   3.944   6.531
 1447WAT     H2 6509   6.863   4.022   6.479
 1447WAT    EPW 6510   6.800   3.977   6.470
 1448WAT      O 6511   6.816   4.387   7.258
 1448WAT     H1 6512   6.885   4.376   7.311
 1448WAT     H2 6513   6.829   4.466   7.224
 1448WAT    EPW 6514   6.828   4.397   7.261
 1449WAT      O 6515   7.085   3.714   7.297
 1449WAT     H1 6516   7.059   3.642   7.339
 1449WAT     H2 6517   7.167   3.726   7.324
 1449WAT    EPW 6518   7.093   3.705   7.307
 1450WAT      O 6519   6.026   4.693   7.423
 1450WAT     H1 6520   5.961   4.636   7.433
 1450WAT     H2 6521   5.989   4.770   7.439
 1450WAT    EPW 6522   6.011   4.696   7.427
 1451WAT      O 6523   6.878   3.833   7.616
 1451WAT     H1 6524   6.910   3.902   7.573
 1451WAT     H2 6525   6.808   3.866   7.656
 1451WAT    EPW 6526   6.872   3.848   7.615
 1452WAT      O 6527   7.187   4.671   6.709
 1452WAT     H1 6528   7.141   4.735   6.747
 1452WAT     H2 6529   7.257   4.663   6.759
 1452WAT    EPW 6530   7.190   4.679   6.722
 1453WAT      O 6531   6.857   4.180   7.002
 1453WAT     H1 6532   6.787   4.220   7.036
 1453WAT     H2 6533   6.924   4.223   7.036
 1453WAT    EPW 6534   6.856   4.192   7.012
 1454WAT      O 6535   6.163   3.534   7.236
 1454WAT     H1 6536   6.201   3.595   7.188
 1454WAT     H2 6537   6.231   3.486   7.265
 1454WAT    EPW 6538   6.179   3.536   7.233
 1455WAT      O 6539   5.941   3.378   7.164
 1455WAT     H1 6540   5.949   3.361   7.079
 1455WAT     H2 6541   6.016   3.419   7.184
 1455WAT    EPW 6542   5.953   3.382   7.154
 1456WAT      O 6543   7.497   3.642   6.208
 1456WAT     H1 6544   7.507   3.637   6.121
 1456WAT     H2 6545   7.571   3.609   6.240
 1456WAT    EPW 6546   7.509   3.637   6.200
 1457WAT      O 6547   6.196   3.119   7.405
 1457WAT     H1 6548   6.188   3.035   7.426
 1457WAT     H2 6549   6.165   3.124   7.324
 1457WAT    EPW 6550   6.191   3.108   7.396
 1458WAT      O 6551   6.889   4.339   6.319
 1458WAT     H1 6552   6.868   4.422   6.303
 1458WAT     H2 6553   6.811   4.301   6.331
 1458WAT    EPW 6554   6.874   4.346   6.318
 1459WAT      O 6555   7.407   3.657   7.143
 1459WAT     H1 6556   7.407   3.571   7.156
 1459WAT     H2 6557   7.414   3.689   7.224
 1459WAT    EPW 6558   7.408   3.649   7.157
 1460WAT      O 6559   5.881   3.901   7.186
 1460WAT     H1 6560   5.913   3.923   7.108
 1460WAT     H2 6561   5.871   3.814   7.181
 1460WAT    EPW 6562   5.884   3.891   7.174
 1461WAT      O 6563   6.026   3.495   5.848
 1461WAT     H1 6564   5.959   3.496   5.904
 1461WAT     H2 6565   6.036   3.410   5.830
 1461WAT    EPW 6566   6.018   3.482   5.854
 1462WAT      O 6567   6.995   3.137   7.522
 1462WAT     H1 6568   7.004   3.208   7.571
 1462WAT     H2 6569   6.931   3.092   7.561
 1462WAT    EPW 6570   6.987   3.141   7.535
 1463WAT      O 6571   6.894   3.156   6.607
 1463WAT     H1 6572   6.824   3.208   6.601
 1463WAT     H2 6573   6.898   3.118   6.529
 1463WAT    EPW 6574   6.885   3.158   6.595
 1464WAT      O 6575   6.425   4.365   5.959
 1464WAT     H1 6576   6.469   4.373   6.034
 1464WAT     H2 6577   6.345   4.343   5.985
 1464WAT    EPW 6578   6.420   4.363   5.974
 1465WAT      O 6579   7.254   3.208   6.887
 1465WAT     H1 6580   7.340   3.217   6.902
 1465WAT     H2 6581   7.217   3.263   6.944
 1465WAT    EPW 6582   7.261   3.217   6.898
 1466WAT      O 6583   6.357   3.830   7.325
 1466WAT     H1 6584   6.317   3.908   7.332
 1466WAT     H2 6585   6.316   3.793   7.257
 1466WAT    EPW 6586   6.345   3.836   7.316
 1467WAT      O 6587   7.285   3.736   6.736
 1467WAT     H1 6588   7.351   3.790   6.752
 1467WAT     H2 6589   7.250   3.767   6.662
 1467WAT    EPW 6590   7.289   3.748   6.728
 1468WAT      O 6591   7.316   4.542   6.317
 1468WAT     H1 6592   7.298   4.477   6.372
 1468WAT     H2 6593   7.387   4.515   6.275
 1468WAT    EPW 6594   7.324   4.528   6.319
 1469WAT      O 6595   6.158   4.272   6.020
 1469WAT     H1 6596   6.134   4.241   6.098
 1469WAT     H2 6597   6.155   4.202   5.968
 1469WAT    EPW 6598   6.154   4.257   6.023
 1470WAT      O 6599   6.440   4.097   5.894
 1470WAT     H1 6600   6.358   4.070   5.908
 1470WAT     H2 6601   6.437   4.182   5.912
 1470WAT    EPW 6602   6.427   4.105   5.899
 1471WAT      O 6603   6.400   3.128   7.070
 1471WAT     H1 6604   6.313   3.136   7.078
 1471WAT     H2 6605   6.422   3.076   7.137
 1471WAT    EPW 6606   6.390   3.122   7.081
 1472WAT      O 6607   6.810   3.203   6.907
 1472WAT     H1 6608   6.736   3.157   6.918
 1472WAT     H2 6609   6.867   3.162   6.959
 1472WAT    EPW 6610   6.808   3.190   6.917
 1473WAT      O 6611   7.083   4.287   7.086
 1473WAT     H1 6612   7.104   4.318   7.165
 1473WAT     H2 6613   7.077   4.360   7.037
 1473WAT    EPW 6614   7.085   4.303   7.090
 1474WAT      O 6615   7.037   4.709   7.511
 1474WAT     H1 6616   6.961   4.707   7.466
 1474WAT     H2 6617   7.054   4.794   7.519
 1474WAT    EPW 6618   7.028   4.721   7.505
 1475WAT      O 6619   6.560   3.636   7.428
 1475WAT     H1 6620   6.528   3.578   7.371
 1475WAT     H2 6621   6.525   3.711   7.403
 1475WAT    EPW 6622   6.550   3.638   7.416
 1476WAT      O 6623   6.640   2.961   5.890
 1476WAT     H1 6624   6.648   2.985   5.807
 1476WAT     H2 6625   6.566   2.998   5.916
 1476WAT    EPW 6626   6.630   2.970   5.882
 1477WAT      O 6627   7.565   4.151   7.032
 1477WAT     H1 6628   7.561   4.065   7.018
 1477WAT     H2 6629   7.495   4.182   6.988
 1477WAT    EPW 6630   7.554   4.143   7.023
 1478WAT      O 6631   6.404   4.671   7.452
 1478WAT     H1 6632   6.408   4.684   7.539
 1478WAT     H2 6633   6.469   4.615   7.437
 1478WAT    EPW 6634   6.414   4.665   7.463
 1479WAT      O 6635   7.375   4.477   6.911
 1479WAT     H1 6636   7.428   4.469   6.842
 1479WAT     H2 6637   7.336   4.400   6.917
 1479WAT    EPW 6638   7.377   4.465   6.902
 1480WAT      O 6639   6.122   3.136   7.135
 1480WAT     H1 6640   6.088   3.059   7.111
 1480WAT     H2 6641   6.052   3.189   7.141
 1480WAT    EPW 6642   6.107   3.133   7.132
 1481WAT      O 6643   7.026   3.022   6.832
 1481WAT     H1 6644   7.093   3.076   6.845
 1481WAT     H2 6645   6.976   3.064   6.775
 1481WAT    EPW 6646   7.029   3.036   6.826
 1482WAT      O 6647   6.163   4.509   7.588
 1482WAT     H1 6648   6.223   4.553   7.636
 1482WAT     H2 6649   6.127   4.572   7.539
 1482WAT    EPW 6650   6.167   4.525   7.588
 1483WAT      O 6651   6.962   3.603   6.582
 1483WAT     H1 6652   7.017   3.542   6.612
 1483WAT     H2 6653   6.920   3.629   6.653
 1483WAT    EPW 6654   6.964   3.597   6.596
 1484WAT      O 6655   5.987   3.468   6.530
 1484WAT     H1 6656   5.950   3.498   6.603
 1484WAT     H2 6657   6.041   3.405   6.559
 1484WAT    EPW 6658   5.990   3.463   6.545
 1485WAT      O 6659   5.956   4.308   7.281
 1485WAT     H1 6660   5.899   4.350   7.332
 1485WAT     H2 6661   6.029   4.355   7.291
 1485WAT    EPW 6662   5.958   4.321   7.290
 1486WAT      O 6663   7.159   3.786   6.238
 1486WAT     H1 6664   7.166   3.701   6.256
 1486WAT     H2 6665   7.077   3.794   6.210
 1486WAT    EPW 6666   7.148   3.774   6.236
 1487WAT      O 6667   6.135   4.635   6.159
 1487WAT     H1 6668   6.120   4.651   6.074
 1487WAT     H2 6669   6.221   4.643   6.167
 1487WAT    EPW 6670   6.145   4.639   6.147
 1488WAT      O 6671   6.551   3.875   6.132
 1488WAT     H1 6672   6.561   3.889   6.046
 1488WAT     H2 6673   6.633   3.869   6.161
 1488WAT    EPW 6674   6.565   3.876   6.123
 1489WAT      O 6675   7.467   4.681   5.880
 1489WAT     H1 6676   7.531   4.668   5.938
 1489WAT     H2 6677   7.433   4.602   5.868
 1489WAT    EPW 6678   7.472   4.667   5.886
 1490WAT      O 6679   7.487   3.923   7.553
 1490WAT     H1 6680   7.550   3.906   7.610
 1490WAT     H2 6681   7.528   3.963   7.488
 1490WAT    EPW 6682   7.502   3.926   7.552
 1491WAT      O 6683   7.075   4.308   6.112
 1491WAT     H1 6684   7.050   4.295   6.194
 1491WAT     H2 6685   7.043   4.238   6.070
 1491WAT    EPW 6686   7.066   4.296   6.118
 1492WAT      O 6687   7.549   3.379   7.627
 1492WAT     H1 6688   7.530   3.444   7.682
 1492WAT     H2 6689   7.477   3.330   7.626
 1492WAT    EPW 6690   7.536   3.382   7.635
 1493WAT      O 6691   7.539   3.473   6.924
 1493WAT     H1 6692   7.456   3.498   6.917
 1493WAT     H2 6693   7.534   3.389   6.947
 1493WAT    EPW 6694   7.526   3.465   6.926
 1494WAT      O 6695   6.465   3.172   7.443
 1494WAT     H1 6696   6.489   3.115   7.382
 1494WAT     H2 6697   6.381   3.154   7.457
 1494WAT    EPW 6698   6.456   3.161   7.436
 1495WAT      O 6699   7.228   3.934   7.688
 1495WAT     H1 6700   7.315   3.930   7.685
 1495WAT     H2 6701   7.206   3.976   7.615
 1495WAT    EPW 6702   7.238   3.940   7.677
 1496WAT      O 6703   6.203   4.517   6.806
 1496WAT     H1 6704   6.195   4.436   6.775
 1496WAT     H2 6705   6.159   4.565   6.749
 1496WAT    EPW 6706   6.196   4.512   6.793
 1497WAT      O 6707   6.763   4.128   6.055
 1497WAT     H1 6708   6.835   4.094   6.019
 1497WAT     H2 6709   6.760   4.208   6.020
 1497WAT    EPW 6710   6.773   4.135   6.044
 1498WAT      O 6711   5.960   4.741   7.165
 1498WAT     H1 6712   6.010   4.735   7.236
 1498WAT     H2 6713   5.979   4.668   7.121
 1498WAT    EPW 6714   5.971   4.729   7.169
 1499WAT      O 6715   6.904   2.993   4.479
 1499WAT     H1 6716   6.880   3.041   4.411
 1499WAT     H2 6717   6.991   2.985   4.469
 1499WAT    EPW 6718   6.913   2.999   4.467
 1500WAT      O 6719   6.885   3.684   4.946
 1500WAT     H1 6720   6.833   3.744   4.982
 1500WAT     H2 6721   6.925   3.647   5.014
 1500WAT    EPW 6722   6.883   3.688   4.961
 1501WAT      O 6723   5.872   4.098   4.491
 1501WAT     H1 6724   5.828   4.110   4.566
 1501WAT     H2 6725   5.844   4.021   4.463
 1501WAT    EPW 6726   5.861   4.088   4.498
 1502WAT      O 6727   7.500   4.428   4.243
 1502WAT     H1 6728   7.570   4.376   4.242
 1502WAT     H2 6729   7.441   4.384   4.196
 1502WAT    EPW 6730   7.501   4.414   4.236
 1503WAT      O 6731   5.846   3.477   4.142
 1503WAT     H1 6732   5.769   3.494   4.106
 1503WAT     H2 6733   5.850   3.390   4.144
 1503WAT    EPW 6734   5.835   3.467   4.137
 1504WAT      O 6735   6.160   4.004   4.009
 1504WAT     H1 6736   6.121   3.967   3.941
 1504WAT     H2 6737   6.152   3.944   4.072
 1504WAT    EPW 6738   6.153   3.989   4.008
 1505WAT      O 6739   7.152   3.791   4.613
 1505WAT     H1 6740   7.160   3.791   4.526
 1505WAT     H2 6741   7.094   3.728   4.628
 1505WAT    EPW 6742   7.145   3.782   4.603
 1506WAT      O 6743   6.123   4.168   4.399
 1506WAT     H1 6744   6.184   4.151   4.460
 1506WAT     H2 6745   6.048   4.154   4.441
 1506WAT    EPW 6746   6.121   4.163   4.414
 1507WAT      O 6747   6.551   3.101   4.394
 1507WAT     H1 6748   6.544   3.169   4.340
 1507WAT     H2 6749   6.625   3.062   4.369
 1507WAT    EPW 6750   6.561   3.106   4.382
 1508WAT      O 6751   6.012   4.477   4.007
 1508WAT     H1 6752   6.059   4.485   3.934
 1508WAT     H2 6753   6.058   4.419   4.054
 1508WAT    EPW 6754   6.026   4.470   4.003
 1509WAT      O 6755   5.866   4.372   5.117
 1509WAT     H1 6756   5.879   4.344   5.198
 1509WAT     H2 6757   5.805   4.318   5.086
 1509WAT    EPW 6758   5.859   4.360   5.124
 1510WAT      O 6759   6.523   4.124   5.624
 1510WAT     H1 6760   6.500   4.124   5.708
 1510WAT     H2 6761   6.449   4.109   5.581
 1510WAT    EPW 6762   6.509   4.122   5.630
 1511WAT      O 6763   6.011   3.824   4.537
 1511WAT     H1 6764   5.964   3.785   4.474
 1511WAT     H2 6765   6.081   3.772   4.546
 1511WAT    EPW 6766   6.014   3.810   4.529
 1512WAT      O 6767   6.461   3.385   5.072
 1512WAT     H1 6768   6.529   3.387   5.017
 1512WAT     H2 6769   6.457   3.301   5.096
 1512WAT    EPW 6770   6.471   3.373   5.067
 1513WAT      O 6771   6.522   4.443   5.350
 1513WAT     H1 6772   6.535   4.519   5.309
 1513WAT     H2 6773   6.601   4.407   5.353
 1513WAT    EPW 6774   6.535   4.449   5.344
 1514WAT      O 6775   6.211   3.634   4.539
 1514WAT     H1 6776   6.292   3.615   4.564
 1514WAT     H2 6777   6.163   3.572   4.579
 1514WAT    EPW 6778   6.216   3.622   4.549
 1515WAT      O 6779   6.631   4.232   4.800
 1515WAT     H1 6780   6.666   4.152   4.803
 1515WAT     H2 6781   6.698   4.282   4.775
 1515WAT    EPW 6782   6.646   4.227   4.797
 1516WAT      O 6783   6.637   4.177   4.421
 1516WAT     H1 6784   6.670   4.112   4.470
 1516WAT     H2 6785   6.661   4.156   4.340
 1516WAT    EPW 6786   6.645   4.164   4.417
 1517WAT      O 6787   6.834   3.590   5.555
 1517WAT     H1 6788   6.749   3.580   5.538
 1517WAT     H2 6789   6.837   3.664   5.601
 1517WAT    EPW 6790   6.822   3.599   5.559
 1518WAT      O 6791   6.270   3.143   4.466
 1518WAT     H1 6792   6.241   3.193   4.401
 1518WAT     H2 6793   6.357   3.151   4.460
 1518WAT    EPW 6794   6.279   3.152   4.456
 1519WAT      O 6795   7.289   2.886   5.467
 1519WAT     H1 6796   7.274   2.963   5.429
 1519WAT     H2 6797   7.212   2.864   5.501
 1519WAT    EPW 6798   7.276   2.894   5.466
 1520WAT      O 6799   6.568   3.057   4.688
 1520WAT     H1 6800   6.576   3.143   4.701
 1520WAT     H2 6801   6.565   3.050   4.601
 1520WAT    EPW 6802   6.569   3.069   4.677
 1521WAT      O 6803   7.036   3.350   3.918
 1521WAT     H1 6804   6.991   3.418   3.949
 1521WAT     H2 6805   7.047   3.300   3.988
 1521WAT    EPW 6806   7.031   3.353   3.933
 1522WAT      O 6807   5.856   3.600   4.838
 1522WAT     H1 6808   5.831   3.683   4.831
 1522WAT     H2 6809   5.790   3.562   4.880
 1522WAT    EPW 6810   5.843   3.606   4.843
 1523WAT      O 6811   5.847   4.571   4.628
 1523WAT     H1 6812   5.788   4.627   4.597
 1523WAT     H2 6813   5.890   4.544   4.557
 1523WAT    EPW 6814   5.845   4.575   4.613
 1524WAT      O 6815   6.431   4.355   4.376
 1524WAT     H1 6816   6.373   4.328   4.436
 1524WAT     H2 6817   6.494   4.294   4.379
 1524WAT    EPW 6818   6.432   4.342   4.385
 1525WAT      O 6819   7.046   4.584   4.129
 1525WAT     H1 6820   7.118   4.631   4.139
 1525WAT     H2 6821   7.068   4.505   4.157
 1525WAT    EPW 6822   7.060   4.579   4.134
 1526WAT      O 6823   6.862   4.623   4.328
 1526WAT     H1 6824   6.884   4.676   4.394
 1526WAT     H2 6825   6.939   4.606   4.290
 1526WAT    EPW 6826   6.877   4.628   4.332
 1527WAT      O 6827   6.159   3.082   4.887
 1527WAT     H1 6828   6.107   3.019   4.857
 1527WAT     H2 6829   6.218   3.038   4.935
 1527WAT    EPW 6830   6.160   3.066   4.890
 1528WAT      O 6831   6.490   3.295   5.817
 1528WAT     H1 6832   6.501   3.249   5.744
 1528WAT     H2 6833   6.519   3.375   5.797
 1528WAT    EPW 6834   6.496   3.300   5.803
 1529WAT      O 6835   6.002   4.438   4.421
 1529WAT     H1 6836   6.067   4.380   4.423
 1529WAT     H2 6837   6.041   4.513   4.399
 1529WAT    EPW 6838   6.017   4.440   4.418
 1530WAT      O 6839   7.575   3.347   4.548
 1530WAT     H1 6840   7.540   3.415   4.590
 1530WAT     H2 6841   7.511   3.287   4.549
 1530WAT    EPW 6842   7.561   3.348   4.554
 1531WAT      O 6843   7.106   4.624   5.158
 1531WAT     H1 6844   7.181   4.670   5.157
 1531WAT     H2 6845   7.094   4.603   5.074
 1531WAT    EPW 6846   7.115   4.628   5.146
 1532WAT      O 6847   6.063   3.255   5.716
 1532WAT     H1 6848   5.985   3.216   5.708
 1532WAT     H2 6849   6.112   3.213   5.657
 1532WAT    EPW 6850   6.059   3.243   5.706
 1533WAT      O 6851   6.084   4.287   4.771
 1533WAT     H1 6852   6.126   4.251   4.704
 1533WAT     H2 6853   6.116   4.244   4.841
 1533WAT    EPW 6854   6.095   4.275   4.772
 1534WAT      O 6855   6.407   4.572   4.701
 1534WAT     H1 6856   6.491   4.582   4.682
 1534WAT     H2 6857   6.377   4.654   4.708
 1534WAT    EPW 6858   6.415   4.585   4.699
 1535WAT      O 6859   6.728   3.019   5.632
 1535WAT     H1 6860   6.746   2.938   5.605
 1535WAT     H2 6861   6.714   3.063   5.559
 1535WAT    EPW 6862   6.728   3.013   5.617
 1536WAT      O 6863   6.787   3.511   4.510
 1536WAT     H1 6864   6.816   3.488   4.431
 1536WAT     H2 6865   6.861   3.519   4.557
 1536WAT    EPW 6866   6.802   3.509   4.505
 1537WAT      O 6867   6.860   3.545   4.022
 1537WAT     H1 6868   6.888   3.624   4.047
 1537WAT     H2 6869   6.782   3.562   3.986
 1537WAT    EPW 6870   6.852   3.559   4.020
 1538WAT      O 6871   7.264   4.743   4.169
 1538WAT     H1 6872   7.330   4.728   4.114
 1538WAT     H2 6873   7.300   4.734   4.248
 1538WAT    EPW 6874   7.279   4.739   4.172
 1539WAT      O 6875   6.306   4.694   5.275
 1539WAT     H1 6876   6.336   4.687   5.357
 1539WAT     H2 6877   6.244   4.633   5.271
 1539WAT    EPW 6878   6.302   4.684   5.287
 1540WAT      O 6879   5.798   3.309   5.474
 1540WAT     H1 6880   5.797   3.368   5.539
 1540WAT     H2 6881   5.857   3.341   5.419
 1540WAT    EPW 6882   5.807   3.323   5.476
 1541WAT      O 6883   7.032   4.343   5.528
 1541WAT     H1 6884   7.028   4.381   5.607
 1541WAT     H2 6885   7.117   4.339   5.511
 1541WAT    EPW 6886   7.044   4.348   5.538
 1542WAT      O 6887   6.745   4.362   4.003
 1542WAT     H1 6888   6.727   4.417   4.069
 1542WAT     H2 6889   6.822   4.391   3.973
 1542WAT    EPW 6890   6.754   4.375   4.009
 1543WAT      O 6891   7.096   3.152   4.109
 1543WAT     H1 6892   7.150   3.084   4.116
 1543WAT     H2 6893   7.102   3.192   4.186
 1543WAT    EPW 6894   7.105   3.148   4.121
 1544WAT      O 6895   5.892   3.269   4.366
 1544WAT     H1 6896   5.880   3.182   4.369
 1544WAT     H2 6897   5.844   3.298   4.433
 1544WAT    EPW 6898   5.883   3.260   4.376
 1545WAT      O 6899   6.106   4.510   5.187
 1545WAT     H1 6900   6.036   4.459   5.200
 1545WAT     H2 6901   6.132   4.489   5.106
 1545WAT    EPW 6902   6.099   4.499   5.177
 1546WAT      O 6903   6.822   3.390   4.240
 1546WAT     H1 6904   6.771   3.323   4.215
 1546WAT     H2 6905   6.827   3.440   4.169
 1546WAT    EPW 6906   6.815   3.387   4.226
 1547WAT      O 6907   6.877   4.659   5.278
 1547WAT     H1 6908   6.954   4.651   5.238
 1547WAT     H2 6909   6.819   4.647   5.214
 1547WAT    EPW 6910   6.880   4.656   5.263
 1548WAT      O 6911   6.822   3.084   4.229
 1548WAT     H1 6912   6.776   3.044   4.167
 1548WAT     H2 6913   6.899   3.099   4.192
 1548WAT    EPW 6914   6.827   3.080   4.215
 1549WAT      O 6915   7.505   4.719   4.568
 1549WAT     H1 6916   7.459   4.791   4.588
 1549WAT     H2 6917   7.443   4.662   4.544
 1549WAT    EPW 6918   7.489   4.722   4.568
 1550WAT      O 6919   6.682   3.320   4.682
 1550WAT     H1 6920   6.689   3.377   4.616
 1550WAT     H2 6921   6.694   3.370   4.753
 1550WAT    EPW 6922   6.685   3.336   4.682
 1551WAT      O 6923   7.204   4.304   4.523
 1551WAT     H1 6924   7.274   4.256   4.542
 1551WAT     H2 6925   7.138   4.247   4.527
 1551WAT    EPW 6926   7.205   4.288   4.526
 1552WAT      O 6927   6.242   4.395   5.444
 1552WAT     H1 6928   6.326   4.401   5.422
 1552WAT     H2 6929   6.238   4.435   5.522
 1552WAT    EPW 6930   6.254   4.402   5.452
 1553WAT      O 6931   6.143   2.903   4.516
 1553WAT     H1 6932   6.196   2.972   4.515
 1553WAT     H2 6933   6.143   2.875   4.434
 1553WAT    EPW 6934   6.150   2.909   4.504
 1554WAT      O 6935   6.438   3.946   4.919
 1554WAT     H1 6936   6.455   3.925   5.002
 1554WAT     H2 6937   6.373   3.893   4.897
 1554WAT    EPW 6938   6.431   3.935   4.928
 1555WAT      O 6939   7.061   3.337   5.270
 1555WAT     H1 6940   7.051   3.369   5.351
 1555WAT     H2 6941   7.002   3.274   5.267
 1555WAT    EPW 6942   7.051   3.333   5.282
 1556WAT      O 6943   6.513   3.940   5.178
 1556WAT     H1 6944   6.518   4.025   5.198
 1556WAT     H2 6945   6.485   3.903   5.252
 1556WAT    EPW 6946   6.510   3.947   5.192
 1557WAT      O 6947   7.131   4.009   5.091
 1557WAT     H1 6948   7.079   3.968   5.148
 1557WAT     H2 6949   7.118   4.094   5.109
 1557WAT    EPW 6950   7.121   4.016   5.102
 1558WAT      O 6951   7.187   2.932   4.554
 1558WAT     H1 6952   7.191   2.900   4.635
 1558WAT     H2 6953   7.219   2.867   4.505
 1558WAT    EPW 6954   7.192   2.918   4.559
 1559WAT      O 6955   5.795   4.377   5.799
 1559WAT     H1 6956   5.871   4.412   5.825
 1559WAT     H2 6957   5.813   4.292   5.793
 1559WAT    EPW 6958   5.809   4.369   5.802
 1560WAT      O 6959   7.433   3.355   5.385
 1560WAT     H1 6960   7.510   3.333   5.418
 1560WAT     H2 6961   7.385   3.377   5.455
 1560WAT    EPW 6962   7.437   3.355   5.400
 1561WAT      O 6963   6.187   3.284   4.682
 1561WAT     H1 6964   6.215   3.241   4.611
 1561WAT     H2 6965   6.170   3.220   4.739
 1561WAT    EPW 6966   6.189   3.268   4.680
 1562WAT      O 6967   7.456   4.053   4.104
 1562WAT     H1 6968   7.468   4.025   4.185
 1562WAT     H2 6969   7.537   4.055   4.071
 1562WAT    EPW 6970   7.470   4.049   4.111
 1563WAT      O 6971   6.170   4.026   4.637
 1563WAT     H1 6972   6.255   4.018   4.619
 1563WAT     H2 6973   6.134   3.958   4.595
 1563WAT    EPW 6974   6.177   4.015   4.628
 1564WAT      O 6975   6.046   4.699   4.760
 1564WAT     H1 6976   5.979   4.649   4.736
 1564WAT     H2 6977   6.087   4.717   4.685
 1564WAT    EPW 6978   6.042   4.694   4.746
 1565WAT      O 6979   6.001   3.394   4.990
 1565WAT     H1 6980   6.086   3.416   4.986
 1565WAT     H2 6981   5.963   3.451   4.937
 1565WAT    EPW 6982   6.008   3.406   4.981
 1566WAT      O 6983   7.246   3.707   4.062
 1566WAT     H1 6984   7.224   3.780   4.020
 1566WAT     H2 6985   7.201   3.712   4.137
 1566WAT    EPW 6986   7.236   3.718   4.067
 1567WAT      O 6987   6.407   4.027   4.460
 1567WAT     H1 6988   6.478   4.077   4.469
 1567WAT     H2 6989   6.429   3.970   4.398
 1567WAT    EPW 6990   6.420   4.026   4.452
 1568WAT      O 6991   5.822   4.191   4.792
 1568WAT     H1 6992   5.755   4.240   4.820
 1568WAT     H2 6993   5.890   4.246   4.795
 1568WAT    EPW 6994   5.822   4.207   4.797
 1569WAT      O 6995   6.587   3.562   5.802
 1569WAT     H1 6996   6.538   3.620   5.846
 1569WAT     H2 6997   6.584   3.592   5.720
 1569WAT    EPW 6998   6.579   3.575   5.796
 1570WAT      O 6999   5.829   3.860   4.302
 1570WAT     H1 7000   5.810   3.776   4.318
 1570WAT     H2 7001   5.895   3.856   4.245
 1570WAT    EPW 7002   5.836   3.847   4.296
 1571WAT      O 7003   7.465   3.149   4.235
 1571WAT     H1 7004   7.539   3.108   4.255
 1571WAT     H2 7005   7.491   3.220   4.193
 1571WAT    EPW 7006   7.479   3.153   4.232
 1572WAT      O 7007   6.859   4.397   4.693
 1572WAT     H1 7008   6.807   4.461   4.664
 1572WAT     H2 7009   6.890   4.361   4.620
 1572WAT    EPW 7010   6.856   4.401   4.678
 1573WAT      O 7011   5.846   4.276   4.260
 1573WAT     H1 7012   5.901   4.333   4.296
 1573WAT     H2 7013   5.823   4.225   4.326
 1573WAT    EPW 7014   5.851   4.277   4.275
 1574WAT      O 7015   6.266   4.176   4.969
 1574WAT     H1 7016   6.313   4.205   5.037
 1574WAT     H2 7017   6.324   4.128   4.923
 1574WAT    EPW 7018   6.282   4.173   4.972
 1575WAT      O 7019   7.110   3.378   4.743
 1575WAT     H1 7020   7.144   3.393   4.821
 1575WAT     H2 7021   7.065   3.304   4.754
 1575WAT    EPW 7022   7.108   3.369   4.756
 1576WAT      O 7023   5.829   4.121   4.023
 1576WAT     H1 7024   5.905   4.078   4.029
 1576WAT     H2 7025   5.830   4.174   4.092
 1576WAT    EPW 7026   5.840   4.123   4.034
 1577WAT      O 7027   5.923   3.943   4.823
 1577WAT     H1 7028   5.966   3.930   4.749
 1577WAT     H2 7029   5.902   4.028   4.821
 1577WAT    EPW 7030   5.926   3.954   4.812
 1578WAT      O 7031   6.558   3.300   4.188
 1578WAT     H1 7032   6.557   3.288   4.102
 1578WAT     H2 7033   6.539   3.384   4.197
 1578WAT    EPW 7034   6.555   3.310   4.177
 1579WAT      O 7035   7.463   4.542   5.338
 1579WAT     H1 7036   7.396   4.594   5.360
 1579WAT     H2 7037   7.469   4.552   5.252
 1579WAT    EPW 7038   7.454   4.551   5.328
 1580WAT      O 7039   6.331   4.295   4.651
 1580WAT     H1 7040   6.344   4.379   4.670
 1580WAT     H2 7041   6.398   4.255   4.691
 1580WAT    EPW 7042   6.343   4.301   4.660
 1581WAT      O 7043   6.144   3.643   5.638
 1581WAT     H1 7044   6.091   3.593   5.684
 1581WAT     H2 7045   6.146   3.604   5.560
 1581WAT    EPW 7046   6.137   3.630   5.633
 1582WAT      O 7047   6.193   3.583   4.152
 1582WAT     H1 7048   6.180   3.538   4.225
 1582WAT     H2 7049   6.135   3.549   4.096
 1582WAT    EPW 7050   6.182   3.571   4.154
 1583WAT      O 7051   6.210   3.766   4.812
 1583WAT     H1 7052   6.131   3.760   4.773
 1583WAT     H2 7053   6.217   3.691   4.855
 1583WAT    EPW 7054   6.199   3.754   4.812
 1584WAT      O 7055   6.253   3.740   5.158
 1584WAT     H1 7056   6.255   3.672   5.103
 1584WAT     H2 7057   6.188   3.789   5.127
 1584WAT    EPW 7058   6.243   3.737   5.146
 1585WAT      O 7059   7.242   3.511   4.998
 1585WAT     H1 7060   7.176   3.544   5.044
 1585WAT     H2 7061   7.261   3.574   4.941
 1585WAT    EPW 7062   7.235   3.525   4.996
 1586WAT      O 7063   6.663   4.617   5.098
 1586WAT     H1 7064   6.635   4.553   5.045
 1586WAT     H2 7065   6.642   4.690   5.054
 1586WAT    EPW 7066   6.655   4.619   5.083
 1587WAT      O 7067   6.907   3.101   5.341
 1587WAT     H1 7068   6.921   3.019   5.317
 1587WAT     H2 7069   6.944   3.107   5.419
 1587WAT    EPW 7070   6.914   3.090   5.349
 1588WAT      O 7071   7.061   3.308   4.349
 1588WAT     H1 7072   7.110   3.379   4.341
 1588WAT     H2 7073   6.982   3.334   4.323
 1588WAT    EPW 7074   7.057   3.322   4.344
 1589WAT      O 7075   6.032   3.875   5.714
 1589WAT     H1 7076   6.029   3.925   5.643
 1589WAT     H2 7077   6.066   3.800   5.685
 1589WAT    EPW 7078   6.037   3.871   5.699
 1590WAT      O 7079   7.193   4.096   5.540
 1590WAT     H1 7080   7.241   4.167   5.550
 1590WAT     H2 7081   7.232   4.053   5.475
 1590WAT    EPW 7082   7.206   4.100   5.532
 1591WAT      O 7083   6.622   4.380   5.658
 1591WAT     H1 7084   6.658   4.362   5.735
 1591WAT     H2 7085   6.579   4.307   5.638
 1591WAT    EPW 7086   6.621   4.367   5.666
 1592WAT      O 7087   6.720   3.455   4.922
 1592WAT     H1 7088   6.768   3.525   4.942
 1592WAT     H2 7089   6.757   3.390   4.967
 1592WAT    EPW 7090   6.732   3.456   4.931
 1593WAT      O 7091   6.938   3.772   4.149
 1593WAT     H1 7092   6.938   3.844   4.100
 1593WAT     H2 7093   6.875   3.785   4.207
 1593WAT    EPW 7094   6.929   3.784   4.150
 1594WAT      O 7095   7.436   4.159   4.547
 1594WAT     H1 7096   7.471   4.124   4.619
 1594WAT     H2 7097   7.435   4.093   4.490
 1594WAT    EPW 7098   7.441   4.144   4.549
 1595WAT      O 7099   7.040   4.465   4.931
 1595WAT     H1 7100   6.980   4.436   4.876
 1595WAT     H2 7101   7.095   4.510   4.881
 1595WAT    EPW 7102   7.039   4.468   4.916
 1596WAT      O 7103   7.041   4.150   4.871
 1596WAT     H1 7104   6.962   4.173   4.899
 1596WAT     H2 7105   7.067   4.091   4.930
 1596WAT    EPW 7106   7.033   4.145   4.884
 1597WAT      O 7107   6.431   4.632   4.316
 1597WAT     H1 7108   6.416   4.554   4.353
 1597WAT     H2 7109   6.500   4.617   4.265
 1597WAT    EPW 7110   6.439   4.618   4.314
 1598WAT      O 7111   6.398   3.006   4.115
 1598WAT     H1 7112   6.407   2.995   4.201
 1598WAT     H2 7113   6.327   3.056   4.109
 1598WAT    EPW 7114   6.389   3.012   4.127
 1599WAT      O 7115   6.660   4.583   4.156
 1599WAT     H1 7116   6.722   4.599   4.215
 1599WAT     H2 7117   6.663   4.652   4.103
 1599WAT    EPW 7118   6.670   4.596   4.157
 1600WAT      O 7119   7.367   3.950   5.356
 1600WAT     H1 7120   7.373   3.963   5.270
 1600WAT     H2 7121   7.443   3.982   5.386
 1600WAT    EPW 7122   7.379   3.957   5.348
 1601WAT      O 7123   6.987   4.485   5.784
 1601WAT     H1 7124   7.003   4.513   5.865
 1601WAT     H2 7125   7.013   4.551   5.733
 1601WAT    EPW 7126   6.993   4.499   5.788
 1602WAT      O 7127   7.471   2.980   5.655
 1602WAT     H1 7128   7.407   2.940   5.611
 1602WAT     H2 7129   7.473   2.937   5.731
 1602WAT    EPW 7130   7.462   2.968   5.659
 1603WAT      O 7131   6.110   3.837   4.239
 1603WAT     H1 7132   6.142   3.759   4.217
 1603WAT     H2 7133   6.175   3.873   4.285
 1603WAT    EPW 7134   6.124   3.830   4.243
 1604WAT      O 7135   6.941   3.931   5.316
 1604WAT     H1 7136   6.925   3.992   5.376
 1604WAT     H2 7137   6.994   3.875   5.357
 1604WAT    EPW 7138   6.946   3.932   5.331
 1605WAT      O 7139   5.810   3.003   4.336
 1605WAT     H1 7140   5.823   2.932   4.287
 1605WAT     H2 7141   5.773   2.971   4.409
 1605WAT    EPW 7142   5.806   2.987   4.340
 1606WAT      O 7143   6.779   3.771   4.382
 1606WAT     H1 7144   6.785   3.836   4.440
 1606WAT     H2 7145   6.760   3.701   4.431
 1606WAT    EPW 7146   6.777   3.770   4.398
 1607WAT      O 7147   7.302   4.204   4.969
 1607WAT     H1 7148   7.254   4.233   4.902
 1607WAT     H2 7149   7.266   4.126   4.987
 1607WAT    EPW 7150   7.289   4.197   4.962
 1608WAT      O 7151   6.229   3.222   4.033
 1608WAT     H1 7152   6.177   3.228   3.962
 1608WAT     H2 7153   6.307   3.246   4.003
 1608WAT    EPW 7154   6.233   3.227   4.018
 1609WAT      O 7155   6.701   3.975   4.825
 1609WAT     H1 7156   6.617   3.956   4.833
 1609WAT     H2 7157   6.734   3.959   4.904
 1609WAT    EPW 7158   6.693   3.970   4.838
 1610WAT      O 7159   6.376   4.648   3.914
 1610WAT     H1 7160   6.420   4.579   3.942
 1610WAT     H2 7161   6.397   4.711   3.971
 1610WAT    EPW 7162   6.386   4.647   3.926
 1611WAT      O 7163   6.086   3.945   5.057
 1611WAT     H1 7164   6.158   3.994   5.053
 1611WAT     H2 7165   6.059   3.942   4.974
 1611WAT    EPW 7166   6.093   3.952   5.044
 1612WAT      O 7167   6.409   3.462   4.730
 1612WAT     H1 7168   6.494   3.443   4.740
 1612WAT     H2 7169   6.372   3.384   4.716
 1612WAT    EPW 7170   6.416   3.448   4.729
 1613WAT      O 7171   7.395   3.898   5.081
 1613WAT     H1 7172   7.394   3.820   5.120
 1613WAT     H2 7173   7.311   3.921   5.080
 1613WAT    EPW 7174   7.382   3.890   5.086
 1614WAT      O 7175   6.344   3.739   3.944
 1614WAT     H1 7176   6.283   3.699   3.992
 1614WAT     H2 7177   6.305   3.751   3.867
 1614WAT    EPW 7178   6.329   3.735   3.940
 1615WAT      O 7179   6.026   4.050   5.484
 1615WAT     H1 7180   5.983   3.998   5.428
 1615WAT     H2 7181   5.990   4.129   5.470
 1615WAT    EPW 7182   6.014   4.054   5.474
 1616WAT      O 7183   6.489   3.585   4.215
 1616WAT     H1 7184   6.516   3.668   4.222
 1616WAT     H2 7185   6.403   3.593   4.206
 1616WAT    EPW 7186   6.480   3.598   4.215
 1617WAT      O 7187   7.286   3.297   5.678
 1617WAT     H1 7188   7.234   3.343   5.731
 1617WAT     H2 7189   7.250   3.218   5.678
 1617WAT    EPW 7190   7.273   3.292   5.686
 1618WAT      O 7191   5.837   3.182   4.869
 1618WAT     H1 7192   5.842   3.217   4.789
 1618WAT     H2 7193   5.913   3.206   4.905
 1618WAT    EPW 7194   5.849   3.191   4.862
 1619WAT      O 7195   7.136   3.654   5.686
 1619WAT     H1 7196   7.143   3.665   5.772
 1619WAT     H2 7197   7.072   3.710   5.664
 1619WAT    EPW 7198   7.127   3.664   5.695
 1620WAT      O 7199   7.362   3.686   5.522
 1620WAT     H1 7200   7.394   3.765   5.543
 1620WAT     H2 7201   7.325   3.659   5.597
 1620WAT    EPW 7202   7.362   3.694   5.536
 1621WAT      O 7203   7.294   4.329   4.075
 1621WAT     H1 7204   7.327   4.248   4.079
 1621WAT     H2 7205   7.218   4.321   4.118
 1621WAT    EPW 7206   7.288   4.316   4.082
 1622WAT      O 7207   7.342   3.512   4.641
 1622WAT     H1 7208   7.268   3.480   4.673
 1622WAT     H2 7209   7.342   3.595   4.669
 1622WAT    EPW 7210   7.331   3.519   4.650
 1623WAT      O 7211   7.031   4.116   4.016
 1623WAT     H1 7212   7.100   4.065   3.999
 1623WAT     H2 7213   6.990   4.121   3.939
 1623WAT    EPW 7214   7.035   4.109   4.002
 1624WAT      O 7215   6.499   4.231   5.146
 1624WAT     H1 7216   6.470   4.290   5.203
 1624WAT     H2 7217   6.505   4.275   5.071
 1624WAT    EPW 7218   6.496   4.246   5.143
 1625WAT      O 7219   6.297   4.126   5.486
 1625WAT     H1 7220   6.217   4.097   5.503
 1625WAT     H2 7221   6.288   4.213   5.487
 1625WAT    EPW 7222   6.284   4.135   5.488
 1626WAT      O 7223   7.233   3.145   5.387
 1626WAT     H1 7224   7.308   3.190   5.381
 1626WAT     H2 7225   7.177   3.192   5.341
 1626WAT    EPW 7226   7.236   3.159   5.380
 1627WAT      O 7227   6.751   3.873   5.095
 1627WAT     H1 7228   6.799   3.911   5.158
 1627WAT     H2 7229   6.669   3.887   5.121
 1627WAT    EPW 7230   6.746   3.881   5.108
 1628WAT      O 7231   6.422   3.434   5.369
 1628WAT     H1 7232   6.438   3.359   5.412
 1628WAT     H2 7233   6.418   3.409   5.286
 1628WAT    EPW 7234   6.424   3.419   5.363
 1629WAT      O 7235   6.677   4.613   4.618
 1629WAT     H1 7236   6.732   4.681   4.623
 1629WAT     H2 7237   6.642   4.621   4.539
 1629WAT    EPW 7238   6.680   4.624   4.607
 1630WAT      O 7239   7.362   2.943   5.154
 1630WAT     H1 7240   7.334   3.025   5.150
 1630WAT     H2 7241   7.433   2.948   5.204
 1630WAT    EPW 7242   7.368   2.956   5.161
 1631WAT      O 7243   6.597   3.014   5.357
 1631WAT     H1 7244   6.668   3.046   5.317
 1631WAT     H2 7245   6.621   2.934   5.380
 1631WAT    EPW 7246   6.611   3.007   5.355
 1632WAT      O 7247   6.496   4.435   4.957
 1632WAT     H1 7248   6.433   4.494   4.939
 1632WAT     H2 7249   6.521   4.407   4.878
 1632WAT    EPW 7250   6.490   4.440   4.943
 1633WAT      O 7251   6.927   4.099   5.656
 1633WAT     H1 7252   7.002   4.127   5.623
 1633WAT     H2 7253   6.872   4.104   5.588
 1633WAT    EPW 7254   6.930   4.104   5.641
 1634WAT      O 7255   7.318   4.354   5.506
 1634WAT     H1 7256   7.352   4.381   5.582
 1634WAT     H2 7257   7.347   4.412   5.448
 1634WAT    EPW 7258   7.327   4.366   5.509
 1635WAT      O 7259   7.504   3.568   4.040
 1635WAT     H1 7260   7.542   3.636   4.000
 1635WAT     H2 7261   7.420   3.591   4.043
 1635WAT    EPW 7262   7.497   3.582   4.035
 1636WAT      O 7263   6.655   3.913   3.948
 1636WAT     H1 7264   6.575   3.895   3.920
 1636WAT     H2 7265   6.652   3.998   3.968
 1636WAT    EPW 7266   6.643   3.923   3.947
 1637WAT      O 7267   6.248   3.520   4.963
 1637WAT     H1 7268   6.292   3.509   4.889
 1637WAT     H2 7269   6.303   3.488   5.024
 1637WAT    EPW 7270   6.263   3.514   4.961
 1638WAT      O 7271   7.050   3.430   5.523
 1638WAT     H1 7272   6.985   3.477   5.557
 1638WAT     H2 7273   7.106   3.421   5.589
 1638WAT    EPW 7274   7.049   3.436   5.538
 1639WAT      O 7275   7.019   3.584   5.152
 1639WAT     H1 7276   7.049   3.626   5.223
 1639WAT     H2 7277   7.022   3.500   5.176
 1639WAT    EPW 7278   7.024   3.577   5.166
 1640WAT      O 7279   6.761   4.600   5.545
 1640WAT     H1 7280   6.809   4.540   5.503
 1640WAT     H2 7281   6.726   4.556   5.611
 1640WAT    EPW 7282   6.763   4.585   5.549
 1641WAT      O 7283   7.273   3.528   4.378
 1641WAT     H1 7284   7.294   3.508   4.460
 1641WAT     H2 7285   7.349   3.555   4.343
 1641WAT    EPW 7286   7.288   3.529   4.385
 1642WAT      O 7287   6.603   3.018   4.968
 1642WAT     H1 7288   6.520   3.003   4.992
 1642WAT     H2 7289   6.599   3.022   4.881
 1642WAT    EPW 7290   6.590   3.017   4.959
 1643WAT      O 7291   7.376   3.137   4.525
 1643WAT     H1 7292   7.304   3.090   4.542
 1643WAT     H2 7293   7.359   3.171   4.446
 1643WAT    EPW 7294   7.363   3.135   4.516
 1644WAT      O 7295   7.420   3.931   4.363
 1644WAT     H1 7296   7.467   3.858   4.358
 1644WAT     H2 7297   7.338   3.902   4.355
 1644WAT    EPW 7298   7.415   3.916   4.361
 1645WAT      O 7299   6.767   4.122   5.447
 1645WAT     H1 7300   6.687   4.116   5.482
 1645WAT     H2 7301   6.774   4.207   5.427
 1645WAT    EPW 7302   6.756   4.134   5.449
 1646WAT      O 7303   5.859   3.058   5.572
 1646WAT     H1 7304   5.845   3.138   5.539
 1646WAT     H2 7305   5.781   3.034   5.601
 1646WAT    EPW 7306   5.846   3.066   5.571
 1647WAT      O 7307   6.350   4.743   4.979
 1647WAT     H1 7308   6.351   4.749   5.066
 1647WAT     H2 7309   6.307   4.668   4.964
 1647WAT    EPW 7310   6.344   4.733   4.989
 1648WAT      O 7311   6.166   3.332   4.294
 1648WAT     H1 7312   6.178   3.300   4.214
 1648WAT     H2 7313   6.085   3.308   4.314
 1648WAT    EPW 7314   6.156   3.324   4.285
 1649WAT      O 7315   7.041   4.048   4.599
 1649WAT     H1 7316   7.049   4.082   4.678
 1649WAT     H2 7317   7.058   3.963   4.611
 1649WAT    EPW 7318   7.045   4.040   4.612
 1650WAT      O 7319   6.794   3.975   4.555
 1650WAT     H1 7320   6.764   3.944   4.631
 1650WAT     H2 7321   6.863   4.022   4.579
 1650WAT    EPW 7322   6.800   3.977   4.570
 1651WAT      O 7323   6.816   4.387   5.358
 1651WAT     H1 7324   6.885   4.376   5.410
 1651WAT     H2 7325   6.829   4.466   5.323
 1651WAT    EPW 7326   6.828   4.397   5.360
 1652WAT      O 7327   7.085   3.714   5.396
 1652WAT     H1 7328   7.059   3.642   5.439
 1652WAT     H2 7329   7.167   3.726   5.423
 1652WAT    EPW 7330   7.093   3.705   5.407
 1653WAT      O 7331   6.026   4.693   5.523
 1653WAT     H1 7332   5.961   4.636   5.533
 1653WAT     H2 7333   5.989   4.770   5.538
 1653WAT    EPW 7334   6.011   4.696   5.527
 1654WAT      O 7335   6.878   3.833   5.715
 1654WAT     H1 7336   6.910   3.902   5.672
 1654WAT     H2 7337   6.808   3.866   5.755
 1654WAT    EPW 7338   6.872   3.848   5.715
 1655WAT      O 7339   7.187   4.671   4.808
 1655WAT     H1 7340   7.141   4.735   4.846
 1655WAT     H2 7341   7.257   4.663   4.859
 1655WAT    EPW 7342   7.190   4.679   4.821
 1656WAT      O 7343   6.857   4.180   5.101
 1656WAT     H1 7344   6.787   4.220   5.135
 1656WAT     H2 7345   6.924   4.223   5.135
 1656WAT    EPW 7346   6.856   4.192   5.111
 1657WAT      O 7347   7.394   4.439   5.759
 1657WAT     H1 7348   7.472   4.400   5.767
 1657WAT     H2 7349   7.347   4.405   5.825
 1657WAT    EPW 7350   7.399   4.428   5.770
 1658WAT      O 7351   6.163   3.534   5.336
 1658WAT     H1 7352   6.201   3.595   5.287
 1658WAT     H2 7353   6.231   3.486   5.364
 1658WAT    EPW 7354   6.179   3.536   5.333
 1659WAT      O 7355   5.941   3.378   5.263
 1659WAT     H1 7356   5.949   3.361   5.178
 1659WAT     H2 7357   6.016   3.419   5.283
 1659WAT    EPW 7358   5.953   3.382   5.254
 1660WAT      O 7359   7.497   3.642   4.307
 1660WAT     H1 7360   7.507   3.637   4.221
 1660WAT     H2 7361   7.571   3.609   4.339
 1660WAT    EPW 7362   7.509   3.637   4.299
 1661WAT      O 7363   6.196   3.119   5.504
 1661WAT     H1 7364   6.188   3.035   5.525
 1661WAT     H2 7365   6.165   3.124   5.423
 1661WAT    EPW 7366   6.191   3.108   5.495
 1662WAT      O 7367   6.889   4.339   4.418
 1662WAT     H1 7368   6.868   4.422   4.402
 1662WAT     H2 7369   6.811   4.301   4.430
 1662WAT    EPW 7370   6.874   4.346   4.417
 1663WAT      O 7371   7.407   3.657   5.243
 1663WAT     H1 7372   7.407   3.571   5.255
 1663WAT     H2 7373   7.414   3.689   5.324
 1663WAT    EPW 7374   7.408   3.649   5.257
 1664WAT      O 7375   5.881   3.901   5.286
 1664WAT     H1 7376   5.913   3.923   5.208
 1664WAT     H2 7377   5.871   3.814   5.280
 1664WAT    EPW 7378   5.884   3.891   5.273
 1665WAT      O 7379   6.026   3.495   3.947
 1665WAT     H1 7380   5.959   3.496   4.003
 1665WAT     H2 7381   6.036   3.410   3.929
 1665WAT    EPW 7382   6.018   3.482   3.953
 1666WAT      O 7383   6.995   3.137   5.621
 1666WAT     H1 7384   7.004   3.208   5.670
 1666WAT     H2 7385   6.931   3.092   5.661
 1666WAT    EPW 7386   6.987   3.141   5.634
 1667WAT      O 7387   6.894   3.156   4.706
 1667WAT     H1 7388   6.824   3.208   4.701
 1667WAT     H2 7389   6.898   3.118   4.628
 1667WAT    EPW 7390   6.885   3.158   4.694
 1668WAT      O 7391   6.425   4.365   4.059
 1668WAT     H1 7392   6.469   4.373   4.134
 1668WAT     H2 7393   6.345   4.343   4.085
 1668WAT    EPW 7394   6.420   4.363   4.074
 1669WAT      O 7395   7.254   3.208   4.986
 1669WAT     H1 7396   7.340   3.217   5.001
 1669WAT     H2 7397   7.217   3.263   5.043
 1669WAT    EPW 7398   7.261   3.217   4.997
 1670WAT      O 7399   6.357   3.830   5.424
 1670WAT     H1 7400   6.317   3.908   5.432
 1670WAT     H2 7401   6.316   3.793   5.357
 1670WAT    EPW 7402   6.345   3.836   5.415
 1671WAT      O 7403   7.285   3.736   4.836
 1671WAT     H1 7404   7.351   3.790   4.852
 1671WAT     H2 7405   7.250   3.767   4.762
 1671WAT    EPW 7406   7.289   3.748   4.827
 1672WAT      O 7407   7.316   4.542   4.416
 1672WAT     H1 7408   7.298   4.477   4.471
 1672WAT     H2 7409   7.387   4.515   4.374
 1672WAT    EPW 7410   7.324   4.528   4.418
 1673WAT      O 7411   6.158   4.272   4.119
 1673WAT     H1 7412   6.134   4.241   4.197
 1673WAT     H2 7413   6.155   4.202   4.067
 1673WAT    EPW 7414   6.154   4.257   4.123
 1674WAT      O 7415   6.440   4.097   3.993
 1674WAT     H1 7416   6.358   4.070   4.007
 1674WAT     H2 7417   6.437   4.182   4.012
 1674WAT    EPW 7418   6.427   4.105   3.998
 1675WAT      O 7419   6.400   3.128   5.169
 1675WAT     H1 7420   6.313   3.136   5.177
 1675WAT     H2 7421   6.422   3.076   5.236
 1675WAT    EPW 7422   6.390   3.122   5.180
 1676WAT      O 7423   6.810   3.203   5.007
 1676WAT     H1 7424   6.736   3.157   5.018
 1676WAT     H2 7425   6.867   3.162   5.059
 1676WAT    EPW 7426   6.808   3.190   5.016
 1677WAT      O 7427   7.083   4.287   5.185
 1677WAT     H1 7428   7.104   4.318   5.265
 1677WAT     H2 7429   7.077   4.360   5.137
 1677WAT    EPW 7430   7.085   4.303   5.190
 1678WAT      O 7431   7.037   4.709   5.610
 1678WAT     H1 7432   6.961   4.707   5.566
 1678WAT     H2 7433   7.054   4.794   5.618
 1678WAT    EPW 7434   7.028   4.721   5.605
 1679WAT      O 7435   6.560   3.636   5.527
 1679WAT     H1 7436   6.528   3.578   5.470
 1679WAT     H2 7437   6.525   3.711   5.502
 1679WAT    EPW 7438   6.550   3.638   5.515
 1680WAT      O 7439   6.640   2.961   3.990
 1680WAT     H1 7440   6.648   2.985   3.906
 1680WAT     H2 7441   6.566   2.998   4.015
 1680WAT    EPW 7442   6.630   2.970   3.981
 1681WAT      O 7443   7.565   4.151   5.131
 1681WAT     H1 7444   7.561   4.065   5.118
 1681WAT     H2 7445   7.495   4.182   5.088
 1681WAT    EPW 7446   7.554   4.143   5.123
 1682WAT      O 7447   6.404   4.671   5.552
 1682WAT     H1 7448   6.408   4.684   5.638
 1682WAT     H2 7449   6.469   4.615   5.536
 1682WAT    EPW 7450   6.414   4.665   5.562
 1683WAT      O 7451   7.375   4.477   5.011
 1683WAT     H1 7452   7.428   4.469   4.942
 1683WAT     H2 7453   7.336   4.400   5.016
 1683WAT    EPW 7454   7.377   4.465   5.001
 1684WAT      O 7455   6.122   3.136   5.234
 1684WAT     H1 7456   6.088   3.059   5.211
 1684WAT     H2 7457   6.052   3.189   5.240
 1684WAT    EPW 7458   6.107   3.133   5.231
 1685WAT      O 7459   7.026   3.022   4.932
 1685WAT     H1 7460   7.093   3.076   4.944
 1685WAT     H2 7461   6.976   3.064   4.874
 1685WAT    EPW 7462   7.029   3.036   4.925
 1686WAT      O 7463   6.163   4.509   5.688
 1686WAT     H1 7464   6.223   4.553   5.735
 1686WAT     H2 7465   6.127   4.572   5.639
 1686WAT    EPW 7466   6.167   4.525   5.687
 1687WAT      O 7467   6.962   3.603   4.681
 1687WAT     H1 7468   7.017   3.542   4.711
 1687WAT     H2 7469   6.920   3.629   4.752
 1687WAT    EPW 7470   6.964   3.597   4.696
 1688WAT      O 7471   5.987   3.468   4.630
 1688WAT     H1 7472   5.950   3.498   4.703
 1688WAT     H2 7473   6.041   3.405   4.658
 1688WAT    EPW 7474   5.990   3.463   4.645
 1689WAT      O 7475   5.956   4.308   5.381
 1689WAT     H1 7476   5.899   4.350   5.432
 1689WAT     H2 7477   6.029   4.355   5.390
 1689WAT    EPW 7478   5.958   4.321   5.390
 1690WAT      O 7479   7.159   3.786   4.337
 1690WAT     H1 7480   7.166   3.701   4.355
 1690WAT     H2 7481   7.077   3.794   4.309
 1690WAT    EPW 7482   7.148   3.774   4.336
 1691WAT      O 7483   6.135   4.635   4.258
 1691WAT     H1 7484   6.120   4.651   4.174
 1691WAT     H2 7485   6.221   4.643   4.266
 1691WAT    EPW 7486   6.145   4.639   4.247
 1692WAT      O 7487   6.551   3.875   4.231
 1692WAT     H1 7488   6.561   3.889   4.145
 1692WAT     H2 7489   6.633   3.869   4.261
 1692WAT    EPW 7490   6.565   3.876   4.223
 1693WAT      O 7491   7.467   4.681   3.979
 1693WAT     H1 7492   7.531   4.668   4.037
 1693WAT     H2 7493   7.433   4.602   3.967
 1693WAT    EPW 7494   7.472   4.667   3.986
 1694WAT      O 7495   7.487   3.923   5.652
 1694WAT     H1 7496   7.550   3.906   5.710
 1694WAT     H2 7497   7.528   3.963   5.587
 1694WAT    EPW 7498   7.502   3.926   5.651
 1695WAT      O 7499   7.075   4.308   4.211
 1695WAT     H1 7500   7.050   4.295   4.294
 1695WAT     H2 7501   7.043   4.238   4.169
 1695WAT    EPW 7502   7.066   4.296   4.217
 1696WAT      O 7503   7.549   3.379   5.726
 1696WAT     H1 7504   7.530   3.444   5.782
 1696WAT     H2 7505   7.477   3.330   5.725
 1696WAT    EPW 7506   7.536   3.382   5.734
 1697WAT      O 7507   7.539   3.473   5.023
 1697WAT     H1 7508   7.456   3.498   5.016
 1697WAT     H2 7509   7.534   3.389   5.046
 1697WAT    EPW 7510   7.526   3.465   5.025
 1698WAT      O 7511   6.465   3.172   5.543
 1698WAT     H1 7512   6.489   3.115   5.481
 1698WAT     H2 7513   6.381   3.154   5.557
 1698WAT    EPW 7514   6.456   3.161   5.536
 1699WAT      O 7515   7.228   3.934   5.788
 1699WAT     H1 7516   7.315   3.930   5.784
 1699WAT     H2 7517   7.206   3.976   5.715
 1699WAT    EPW 7518   7.238   3.940   5.776
 1700WAT      O 7519   6.203   4.517   4.906
 1700WAT     H1 7520   6.195   4.436   4.874
 1700WAT     H2 7521   6.159   4.565   4.849
 1700WAT    EPW 7522   6.196   4.512   4.893
 1701WAT      O 7523   6.763   4.128   4.154
 1701WAT     H1 7524   6.835   4.094   4.119
 1701WAT     H2 7525   6.760   4.208   4.119
 1701WAT    EPW 7526   6.773   4.135   4.144
 1702WAT      O 7527   5.960   4.741   5.264
 1702WAT     H1 7528   6.010   4.735   5.336
 1702WAT     H2 7529   5.979   4.668   5.220
 1702WAT    EPW 7530   5.971   4.729   5.268
 1703WAT      O 7531   6.904   2.993   2.578
 1703WAT     H1 7532   6.880   3.041   2.510
 1703WAT     H2 7533   6.991   2.985   2.568
 1703WAT    EPW 7534   6.913   2.999   2.567
 1704WAT      O 7535   6.885   3.684   3.045
 1704WAT     H1 7536   6.833   3.744   3.081
 1704WAT     H2 7537   6.925   3.647   3.114
 1704WAT    EPW 7538   6.883   3.688   3.061
 1705WAT      O 7539   5.872   4.098   2.591
 1705WAT     H1 7540   5.828   4.110   2.665
 1705WAT     H2 7541   5.844   4.021   2.562
 1705WAT    EPW 7542   5.861   4.088   2.598
 1706WAT      O 7543   7.500   4.428   2.342
 1706WAT     H1 7544   7.570   4.376   2.342
 1706WAT     H2 7545   7.441   4.384   2.295
 1706WAT    EPW 7546   7.501   4.414   2.335
 1707WAT      O 7547   5.846   3.477   2.241
 1707WAT     H1 7548   5.769   3.494   2.205
 1707WAT     H2 7549   5.850   3.390   2.244
 1707WAT    EPW 7550   5.835   3.467   2.236
 1708WAT      O 7551   6.160   4.004   2.109
 1708WAT     H1 7552   6.121   3.967   2.040
 1708WAT     H2 7553   6.152   3.944   2.172
 1708WAT    EPW 7554   6.153   3.989   2.108
 1709WAT      O 7555   7.152   3.791   2.713
 1709WAT     H1 7556   7.160   3.791   2.626
 1709WAT     H2 7557   7.094   3.728   2.728
 1709WAT    EPW 7558   7.145   3.782   2.702
 1710WAT      O 7559   6.123   4.168   2.499
 1710WAT     H1 7560   6.184   4.151   2.559
 1710WAT     H2 7561   6.048   4.154   2.541
 1710WAT    EPW 7562   6.121   4.163   2.514
 1711WAT      O 7563   6.551   3.101   2.494
 1711WAT     H1 7564   6.544   3.169   2.439
 1711WAT     H2 7565   6.625   3.062   2.469
 1711WAT    EPW 7566   6.561   3.106   2.482
 1712WAT      O 7567   6.012   4.477   2.106
 1712WAT     H1 7568   6.059   4.485   2.033
 1712WAT     H2 7569   6.058   4.419   2.153
 1712WAT    EPW 7570   6.026   4.470   2.102
 1713WAT      O 7571   5.866   4.372   3.216
 1713WAT     H1 7572   5.879   4.344   3.298
 1713WAT     H2 7573   5.805   4.318   3.185
 1713WAT    EPW 7574   5.859   4.360   3.224
 1714WAT      O 7575   6.523   4.124   3.723
 1714WAT     H1 7576   6.500   4.124   3.807
 1714WAT     H2 7577   6.449   4.109   3.681
 1714WAT    EPW 7578   6.509   4.122   3.729
 1715WAT      O 7579   6.011   3.824   2.636
 1715WAT     H1 7580   5.964   3.785   2.574
 1715WAT     H2 7581   6.081   3.772   2.646
 1715WAT    EPW 7582   6.014   3.810   2.629
 1716WAT      O 7583   6.461   3.385   3.171
 1716WAT     H1 7584   6.529   3.387   3.116
 1716WAT     H2 7585   6.457   3.301   3.196
 1716WAT    EPW 7586   6.471   3.373   3.167
 1717WAT      O 7587   6.522   4.443   3.449
 1717WAT     H1 7588   6.535   4.519   3.409
 1717WAT     H2 7589   6.601   4.407   3.452
 1717WAT    EPW 7590   6.535   4.449   3.444
 1718WAT      O 7591   6.211   3.634   2.639
 1718WAT     H1 7592   6.292   3.615   2.663
 1718WAT     H2 7593   6.163   3.572   2.678
 1718WAT    EPW 7594   6.216   3.622   2.648
 1719WAT      O 7595   6.631   4.232   2.900
 1719WAT     H1 7596   6.666   4.152   2.903
 1719WAT     H2 7597   6.698   4.282   2.874
 1719WAT    EPW 7598   6.646   4.227   2.896
 1720WAT      O 7599   6.637   4.177   2.521
 1720WAT     H1 7600   6.670   4.112   2.569
 1720WAT     H2 7601   6.661   4.156   2.440
 1720WAT    EPW 7602   6.645   4.164   2.516
 1721WAT      O 7603   6.834   3.590   3.655
 1721WAT     H1 7604   6.749   3.580   3.637
 1721WAT     H2 7605   6.837   3.664   3.700
 1721WAT    EPW 7606   6.822   3.599   3.659
 1722WAT      O 7607   6.270   3.143   2.565
 1722WAT     H1 7608   6.241   3.193   2.500
 1722WAT     H2 7609   6.357   3.151   2.560
 1722WAT    EPW 7610   6.279   3.152   2.555
 1723WAT      O 7611   7.289   2.886   3.566
 1723WAT     H1 7612   7.274   2.963   3.528
 1723WAT     H2 7613   7.212   2.864   3.601
 1723WAT    EPW 7614   7.276   2.894   3.566
 1724WAT      O 7615   6.568   3.057   2.788
 1724WAT     H1 7616   6.576   3.143   2.801
 1724WAT     H2 7617   6.565   3.050   2.701
 1724WAT    EPW 7618   6.569   3.069   2.777
 1725WAT      O 7619   7.036   3.350   2.018
 1725WAT     H1 7620   6.991   3.418   2.048
 1725WAT     H2 7621   7.047   3.300   2.088
 1725WAT    EPW 7622   7.031   3.353   2.032
 1726WAT      O 7623   5.856   3.600   2.938
 1726WAT     H1 7624   5.831   3.683   2.930
 1726WAT     H2 7625   5.790   3.562   2.979
 1726WAT    EPW 7626   5.843   3.606   2.943
 1727WAT      O 7627   5.847   4.571   2.728
 1727WAT     H1 7628   5.788   4.627   2.696
 1727WAT     H2 7629   5.890   4.544   2.657
 1727WAT    EPW 7630   5.845   4.575   2.713
 1728WAT      O 7631   6.431   4.355   2.476
 1728WAT     H1 7632   6.373   4.328   2.535
 1728WAT     H2 7633   6.494   4.294   2.478
 1728WAT    EPW 7634   6.432   4.342   2.485
 1729WAT      O 7635   7.046   4.584   2.228
 1729WAT     H1 7636   7.118   4.631   2.238
 1729WAT     H2 7637   7.068   4.505   2.256
 1729WAT    EPW 7638   7.060   4.579   2.234
 1730WAT      O 7639   6.862   4.623   2.427
 1730WAT     H1 7640   6.884   4.676   2.493
 1730WAT     H2 7641   6.939   4.606   2.389
 1730WAT    EPW 7642   6.877   4.628   2.431
 1731WAT      O 7643   6.490   3.295   3.917
 1731WAT     H1 7644   6.501   3.249   3.843
 1731WAT     H2 7645   6.519   3.375   3.896
 1731WAT    EPW 7646   6.496   3.300   3.903
 1732WAT      O 7647   6.002   4.438   2.521
 1732WAT     H1 7648   6.067   4.380   2.522
 1732WAT     H2 7649   6.041   4.513   2.499
 1732WAT    EPW 7650   6.017   4.440   2.518
 1733WAT      O 7651   7.575   3.347   2.647
 1733WAT     H1 7652   7.540   3.415   2.690
 1733WAT     H2 7653   7.511   3.287   2.649
 1733WAT    EPW 7654   7.561   3.348   2.654
 1734WAT      O 7655   7.106   4.624   3.257
 1734WAT     H1 7656   7.181   4.670   3.256
 1734WAT     H2 7657   7.094   4.603   3.174
 1734WAT    EPW 7658   7.115   4.628   3.245
 1735WAT      O 7659   6.063   3.255   3.815
 1735WAT     H1 7660   5.985   3.216   3.808
 1735WAT     H2 7661   6.112   3.213   3.756
 1735WAT    EPW 7662   6.059   3.243   3.805
 1736WAT      O 7663   6.084   4.287   2.871
 1736WAT     H1 7664   6.126   4.251   2.803
 1736WAT     H2 7665   6.116   4.244   2.940
 1736WAT    EPW 7666   6.095   4.275   2.871
 1737WAT      O 7667   6.407   4.572   2.800
 1737WAT     H1 7668   6.491   4.582   2.781
 1737WAT     H2 7669   6.377   4.654   2.807
 1737WAT    EPW 7670   6.415   4.585   2.799
 1738WAT      O 7671   6.728   3.019   3.732
 1738WAT     H1 7672   6.746   2.938   3.704
 1738WAT     H2 7673   6.714   3.063   3.658
 1738WAT    EPW 7674   6.728   3.013   3.717
 1739WAT      O 7675   6.787   3.511   2.609
 1739WAT     H1 7676   6.816   3.488   2.530
 1739WAT     H2 7677   6.861   3.519   2.656
 1739WAT    EPW 7678   6.802   3.509   2.604
 1740WAT      O 7679   6.860   3.545   2.121
 1740WAT     H1 7680   6.888   3.624   2.146
 1740WAT     H2 7681   6.782   3.562   2.085
 1740WAT    EPW 7682   6.852   3.559   2.120
 1741WAT      O 7683   7.264   4.743   2.268
 1741WAT     H1 7684   7.330   4.728   2.213
 1741WAT     H2 7685   7.300   4.734   2.347
 1741WAT    EPW 7686   7.279   4.739   2.272
 1742WAT      O 7687   6.306   4.694   3.374
 1742WAT     H1 7688   6.336   4.687   3.456
 1742WAT     H2 7689   6.244   4.633   3.370
 1742WAT    EPW 7690   6.302   4.684   3.386
 1743WAT      O 7691   5.798   3.309   3.574
 1743WAT     H1 7692   5.797   3.368   3.638
 1743WAT     H2 7693   5.857   3.341   3.518
 1743WAT    EPW 7694   5.807   3.323   3.575
 1744WAT      O 7695   7.032   4.343   3.628
 1744WAT     H1 7696   7.028   4.381   3.706
 1744WAT     H2 7697   7.117   4.339   3.611
 1744WAT    EPW 7698   7.044   4.348   3.637
 1745WAT      O 7699   6.745   4.362   2.103
 1745WAT     H1 7700   6.727   4.417   2.169
 1745WAT     H2 7701   6.822   4.391   2.073
 1745WAT    EPW 7702   6.754   4.375   2.108
 1746WAT      O 7703   7.096   3.152   2.208
 1746WAT     H1 7704   7.150   3.084   2.216
 1746WAT     H2 7705   7.102   3.192   2.286
 1746WAT    EPW 7706   7.105   3.148   2.221
 1747WAT      O 7707   5.892   3.269   2.465
 1747WAT     H1 7708   5.880   3.182   2.468
 1747WAT     H2 7709   5.844   3.298   2.532
 1747WAT    EPW 7710   5.883   3.260   2.475
 1748WAT      O 7711   6.106   4.510   3.287
 1748WAT     H1 7712   6.036   4.459   3.299
 1748WAT     H2 7713   6.132   4.489   3.206
 1748WAT    EPW 7714   6.099   4.499   3.277
 1749WAT      O 7715   6.822   3.390   2.340
 1749WAT     H1 7716   6.771   3.323   2.314
 1749WAT     H2 7717   6.827   3.440   2.269
 1749WAT    EPW 7718   6.815   3.387   2.325
 1750WAT      O 7719   6.877   4.659   3.378
 1750WAT     H1 7720   6.954   4.651   3.337
 1750WAT     H2 7721   6.819   4.647   3.314
 1750WAT    EPW 7722   6.880   4.656   3.362
 1751WAT      O 7723   6.822   3.084   2.329
 1751WAT     H1 7724   6.776   3.044   2.266
 1751WAT     H2 7725   6.899   3.099   2.291
 1751WAT    EPW 7726   6.827   3.080   2.314
 1752WAT      O 7727   7.505   4.719   2.668
 1752WAT     H1 7728   7.459   4.791   2.688
 1752WAT     H2 7729   7.443   4.662   2.644
 1752WAT    EPW 7730   7.489   4.722   2.667
 1753WAT      O 7731   6.682   3.320   2.781
 1753WAT     H1 7732   6.689   3.377   2.715
 1753WAT     H2 7733   6.694   3.370   2.852
 1753WAT    EPW 7734   6.685   3.336   2.782
 1754WAT      O 7735   7.204   4.304   2.622
 1754WAT     H1 7736   7.274   4.256   2.641
 1754WAT     H2 7737   7.138   4.247   2.627
 1754WAT    EPW 7738   7.205   4.288   2.626
 1755WAT      O 7739   6.242   4.395   3.543
 1755WAT     H1 7740   6.326   4.401   3.521
 1755WAT     H2 7741   6.238   4.435   3.621
 1755WAT    EPW 7742   6.254   4.402   3.552
 1756WAT      O 7743   6.143   2.903   2.616
 1756WAT     H1 7744   6.196   2.972   2.615
 1756WAT     H2 7745   6.143   2.875   2.533
 1756WAT    EPW 7746   6.150   2.909   2.603
 1757WAT      O 7747   6.438   3.946   3.018
 1757WAT     H1 7748   6.455   3.925   3.101
 1757WAT     H2 7749   6.373   3.893   2.997
 1757WAT    EPW 7750   6.431   3.935   3.027
 1758WAT      O 7751   7.061   3.337   3.370
 1758WAT     H1 7752   7.051   3.369   3.450
 1758WAT     H2 7753   7.002   3.274   3.366
 1758WAT    EPW 7754   7.051   3.333   3.381
 1759WAT      O 7755   6.513   3.940   3.277
 1759WAT     H1 7756   6.518   4.025   3.297
 1759WAT     H2 7757   6.485   3.903   3.351
 1759WAT    EPW 7758   6.510   3.947   3.291
 1760WAT      O 7759   7.131   4.009   3.190
 1760WAT     H1 7760   7.079   3.968   3.247
 1760WAT     H2 7761   7.118   4.094   3.208
 1760WAT    EPW 7762   7.121   4.016   3.201
 1761WAT      O 7763   7.187   2.932   2.653
 1761WAT     H1 7764   7.191   2.900   2.734
 1761WAT     H2 7765   7.219   2.867   2.604
 1761WAT    EPW 7766   7.192   2.918   2.658
 1762WAT      O 7767   5.795   4.377   3.898
 1762WAT     H1 7768   5.871   4.412   3.924
 1762WAT     H2 7769   5.813   4.292   3.893
 1762WAT    EPW 7770   5.809   4.369   3.901
 1763WAT      O 7771   7.433   3.355   3.484
 1763WAT     H1 7772   7.510   3.333   3.518
 1763WAT     H2 7773   7.385   3.377   3.554
 1763WAT    EPW 7774   7.437   3.355   3.499
 1764WAT      O 7775   6.187   3.284   2.781
 1764WAT     H1 7776   6.215   3.241   2.710
 1764WAT     H2 7777   6.170   3.220   2.838
 1764WAT    EPW 7778   6.189   3.268   2.779
 1765WAT      O 7779   7.456   4.053   2.203
 1765WAT     H1 7780   7.468   4.025   2.284
 1765WAT     H2 7781   7.537   4.055   2.170
 1765WAT    EPW 7782   7.470   4.049   2.210
 1766WAT      O 7783   6.170   4.026   2.736
 1766WAT     H1 7784   6.255   4.018   2.719
 1766WAT     H2 7785   6.134   3.958   2.695
 1766WAT    EPW 7786   6.177   4.015   2.727
 1767WAT      O 7787   6.046   4.699   2.860
 1767WAT     H1 7788   5.979   4.649   2.835
 1767WAT     H2 7789   6.087   4.717   2.785
 1767WAT    EPW 7790   6.042   4.694   2.845
 1768WAT      O 7791   6.001   3.394   3.089
 1768WAT     H1 7792   6.086   3.416   3.085
 1768WAT     H2 7793   5.963   3.451   3.036
 1768WAT    EPW 7794   6.008   3.406   3.081
 1769WAT      O 7795   7.246   3.707   2.161
 1769WAT     H1 7796   7.224   3.780   2.119
 1769WAT     H2 7797   7.201   3.712   2.236
 1769WAT    EPW 7798   7.236   3.718   2.166
 1770WAT      O 7799   6.407   4.027   2.560
 1770WAT     H1 7800   6.478   4.077   2.569
 1770WAT     H2 7801   6.429   3.970   2.497
 1770WAT    EPW 7802   6.420   4.026   2.552
 1771WAT      O 7803   5.822   4.191   2.892
 1771WAT     H1 7804   5.755   4.240   2.919
 1771WAT     H2 7805   5.890   4.246   2.894
 1771WAT    EPW 7806   5.822   4.207   2.896
 1772WAT      O 7807   6.587   3.562   3.901
 1772WAT     H1 7808   6.538   3.620   3.945
 1772WAT     H2 7809   6.584   3.592   3.819
 1772WAT    EPW 7810   6.579   3.575   3.896
 1773WAT      O 7811   5.829   3.860   2.402
 1773WAT     H1 7812   5.810   3.776   2.417
 1773WAT     H2 7813   5.895   3.856   2.345
 1773WAT    EPW 7814   5.836   3.847   2.396
 1774WAT      O 7815   7.465   3.149   2.335
 1774WAT     H1 7816   7.539   3.108   2.355
 1774WAT     H2 7817   7.491   3.220   2.292
 1774WAT    EPW 7818   7.479   3.153   2.331
 1775WAT      O 7819   6.859   4.397   2.792
 1775WAT     H1 7820   6.807   4.461   2.763
 1775WAT     H2 7821   6.890   4.361   2.719
 1775WAT    EPW 7822   6.856   4.401   2.777
 1776WAT      O 7823   5.846   4.276   2.359
 1776WAT     H1 7824   5.901   4.333   2.396
 1776WAT     H2 7825   5.823   4.225   2.426
 1776WAT    EPW 7826   5.851   4.277   2.375
 1777WAT      O 7827   6.266   4.176   3.068
 1777WAT     H1 7828   6.313   4.205   3.136
 1777WAT     H2 7829   6.324   4.128   3.023
 1777WAT    EPW 7830   6.282   4.173   3.072
 1778WAT      O 7831   7.110   3.378   2.842
 1778WAT     H1 7832   7.144   3.393   2.921
 1778WAT     H2 7833   7.065   3.304   2.853
 1778WAT    EPW 7834   7.108   3.369   2.855
 1779WAT      O 7835   5.829   4.121   2.122
 1779WAT     H1 7836   5.905   4.078   2.128
 1779WAT     H2 7837   5.830   4.174   2.191
 1779WAT    EPW 7838   5.840   4.123   2.133
 1780WAT      O 7839   5.923   3.943   2.923
 1780WAT     H1 7840   5.966   3.930   2.848
 1780WAT     H2 7841   5.902   4.028   2.920
 1780WAT    EPW 7842   5.926   3.954   2.911
 1781WAT      O 7843   6.558   3.300   2.288
 1781WAT     H1 7844   6.557   3.288   2.201
 1781WAT     H2 7845   6.539   3.384   2.297
 1781WAT    EPW 7846   6.555   3.310   2.276
 1782WAT      O 7847   7.463   4.542   3.437
 1782WAT     H1 7848   7.396   4.594   3.459
 1782WAT     H2 7849   7.469   4.552   3.351
 1782WAT    EPW 7850   7.454   4.551   3.428
 1783WAT      O 7851   6.331   4.295   2.751
 1783WAT     H1 7852   6.344   4.379   2.770
 1783WAT     H2 7853   6.398   4.255   2.790
 1783WAT    EPW 7854   6.343   4.301   2.759
 1784WAT      O 7855   6.144   3.643   3.737
 1784WAT     H1 7856   6.091   3.593   3.784
 1784WAT     H2 7857   6.146   3.604   3.659
 1784WAT    EPW 7858   6.137   3.630   3.732
 1785WAT      O 7859   6.193   3.583   2.251
 1785WAT     H1 7860   6.180   3.538   2.325
 1785WAT     H2 7861   6.135   3.549   2.196
 1785WAT    EPW 7862   6.182   3.571   2.254
 1786WAT      O 7863   6.210   3.766   2.911
 1786WAT     H1 7864   6.131   3.760   2.873
 1786WAT     H2 7865   6.217   3.691   2.955
 1786WAT    EPW 7866   6.199   3.754   2.912
 1787WAT      O 7867   6.253   3.740   3.258
 1787WAT     H1 7868   6.255   3.672   3.203
 1787WAT     H2 7869   6.188   3.789   3.227
 1787WAT    EPW 7870   6.243   3.737   3.245
 1788WAT      O 7871   7.242   3.511   3.097
 1788WAT     H1 7872   7.176   3.544   3.144
 1788WAT     H2 7873   7.261   3.574   3.040
 1788WAT    EPW 7874   7.235   3.525   3.096
 1789WAT      O 7875   6.663   4.617   3.197
 1789WAT     H1 7876   6.635   4.553   3.145
 1789WAT     H2 7877   6.642   4.690   3.153
 1789WAT    EPW 7878   6.655   4.619   3.183
 1790WAT      O 7879   6.907   3.101   3.440
 1790WAT     H1 7880   6.921   3.019   3.416
 1790WAT     H2 7881   6.944   3.107   3.519
 1790WAT    EPW 7882   6.914   3.090   3.448
 1791WAT      O 7883   7.061   3.308   2.448
 1791WAT     H1 7884   7.110   3.379   2.441
 1791WAT     H2 7885   6.982   3.334   2.422
 1791WAT    EPW 7886   7.057   3.322   2.443
 1792WAT      O 7887   6.032   3.875   3.814
 1792WAT     H1 7888   6.029   3.925   3.742
 1792WAT     H2 7889   6.066   3.800   3.784
 1792WAT    EPW 7890   6.037   3.871   3.799
 1793WAT      O 7891   7.193   4.096   3.639
 1793WAT     H1 7892   7.241   4.167   3.649
 1793WAT     H2 7893   7.232   4.053   3.574
 1793WAT    EPW 7894   7.206   4.100   3.631
 1794WAT      O 7895   6.622   4.380   3.757
 1794WAT     H1 7896   6.658   4.362   3.835
 1794WAT     H2 7897   6.579   4.307   3.737
 1794WAT    EPW 7898   6.621   4.367   3.766
 1795WAT      O 7899   6.720   3.455   3.021
 1795WAT     H1 7900   6.768   3.525   3.042
 1795WAT     H2 7901   6.757   3.390   3.066
 1795WAT    EPW 7902   6.732   3.456   3.031
 1796WAT      O 7903   6.938   3.772   2.248
 1796WAT     H1 7904   6.938   3.844   2.199
 1796WAT     H2 7905   6.875   3.785   2.306
 1796WAT    EPW 7906   6.929   3.784   2.250
 1797WAT      O 7907   7.436   4.159   2.646
 1797WAT     H1 7908   7.471   4.124   2.718
 1797WAT     H2 7909   7.435   4.093   2.589
 1797WAT    EPW 7910   7.441   4.144   2.649
 1798WAT      O 7911   7.040   4.465   3.031
 1798WAT     H1 7912   6.980   4.436   2.975
 1798WAT     H2 7913   7.095   4.510   2.980
 1798WAT    EPW 7914   7.039   4.468   3.015
 1799WAT      O 7915   7.041   4.150   2.971
 1799WAT     H1 7916   6.962   4.173   2.998
 1799WAT     H2 7917   7.067   4.091   3.029
 1799WAT    EPW 7918   7.033   4.145   2.984
 1800WAT      O 7919   6.431   4.632   2.416
 1800WAT     H1 7920   6.416   4.554   2.453
 1800WAT     H2 7921   6.500   4.617   2.364
 1800WAT    EPW 7922   6.439   4.618   2.414
 1801WAT      O 7923   6.398   3.006   2.214
 1801WAT     H1 7924   6.407   2.995   2.301
 1801WAT     H2 7925   6.327   3.056   2.208
 1801WAT    EPW 7926   6.389   3.012   2.226
 1802WAT      O 7927   6.660   4.583   2.256
 1802WAT     H1 7928   6.722   4.599   2.315
 1802WAT     H2 7929   6.663   4.652   2.203
 1802WAT    EPW 7930   6.670   4.596   2.257
 1803WAT      O 7931   7.367   3.950   3.455
 1803WAT     H1 7932   7.373   3.963   3.369
 1803WAT     H2 7933   7.443   3.982   3.486
 1803WAT    EPW 7934   7.379   3.957   3.447
 1804WAT      O 7935   6.987   4.485   3.883
 1804WAT     H1 7936   7.003   4.513   3.964
 1804WAT     H2 7937   7.013   4.551   3.833
 1804WAT    EPW 7938   6.993   4.499   3.888
 1805WAT      O 7939   7.471   2.980   3.754
 1805WAT     H1 7940   7.407   2.940   3.710
 1805WAT     H2 7941   7.473   2.937   3.830
 1805WAT    EPW 7942   7.462   2.968   3.759
 1806WAT      O 7943   6.110   3.837   2.339
 1806WAT     H1 7944   6.142   3.759   2.317
 1806WAT     H2 7945   6.175   3.873   2.384
 1806WAT    EPW 7946   6.124   3.830   2.342
 1807WAT      O 7947   6.941   3.931   3.415
 1807WAT     H1 7948   6.925   3.992   3.476
 1807WAT     H2 7949   6.994   3.875   3.456
 1807WAT    EPW 7950   6.946   3.932   3.430
 1808WAT      O 7951   5.810   3.003   2.436
 1808WAT     H1 7952   5.823   2.932   2.386
 1808WAT     H2 7953   5.773   2.971   2.508
 1808WAT    EPW 7954   5.806   2.987   2.439
 1809WAT      O 7955   6.779   3.771   2.481
 1809WAT     H1 7956   6.785   3.836   2.539
 1809WAT     H2 7957   6.760   3.701   2.530
 1809WAT    EPW 7958   6.777   3.770   2.497
 1810WAT      O 7959   7.302   4.204   3.068
 1810WAT     H1 7960   7.254   4.233   3.002
 1810WAT     H2 7961   7.266   4.126   3.086
 1810WAT    EPW 7962   7.289   4.197   3.061
 1811WAT      O 7963   6.229   3.222   2.132
 1811WAT     H1 7964   6.177   3.228   2.062
 1811WAT     H2 7965   6.307   3.246   2.103
 1811WAT    EPW 7966   6.233   3.227   2.118
 1812WAT      O 7967   6.701   3.975   2.924
 1812WAT     H1 7968   6.617   3.956   2.932
 1812WAT     H2 7969   6.734   3.959   3.004
 1812WAT    EPW 7970   6.693   3.970   2.937
 1813WAT      O 7971   6.376   4.648   2.013
 1813WAT     H1 7972   6.420   4.579   2.042
 1813WAT     H2 7973   6.397   4.711   2.070
 1813WAT    EPW 7974   6.386   4.647   2.026
 1814WAT      O 7975   6.086   3.945   3.156
 1814WAT     H1 7976   6.158   3.994   3.152
 1814WAT     H2 7977   6.059   3.942   3.073
 1814WAT    EPW 7978   6.093   3.952   3.143
 1815WAT      O 7979   6.409   3.462   2.829
 1815WAT     H1 7980   6.494   3.443   2.839
 1815WAT     H2 7981   6.372   3.384   2.816
 1815WAT    EPW 7982   6.416   3.448   2.829
 1816WAT      O 7983   5.891   3.596   2.495
 1816WAT     H1 7984   5.940   3.566   2.561
 1816WAT     H2 7985   5.904   3.536   2.432
 1816WAT    EPW 7986   5.900   3.583   2.495
 1817WAT      O 7987   7.395   3.898   3.180
 1817WAT     H1 7988   7.394   3.820   3.220
 1817WAT     H2 7989   7.311   3.921   3.179
 1817WAT    EPW 7990   7.382   3.890   3.186
 1818WAT      O 7991   6.344   3.739   2.044
 1818WAT     H1 7992   6.283   3.699   2.091
 1818WAT     H2 7993   6.305   3.751   1.966
 1818WAT    EPW 7994   6.329   3.735   2.039
 1819WAT      O 7995   6.026   4.050   3.584
 1819WAT     H1 7996   5.983   3.998   3.528
 1819WAT     H2 7997   5.990   4.129   3.569
 1819WAT    EPW 7998   6.014   4.054   3.573
 1820WAT      O 7999   6.489   3.585   2.315
 1820WAT     H1 8000   6.516   3.668   2.321
 1820WAT     H2 8001   6.403   3.593   2.305
 1820WAT    EPW 8002   6.480   3.598   2.314
 1821WAT      O 8003   7.286   3.297   3.778
 1821WAT     H1 8004   7.234   3.343   3.830
 1821WAT     H2 8005   7.250   3.218   3.777
 1821WAT    EPW 8006   7.273   3.292   3.785
 1822WAT      O 8007   5.837   3.182   2.968
 1822WAT     H1 8008   5.842   3.217   2.888
 1822WAT     H2 8009   5.913   3.206   3.005
 1822WAT    EPW 8010   5.849   3.191   2.962
 1823WAT      O 8011   7.136   3.654   3.785
 1823WAT     H1 8012   7.143   3.665   3.872
 1823WAT     H2 8013   7.072   3.710   3.763
 1823WAT    EPW 8014   7.127   3.664   3.795
 1824WAT      O 8015   7.362   3.686   3.622
 1824WAT     H1 8016   7.394   3.765   3.642
 1824WAT     H2 8017   7.325   3.659   3.696
 1824WAT    EPW 8018   7.362   3.694   3.636
 1825WAT      O 8019   7.294   4.329   2.175
 1825WAT     H1 8020   7.327   4.248   2.178
 1825WAT     H2 8021   7.218   4.321   2.218
 1825WAT    EPW 8022   7.288   4.316   2.182
 1826WAT      O 8023   7.342   3.512   2.741
 1826WAT     H1 8024   7.268   3.480   2.773
 1826WAT     H2 8025   7.342   3.595   2.769
 1826WAT    EPW 8026   7.331   3.519   2.750
 1827WAT      O 8027   7.031   4.116   2.115
 1827WAT     H1 8028   7.100   4.065   2.098
 1827WAT     H2 8029   6.990   4.121   2.039
 1827WAT    EPW 8030   7.035   4.109   2.101
 1828WAT      O 8031   6.499   4.231   3.246
 1828WAT     H1 8032   6.470   4.290   3.302
 1828WAT     H2 8033   6.505   4.275   3.171
 1828WAT    EPW 8034   6.496   4.246   3.243
 1829WAT      O 8035   6.297   4.126   3.585
 1829WAT     H1 8036   6.217   4.097   3.602
 1829WAT     H2 8037   6.288   4.213   3.586
 1829WAT    EPW 8038   6.284   4.135   3.588
 1830WAT      O 8039   7.233   3.145   3.487
 1830WAT     H1 8040   7.308   3.190   3.481
 1830WAT     H2 8041   7.177   3.192   3.440
 1830WAT    EPW 8042   7.236   3.159   3.479
 1831WAT      O 8043   6.751   3.873   3.195
 1831WAT     H1 8044   6.799   3.911   3.257
 1831WAT     H2 8045   6.669   3.887   3.221
 1831WAT    EPW 8046   6.746   3.881   3.208
 1832WAT      O 8047   6.422   3.434   3.469
 1832WAT     H1 8048   6.438   3.359   3.511
 1832WAT     H2 8049   6.418   3.409   3.385
 1832WAT    EPW 8050   6.424   3.419   3.463
 1833WAT      O 8051   6.677   4.613   2.717
 1833WAT     H1 8052   6.732   4.681   2.723
 1833WAT     H2 8053   6.642   4.621   2.638
 1833WAT    EPW 8054   6.680   4.624   2.706
 1834WAT      O 8055   7.362   2.943   3.254
 1834WAT     H1 8056   7.334   3.025   3.249
 1834WAT     H2 8057   7.433   2.948   3.303
 1834WAT    EPW 8058   7.368   2.956   3.261
 1835WAT      O 8059   6.597   3.014   3.457
 1835WAT     H1 8060   6.668   3.046   3.417
 1835WAT     H2 8061   6.621   2.934   3.479
 1835WAT    EPW 8062   6.611   3.007   3.454
 1836WAT      O 8063   6.496   4.435   3.056
 1836WAT     H1 8064   6.433   4.494   3.038
 1836WAT     H2 8065   6.521   4.407   2.978
 1836WAT    EPW 8066   6.490   4.440   3.042
 1837WAT      O 8067   6.927   4.099   3.755
 1837WAT     H1 8068   7.002   4.127   3.723
 1837WAT     H2 8069   6.872   4.104   3.687
 1837WAT    EPW 8070   6.930   4.104   3.740
 1838WAT      O 8071   7.318   4.354   3.606
 1838WAT     H1 8072   7.352   4.381   3.681
 1838WAT     H2 8073   7.347   4.412   3.548
 1838WAT    EPW 8074   7.327   4.366   3.608
 1839WAT      O 8075   7.504   3.568   2.140
 1839WAT     H1 8076   7.542   3.636   2.100
 1839WAT     H2 8077   7.420   3.591   2.143
 1839WAT    EPW 8078   7.497   3.582   2.134
 1840WAT      O 8079   6.655   3.913   2.048
 1840WAT     H1 8080   6.575   3.895   2.019
 1840WAT     H2 8081   6.652   3.998   2.067
 1840WAT    EPW 8082   6.643   3.923   2.047
 1841WAT      O 8083   6.248   3.520   3.063
 1841WAT     H1 8084   6.292   3.509   2.988
 1841WAT     H2 8085   6.303   3.488   3.123
 1841WAT    EPW 8086   6.263   3.514   3.061
 1842WAT      O 8087   7.050   3.430   3.622
 1842WAT     H1 8088   6.985   3.477   3.657
 1842WAT     H2 8089   7.106   3.421   3.688
 1842WAT    EPW 8090   7.049   3.436   3.637
 1843WAT      O 8091   7.019   3.584   3.252
 1843WAT     H1 8092   7.049   3.626   3.322
 1843WAT     H2 8093   7.022   3.500   3.275
 1843WAT    EPW 8094   7.024   3.577   3.266
 1844WAT      O 8095   6.761   4.600   3.644
 1844WAT     H1 8096   6.809   4.540   3.603
 1844WAT     H2 8097   6.726   4.556   3.711
 1844WAT    EPW 8098   6.763   4.585   3.648
 1845WAT      O 8099   7.273   3.528   2.477
 1845WAT     H1 8100   7.294   3.508   2.559
 1845WAT     H2 8101   7.349   3.555   2.443
 1845WAT    EPW 8102   7.288   3.529   2.484
 1846WAT      O 8103   6.603   3.018   3.068
 1846WAT     H1 8104   6.520   3.003   3.091
 1846WAT     H2 8105   6.599   3.022   2.980
 1846WAT    EPW 8106   6.590   3.017   3.058
 1847WAT      O 8107   7.376   3.137   2.624
 1847WAT     H1 8108   7.304   3.090   2.642
 1847WAT     H2 8109   7.359   3.171   2.546
 1847WAT    EPW 8110   7.363   3.135   2.615
 1848WAT      O 8111   7.420   3.931   2.462
 1848WAT     H1 8112   7.467   3.858   2.458
 1848WAT     H2 8113   7.338   3.902   2.455
 1848WAT    EPW 8114   7.415   3.916   2.461
 1849WAT      O 8115   6.767   4.122   3.546
 1849WAT     H1 8116   6.687   4.116   3.581
 1849WAT     H2 8117   6.774   4.207   3.527
 1849WAT    EPW 8118   6.756   4.134   3.549
 1850WAT      O 8119   5.859   3.058   3.671
 1850WAT     H1 8120   5.845   3.138   3.638
 1850WAT     H2 8121   5.781   3.034   3.700
 1850WAT    EPW 8122   5.846   3.066   3.670
 1851WAT      O 8123   6.350   4.743   3.078
 1851WAT     H1 8124   6.351   4.749   3.165
 1851WAT     H2 8125   6.307   4.668   3.063
 1851WAT    EPW 8126   6.344   4.733   3.089
 1852WAT      O 8127   6.166   3.332   2.394
 1852WAT     H1 8128   6.178   3.300   2.314
 1852WAT     H2 8129   6.085   3.308   2.413
 1852WAT    EPW 8130   6.156   3.324   2.385
 1853WAT      O 8131   7.041   4.048   2.698
 1853WAT     H1 8132   7.049   4.082   2.778
 1853WAT     H2 8133   7.058   3.963   2.710
 1853WAT    EPW 8134   7.045   4.040   2.712
 1854WAT      O 8135   6.794   3.975   2.654
 1854WAT     H1 8136   6.764   3.944   2.730
 1854WAT     H2 8137   6.863   4.022   2.678
 1854WAT    EPW 8138   6.800   3.977   2.669
 1855WAT      O 8139   6.816   4.387   3.457
 1855WAT     H1 8140   6.885   4.376   3.510
 1855WAT     H2 8141   6.829   4.466   3.423
 1855WAT    EPW 8142   6.828   4.397   3.460
 1856WAT      O 8143   7.085   3.714   3.496
 1856WAT     H1 8144   7.059   3.642   3.538
 1856WAT     H2 8145   7.167   3.726   3.523
 1856WAT    EPW 8146   7.093   3.705   3.506
 1857WAT      O 8147   6.026   4.693   3.622
 1857WAT     H1 8148   5.961   4.636   3.632
 1857WAT     H2 8149   5.989   4.770   3.637
 1857WAT    EPW 8150   6.011   4.696   3.626
 1858WAT      O 8151   6.878   3.833   3.815
 1858WAT     H1 8152   6.910   3.902   3.771
 1858WAT     H2 8153   6.808   3.866   3.855
 1858WAT    EPW 8154   6.872   3.848   3.814
 1859WAT      O 8155   7.187   4.671   2.907
 1859WAT     H1 8156   7.141   4.735   2.945
 1859WAT     H2 8157   7.257   4.663   2.958
 1859WAT    EPW 8158   7.190   4.679   2.921
 1860WAT      O 8159   6.857   4.180   3.200
 1860WAT     H1 8160   6.787   4.220   3.235
 1860WAT     H2 8161   6.924   4.223   3.234
 1860WAT    EPW 8162   6.856   4.192   3.211
 1861WAT      O 8163   7.394   4.439   3.858
 1861WAT     H1 8164   7.472   4.400   3.867
 1861WAT     H2 8165   7.347   4.405   3.924
 1861WAT    EPW 8166   7.399   4.428   3.869
 1862WAT      O 8167   6.163   3.534   3.435
 1862WAT     H1 8168   6.201   3.595   3.386
 1862WAT     H2 8169   6.231   3.486   3.464
 1862WAT    EPW 8170   6.179   3.536   3.432
 1863WAT      O 8171   5.941   3.378   3.363
 1863WAT     H1 8172   5.949   3.361   3.277
 1863WAT     H2 8173   6.016   3.419   3.382
 1863WAT    EPW 8174   5.953   3.382   3.353
 1864WAT      O 8175   7.497   3.642   2.407
 1864WAT     H1 8176   7.507   3.637   2.320
 1864WAT     H2 8177   7.571   3.609   2.438
 1864WAT    EPW 8178   7.509   3.637   2.399
 1865WAT      O 8179   6.196   3.119   3.604
 1865WAT     H1 8180   6.188   3.035   3.624
 1865WAT     H2 8181   6.165   3.124   3.522
 1865WAT    EPW 8182   6.191   3.108   3.595
 1866WAT      O 8183   6.889   4.339   2.517
 1866WAT     H1 8184   6.868   4.422   2.501
 1866WAT     H2 8185   6.811   4.301   2.530
 1866WAT    EPW 8186   6.874   4.346   2.517
 1867WAT      O 8187   7.407   3.657   3.342
 1867WAT     H1 8188   7.407   3.571   3.355
 1867WAT     H2 8189   7.414   3.689   3.423
 1867WAT    EPW 8190   7.408   3.649   3.356
 1868WAT      O 8191   5.881   3.901   3.385
 1868WAT     H1 8192   5.913   3.923   3.307
 1868WAT     H2 8193   5.871   3.814   3.380
 1868WAT    EPW 8194   5.884   3.891   3.373
 1869WAT      O 8195   6.026   3.495   2.047
 1869WAT     H1 8196   5.959   3.496   2.102
 1869WAT     H2 8197   6.036   3.410   2.028
 1869WAT    EPW 8198   6.018   3.482   2.052
 1870WAT      O 8199   6.995   3.137   3.720
 1870WAT     H1 8200   7.004   3.208   3.770
 1870WAT     H2 8201   6.931   3.092   3.760
 1870WAT    EPW 8202   6.987   3.141   3.734
 1871WAT      O 8203   6.894   3.156   2.806
 1871WAT     H1 8204   6.824   3.208   2.800
 1871WAT     H2 8205   6.898   3.118   2.727
 1871WAT    EPW 8206   6.885   3.158   2.793
 1872WAT      O 8207   6.425   4.365   2.158
 1872WAT     H1 8208   6.469   4.373   2.233
 1872WAT     H2 8209   6.345   4.343   2.184
 1872WAT    EPW 8210   6.420   4.363   2.173
 1873WAT      O 8211   7.254   3.208   3.086
 1873WAT     H1 8212   7.340   3.217   3.100
 1873WAT     H2 8213   7.217   3.263   3.142
 1873WAT    EPW 8214   7.261   3.217   3.096
 1874WAT      O 8215   6.357   3.830   3.524
 1874WAT     H1 8216   6.317   3.908   3.531
 1874WAT     H2 8217   6.316   3.793   3.456
 1874WAT    EPW 8218   6.345   3.836   3.515
 1875WAT      O 8219   7.285   3.736   2.935
 1875WAT     H1 8220   7.351   3.790   2.951
 1875WAT     H2 8221   7.250   3.767   2.861
 1875WAT    EPW 8222   7.289   3.748   2.926
 1876WAT      O 8223   7.316   4.542   2.516
 1876WAT     H1 8224   7.298   4.477   2.571
 1876WAT     H2 8225   7.387   4.515   2.473
 1876WAT    EPW 8226   7.324   4.528   2.518
 1877WAT      O 8227   6.158   4.272   2.218
 1877WAT     H1 8228   6.134   4.241   2.296
 1877WAT     H2 8229   6.155   4.202   2.167
 1877WAT    EPW 8230   6.154   4.257   2.222
 1878WAT      O 8231   6.440   4.097   2.093
 1878WAT     H1 8232   6.358   4.070   2.107
 1878WAT     H2 8233   6.437   4.182   2.111
 1878WAT    EPW 8234   6.427   4.105   2.097
 1879WAT      O 8235   6.400   3.128   3.269
 1879WAT     H1 8236   6.313   3.136   3.277
 1879WAT     H2 8237   6.422   3.076   3.335
 1879WAT    EPW 8238   6.390   3.122   3.280
 1880WAT      O 8239   6.810   3.203   3.106
 1880WAT     H1 8240   6.736   3.157   3.117
 1880WAT     H2 8241   6.867   3.162   3.158
 1880WAT    EPW 8242   6.808   3.190   3.115
 1881WAT      O 8243   7.083   4.287   3.285
 1881WAT     H1 8244   7.104   4.318   3.364
 1881WAT     H2 8245   7.077   4.360   3.236
 1881WAT    EPW 8246   7.085   4.303   3.289
 1882WAT      O 8247   7.037   4.709   3.709
 1882WAT     H1 8248   6.961   4.707   3.665
 1882WAT     H2 8249   7.054   4.794   3.718
 1882WAT    EPW 8250   7.028   4.721   3.704
 1883WAT      O 8251   6.560   3.636   3.626
 1883WAT     H1 8252   6.528   3.578   3.569
 1883WAT     H2 8253   6.525   3.711   3.602
 1883WAT    EPW 8254   6.550   3.638   3.614
 1884WAT      O 8255   6.640   2.961   2.089
 1884WAT     H1 8256   6.648   2.985   2.006
 1884WAT     H2 8257   6.566   2.998   2.115
 1884WAT    EPW 8258   6.630   2.970   2.081
 1885WAT      O 8259   7.565   4.151   3.231
 1885WAT     H1 8260   7.561   4.065   3.217
 1885WAT     H2 8261   7.495   4.182   3.187
 1885WAT    EPW 8262   7.554   4.143   3.222
 1886WAT      O 8263   6.404   4.671   3.651
 1886WAT     H1 8264   6.408   4.684   3.737
 1886WAT     H2 8265   6.469   4.615   3.636
 1886WAT    EPW 8266   6.414   4.665   3.662
 1887WAT      O 8267   7.375   4.477   3.110
 1887WAT     H1 8268   7.428   4.469   3.041
 1887WAT     H2 8269   7.336   4.400   3.116
 1887WAT    EPW 8270   7.377   4.465   3.101
 1888WAT      O 8271   6.122   3.136   3.333
 1888WAT     H1 8272   6.088   3.059   3.310
 1888WAT     H2 8273   6.052   3.189   3.340
 1888WAT    EPW 8274   6.107   3.133   3.331
 1889WAT      O 8275   7.026   3.022   3.031
 1889WAT     H1 8276   7.093   3.076   3.044
 1889WAT     H2 8277   6.976   3.064   2.974
 1889WAT    EPW 8278   7.029   3.036   3.024
 1890WAT      O 8279   6.163   4.509   3.787
 1890WAT     H1 8280   6.223   4.553   3.834
 1890WAT     H2 8281   6.127   4.572   3.738
 1890WAT    EPW 8282   6.167   4.525   3.787
 1891WAT      O 8283   6.962   3.603   2.780
 1891WAT     H1 8284   7.017   3.542   2.810
 1891WAT     H2 8285   6.920   3.629   2.852
 1891WAT    EPW 8286   6.964   3.597   2.795
 1892WAT      O 8287   5.987   3.468   2.729
 1892WAT     H1 8288   5.950   3.498   2.802
 1892WAT     H2 8289   6.041   3.405   2.757
 1892WAT    EPW 8290   5.990   3.463   2.744
 1893WAT      O 8291   5.956   4.308   3.480
 1893WAT     H1 8292   5.899   4.350   3.531
 1893WAT     H2 8293   6.029   4.355   3.490
 1893WAT    EPW 8294   5.958   4.321   3.489
 1894WAT      O 8295   7.159   3.786   2.437
 1894WAT     H1 8296   7.166   3.701   2.455
 1894WAT     H2 8297   7.077   3.794   2.409
 1894WAT    EPW 8298   7.148   3.774   2.435
 1895WAT      O 8299   6.135   4.635   2.358
 1895WAT     H1 8300   6.120   4.651   2.273
 1895WAT     H2 8301   6.221   4.643   2.365
 1895WAT    EPW 8302   6.145   4.639   2.346
 1896WAT      O 8303   6.551   3.875   2.330
 1896WAT     H1 8304   6.561   3.889   2.245
 1896WAT     H2 8305   6.633   3.869   2.360
 1896WAT    EPW 8306   6.565   3.876   2.322
 1897WAT      O 8307   7.467   4.681   2.078
 1897WAT     H1 8308   7.531   4.668   2.136
 1897WAT     H2 8309   7.433   4.602   2.067
 1897WAT    EPW 8310   7.472   4.667   2.085
 1898WAT      O 8311   7.487   3.923   3.752
 1898WAT     H1 8312   7.550   3.906   3.809
 1898WAT     H2 8313   7.528   3.963   3.686
 1898WAT    EPW 8314   7.502   3.926   3.751
 1899WAT      O 8315   7.075   4.308   2.311
 1899WAT     H1 8316   7.050   4.295   2.393
 1899WAT     H2 8317   7.043   4.238   2.268
 1899WAT    EPW 8318   7.066   4.296   2.317
 1900WAT      O 8319   7.549   3.379   3.825
 1900WAT     H1 8320   7.530   3.444   3.881
 1900WAT     H2 8321   7.477   3.330   3.825
 1900WAT    EPW 8322   7.536   3.382   3.834
 1901WAT      O 8323   7.539   3.473   3.123
 1901WAT     H1 8324   7.456   3.498   3.115
 1901WAT     H2 8325   7.534   3.389   3.145
 1901WAT    EPW 8326   7.526   3.465   3.125
 1902WAT      O 8327   6.465   3.172   3.642
 1902WAT     H1 8328   6.489   3.115   3.581
 1902WAT     H2 8329   6.381   3.154   3.656
 1902WAT    EPW 8330   6.456   3.161   3.635
 1903WAT      O 8331   7.228   3.934   3.887
 1903WAT     H1 8332   7.315   3.930   3.884
 1903WAT     H2 8333   7.206   3.976   3.814
 1903WAT    EPW 8334   7.238   3.940   3.876
 1904WAT      O 8335   6.203   4.517   3.005
 1904WAT     H1 8336   6.195   4.436   2.974
 1904WAT     H2 8337   6.159   4.565   2.948
 1904WAT    EPW 8338   6.196   4.512   2.992
 1905WAT      O 8339   6.763   4.128   2.254
 1905WAT     H1 8340   6.835   4.094   2.218
 1905WAT     H2 8341   6.760   4.208   2.219
 1905WAT    EPW 8342   6.773   4.135   2.243
 1906WAT      O 8343   5.960   4.741   3.363
 1906WAT     H1 8344   6.010   4.735   3.435
 1906WAT     H2 8345   5.979   4.668   3.320
 1906WAT    EPW 8346   5.971   4.729   3.368
 1907WAT      O 8347   6.904   2.993   0.677
 1907WAT     H1 8348   6.880   3.041   0.609
 1907WAT     H2 8349   6.991   2.985   0.667
 1907WAT    EPW 8350   6.913   2.999   0.666
 1908WAT      O 8351   6.885   3.684   1.145
 1908WAT     H1 8352   6.833   3.744   1.181
 1908WAT     H2 8353   6.925   3.647   1.213
 1908WAT    EPW 8354   6.883   3.688   1.160
 1909WAT      O 8355   5.872   4.098   0.690
 1909WAT     H1 8356   5.828   4.110   0.764
 1909WAT     H2 8357   5.844   4.021   0.662
 1909WAT    EPW 8358   5.861   4.088   0.697
 1910WAT      O 8359   7.500   4.428   0.442
 1910WAT     H1 8360   7.570   4.376   0.441
 1910WAT     H2 8361   7.441   4.384   0.395
 1910WAT    EPW 8362   7.501   4.414   0.435
 1911WAT      O 8363   5.846   3.477   0.341
 1911WAT     H1 8364   5.769   3.494   0.305
 1911WAT     H2 8365   5.850   3.390   0.343
 1911WAT    EPW 8366   5.835   3.467   0.336
 1912WAT      O 8367   6.160   4.004   0.208
 1912WAT     H1 8368   6.121   3.967   0.139
 1912WAT     H2 8369   6.152   3.944   0.271
 1912WAT    EPW 8370   6.153   3.989   0.207
 1913WAT      O 8371   7.152   3.791   0.812
 1913WAT     H1 8372   7.160   3.791   0.725
 1913WAT     H2 8373   7.094   3.728   0.827
 1913WAT    EPW 8374   7.145   3.782   0.802
 1914WAT      O 8375   6.123   4.168   0.598
 1914WAT     H1 8376   6.184   4.151   0.658
 1914WAT     H2 8377   6.048   4.154   0.640
 1914WAT    EPW 8378   6.121   4.163   0.613
 1915WAT      O 8379   6.551   3.101   0.593
 1915WAT     H1 8380   6.544   3.169   0.538
 1915WAT     H2 8381   6.625   3.062   0.568
 1915WAT    EPW 8382   6.561   3.106   0.581
 1916WAT      O 8383   6.012   4.477   0.206
 1916WAT     H1 8384   6.059   4.485   0.133
 1916WAT     H2 8385   6.058   4.419   0.253
 1916WAT    EPW 8386   6.026   4.470   0.202
 1917WAT      O 8387   5.866   4.372   1.316
 1917WAT     H1 8388   5.879   4.344   1.397
 1917WAT     H2 8389   5.805   4.318   1.285
 1917WAT    EPW 8390   5.859   4.360   1.323
 1918WAT      O 8391   6.523   4.124   1.822
 1918WAT     H1 8392   6.500   4.124   1.906
 1918WAT     H2 8393   6.449   4.109   1.780
 1918WAT    EPW 8394   6.509   4.122   1.828
 1919WAT      O 8395   6.011   3.824   0.736
 1919WAT     H1 8396   5.964   3.785   0.673
 1919WAT     H2 8397   6.081   3.772   0.745
 1919WAT    EPW 8398   6.014   3.810   0.728
 1920WAT      O 8399   6.461   3.385   1.271
 1920WAT     H1 8400   6.529   3.387   1.216
 1920WAT     H2 8401   6.457   3.301   1.295
 1920WAT    EPW 8402   6.471   3.373   1.266
 1921WAT      O 8403   6.522   4.443   1.549
 1921WAT     H1 8404   6.535   4.519   1.508
 1921WAT     H2 8405   6.601   4.407   1.551
 1921WAT    EPW 8406   6.535   4.449   1.543
 1922WAT      O 8407   6.211   3.634   0.738
 1922WAT     H1 8408   6.292   3.615   0.762
 1922WAT     H2 8409   6.163   3.572   0.778
 1922WAT    EPW 8410   6.216   3.622   0.748
 1923WAT      O 8411   6.631   4.232   0.999
 1923WAT     H1 8412   6.666   4.152   1.002
 1923WAT     H2 8413   6.698   4.282   0.974
 1923WAT    EPW 8414   6.646   4.227   0.996
 1924WAT      O 8415   6.637   4.177   0.620
 1924WAT     H1 8416   6.670   4.112   0.669
 1924WAT     H2 8417   6.661   4.156   0.539
 1924WAT    EPW 8418   6.645   4.164   0.615
 1925WAT      O 8419   6.834   3.590   1.754
 1925WAT     H1 8420   6.749   3.580   1.736
 1925WAT     H2 8421   6.837   3.664   1.800
 1925WAT    EPW 8422   6.822   3.599   1.758
 1926WAT      O 8423   6.270   3.143   0.665
 1926WAT     H1 8424   6.241   3.193   0.600
 1926WAT     H2 8425   6.357   3.151   0.659
 1926WAT    EPW 8426   6.279   3.152   0.654
 1927WAT      O 8427   7.289   2.886   1.666
 1927WAT     H1 8428   7.274   2.963   1.627
 1927WAT     H2 8429   7.212   2.864   1.700
 1927WAT    EPW 8430   7.276   2.894   1.665
 1928WAT      O 8431   6.568   3.057   0.887
 1928WAT     H1 8432   6.576   3.143   0.900
 1928WAT     H2 8433   6.565   3.050   0.800
 1928WAT    EPW 8434   6.569   3.069   0.876
 1929WAT      O 8435   5.856   3.600   1.037
 1929WAT     H1 8436   5.831   3.683   1.030
 1929WAT     H2 8437   5.790   3.562   1.079
 1929WAT    EPW 8438   5.843   3.606   1.042
 1930WAT      O 8439   5.847   4.571   0.827
 1930WAT     H1 8440   5.788   4.627   0.796
 1930WAT     H2 8441   5.890   4.544   0.756
 1930WAT    EPW 8442   5.845   4.575   0.812
 1931WAT      O 8443   6.431   4.355   0.575
 1931WAT     H1 8444   6.373   4.328   0.634
 1931WAT     H2 8445   6.494   4.294   0.578
 1931WAT    EPW 8446   6.432   4.342   0.584
 1932WAT      O 8447   7.046   4.584   0.327
 1932WAT     H1 8448   7.118   4.631   0.338
 1932WAT     H2 8449   7.068   4.505   0.355
 1932WAT    EPW 8450   7.060   4.579   0.333
 1933WAT      O 8451   6.862   4.623   0.526
 1933WAT     H1 8452   6.884   4.676   0.593
 1933WAT     H2 8453   6.939   4.606   0.488
 1933WAT    EPW 8454   6.877   4.628   0.531
 1934WAT      O 8455   6.159   3.082   1.086
 1934WAT     H1 8456   6.107   3.019   1.055
 1934WAT     H2 8457   6.218   3.038   1.133
 1934WAT    EPW 8458   6.160   3.066   1.089
 1935WAT      O 8459   6.490   3.295   2.016
 1935WAT     H1 8460   6.501   3.249   1.942
 1935WAT     H2 8461   6.519   3.375   1.996
 1935WAT    EPW 8462   6.496   3.300   2.002
 1936WAT      O 8463   6.002   4.438   0.620
 1936WAT     H1 8464   6.067   4.380   0.622
 1936WAT     H2 8465   6.041   4.513   0.598
 1936WAT    EPW 8466   6.017   4.440   0.617
 1937WAT      O 8467   7.575   3.347   0.746
 1937WAT     H1 8468   7.540   3.415   0.789
 1937WAT     H2 8469   7.511   3.287   0.748
 1937WAT    EPW 8470   7.561   3.348   0.753
 1938WAT      O 8471   7.106   4.624   1.357
 1938WAT     H1 8472   7.181   4.670   1.356
 1938WAT     H2 8473   7.094   4.603   1.273
 1938WAT    EPW 8474   7.115   4.628   1.344
 1939WAT      O 8475   6.063   3.255   1.914
 1939WAT     H1 8476   5.985   3.216   1.907
 1939WAT     H2 8477   6.112   3.213   1.855
 1939WAT    EPW 8478   6.059   3.243   1.905
 1940WAT      O 8479   6.084   4.287   0.970
 1940WAT     H1 8480   6.126   4.251   0.903
 1940WAT     H2 8481   6.116   4.244   1.039
 1940WAT    EPW 8482   6.095   4.275   0.971
 1941WAT      O 8483   6.407   4.572   0.900
 1941WAT     H1 8484   6.491   4.582   0.880
 1941WAT     H2 8485   6.377   4.654   0.907
 1941WAT    EPW 8486   6.415   4.585   0.898
 1942WAT      O 8487   6.728   3.019   1.831
 1942WAT     H1 8488   6.746   2.938   1.804
 1942WAT     H2 8489   6.714   3.063   1.757
 1942WAT    EPW 8490   6.728   3.013   1.816
 1943WAT      O 8491   6.787   3.511   0.709
 1943WAT     H1 8492   6.816   3.488   0.630
 1943WAT     H2 8493   6.861   3.519   0.755
 1943WAT    EPW 8494   6.802   3.509   0.704
 1944WAT      O 8495   6.860   3.545   0.221
 1944WAT     H1 8496   6.888   3.624   0.246
 1944WAT     H2 8497   6.782   3.562   0.184
 1944WAT    EPW 8498   6.852   3.559   0.219
 1945WAT      O 8499   7.264   4.743   0.367
 1945WAT     H1 8500   7.330   4.728   0.313
 1945WAT     H2 8501   7.300   4.734   0.446
 1945WAT    EPW 8502   7.279   4.739   0.371
 1946WAT      O 8503   6.306   4.694   1.474
 1946WAT     H1 8504   6.336   4.687   1.556
 1946WAT     H2 8505   6.244   4.633   1.469
 1946WAT    EPW 8506   6.302   4.684   1.485
 1947WAT      O 8507   5.798   3.309   1.673
 1947WAT     H1 8508   5.797   3.368   1.738
 1947WAT     H2 8509   5.857   3.341   1.617
 1947WAT    EPW 8510   5.807   3.323   1.674
 1948WAT      O 8511   7.032   4.343   1.727
 1948WAT     H1 8512   7.028   4.381   1.806
 1948WAT     H2 8513   7.117   4.339   1.710
 1948WAT    EPW 8514   7.044   4.348   1.736
 1949WAT      O 8515   6.745   4.362   0.202
 1949WAT     H1 8516   6.727   4.417   0.268
 1949WAT     H2 8517   6.822   4.391   0.172
 1949WAT    EPW 8518   6.754   4.375   0.208
 1950WAT      O 8519   7.096   3.152   0.308
 1950WAT     H1 8520   7.150   3.084   0.315
 1950WAT     H2 8521   7.102   3.192   0.385
 1950WAT    EPW 8522   7.105   3.148   0.320
 1951WAT      O 8523   5.892   3.269   0.565
 1951WAT     H1 8524   5.880   3.182   0.568
 1951WAT     H2 8525   5.844   3.298   0.632
 1951WAT    EPW 8526   5.883   3.260   0.575
 1952WAT      O 8527   6.106   4.510   1.386
 1952WAT     H1 8528   6.036   4.459   1.399
 1952WAT     H2 8529   6.132   4.489   1.305
 1952WAT    EPW 8530   6.099   4.499   1.376
 1953WAT      O 8531   6.822   3.390   0.439
 1953WAT     H1 8532   6.771   3.323   0.414
 1953WAT     H2 8533   6.827   3.440   0.368
 1953WAT    EPW 8534   6.815   3.387   0.425
 1954WAT      O 8535   6.877   4.659   1.477
 1954WAT     H1 8536   6.954   4.651   1.436
 1954WAT     H2 8537   6.819   4.647   1.413
 1954WAT    EPW 8538   6.880   4.656   1.462
 1955WAT      O 8539   6.822   3.084   0.428
 1955WAT     H1 8540   6.776   3.044   0.366
 1955WAT     H2 8541   6.899   3.099   0.391
 1955WAT    EPW 8542   6.827   3.080   0.413
 1956WAT      O 8543   7.505   4.719   0.767
 1956WAT     H1 8544   7.459   4.791   0.787
 1956WAT     H2 8545   7.443   4.662   0.743
 1956WAT    EPW 8546   7.489   4.722   0.767
 1957WAT      O 8547   6.682   3.320   0.880
 1957WAT     H1 8548   6.689   3.377   0.815
 1957WAT     H2 8549   6.694   3.370   0.951
 1957WAT    EPW 8550   6.685   3.336   0.881
 1958WAT      O 8551   7.204   4.304   0.722
 1958WAT     H1 8552   7.274   4.256   0.740
 1958WAT     H2 8553   7.138   4.247   0.726
 1958WAT    EPW 8554   7.205   4.288   0.725
 1959WAT      O 8555   6.242   4.395   1.643
 1959WAT     H1 8556   6.326   4.401   1.621
 1959WAT     H2 8557   6.238   4.435   1.720
 1959WAT    EPW 8558   6.254   4.402   1.651
 1960WAT      O 8559   6.143   2.903   0.715
 1960WAT     H1 8560   6.196   2.972   0.714
 1960WAT     H2 8561   6.143   2.875   0.632
 1960WAT    EPW 8562   6.150   2.909   0.703
 1961WAT      O 8563   6.438   3.946   1.118
 1961WAT     H1 8564   6.455   3.925   1.201
 1961WAT     H2 8565   6.373   3.893   1.096
 1961WAT    EPW 8566   6.431   3.935   1.127
 1962WAT      O 8567   7.061   3.337   1.469
 1962WAT     H1 8568   7.051   3.369   1.550
 1962WAT     H2 8569   7.002   3.274   1.465
 1962WAT    EPW 8570   7.051   3.333   1.481
 1963WAT      O 8571   6.513   3.940   1.377
 1963WAT     H1 8572   6.518   4.025   1.397
 1963WAT     H2 8573   6.485   3.903   1.450
 1963WAT    EPW 8574   6.510   3.947   1.390
 1964WAT      O 8575   7.131   4.009   1.290
 1964WAT     H1 8576   7.079   3.968   1.347
 1964WAT     H2 8577   7.118   4.094   1.308
 1964WAT    EPW 8578   7.121   4.016   1.301
 1965WAT      O 8579   7.187   2.932   0.753
 1965WAT     H1 8580   7.191   2.900   0.834
 1965WAT     H2 8581   7.219   2.867   0.703
 1965WAT    EPW 8582   7.192   2.918   0.757
 1966WAT      O 8583   5.795   4.377   1.998
 1966WAT     H1 8584   5.871   4.412   2.024
 1966WAT     H2 8585   5.813   4.292   1.992
 1966WAT    EPW 8586   5.809   4.369   2.001
 1967WAT      O 8587   7.433   3.355   1.584
 1967WAT     H1 8588   7.510   3.333   1.617
 1967WAT     H2 8589   7.385   3.377   1.654
 1967WAT    EPW 8590   7.437   3.355   1.599
 1968WAT      O 8591   6.187   3.284   0.881
 1968WAT     H1 8592   6.215   3.241   0.810
 1968WAT     H2 8593   6.170   3.220   0.938
 1968WAT    EPW 8594   6.189   3.268   0.879
 1969WAT      O 8595   7.456   4.053   0.302
 1969WAT     H1 8596   7.468   4.025   0.384
 1969WAT     H2 8597   7.537   4.055   0.269
 1969WAT    EPW 8598   7.470   4.049   0.310
 1970WAT      O 8599   6.170   4.026   0.835
 1970WAT     H1 8600   6.255   4.018   0.818
 1970WAT     H2 8601   6.134   3.958   0.794
 1970WAT    EPW 8602   6.177   4.015   0.827
 1971WAT      O 8603   6.046   4.699   0.959
 1971WAT     H1 8604   5.979   4.649   0.935
 1971WAT     H2 8605   6.087   4.717   0.884
 1971WAT    EPW 8606   6.042   4.694   0.944
 1972WAT      O 8607   6.001   3.394   1.189
 1972WAT     H1 8608   6.086   3.416   1.184
 1972WAT     H2 8609   5.963   3.451   1.136
 1972WAT    EPW 8610   6.008   3.406   1.180
 1973WAT      O 8611   7.246   3.707   0.261
 1973WAT     H1 8612   7.224   3.780   0.219
 1973WAT     H2 8613   7.201   3.712   0.336
 1973WAT    EPW 8614   7.236   3.718   0.266
 1974WAT      O 8615   6.407   4.027   0.659
 1974WAT     H1 8616   6.478   4.077   0.668
 1974WAT     H2 8617   6.429   3.970   0.596
 1974WAT    EPW 8618   6.420   4.026   0.651
 1975WAT      O 8619   5.822   4.191   0.991
 1975WAT     H1 8620   5.755   4.240   1.019
 1975WAT     H2 8621   5.890   4.246   0.994
 1975WAT    EPW 8622   5.822   4.207   0.995
 1976WAT      O 8623   6.587   3.562   2.001
 1976WAT     H1 8624   6.538   3.620   2.045
 1976WAT     H2 8625   6.584   3.592   1.918
 1976WAT    EPW 8626   6.579   3.575   1.995
 1977WAT      O 8627   5.829   3.860   0.501
 1977WAT     H1 8628   5.810   3.776   0.516
 1977WAT     H2 8629   5.895   3.856   0.444
 1977WAT    EPW 8630   5.836   3.847   0.495
 1978WAT      O 8631   7.465   3.149   0.434
 1978WAT     H1 8632   7.539   3.108   0.454
 1978WAT     H2 8633   7.491   3.220   0.392
 1978WAT    EPW 8634   7.479   3.153   0.431
 1979WAT      O 8635   6.859   4.397   0.892
 1979WAT     H1 8636   6.807   4.461   0.862
 1979WAT     H2 8637   6.890   4.361   0.819
 1979WAT    EPW 8638   6.856   4.401   0.877
 1980WAT      O 8639   5.846   4.276   0.459
 1980WAT     H1 8640   5.901   4.333   0.495
 1980WAT     H2 8641   5.823   4.225   0.525
 1980WAT    EPW 8642   5.851   4.277   0.474
 1981WAT      O 8643   6.266   4.176   1.168
 1981WAT     H1 8644   6.313   4.205   1.235
 1981WAT     H2 8645   6.324   4.128   1.122
 1981WAT    EPW 8646   6.282   4.173   1.171
 1982WAT      O 8647   7.110   3.378   0.941
 1982WAT     H1 8648   7.144   3.393   1.020
 1982WAT     H2 8649   7.065   3.304   0.953
 1982WAT    EPW 8650   7.108   3.369   0.955
 1983WAT      O 8651   5.829   4.121   0.222
 1983WAT     H1 8652   5.905   4.078   0.227
 1983WAT     H2 8653   5.830   4.174   0.291
 1983WAT    EPW 8654   5.840   4.123   0.233
 1984WAT      O 8655   5.923   3.943   1.022
 1984WAT     H1 8656   5.966   3.930   0.947
 1984WAT     H2 8657   5.902   4.028   1.019
 1984WAT    EPW 8658   5.926   3.954   1.011
 1985WAT      O 8659   6.558   3.300   0.387
 1985WAT     H1 8660   6.557   3.288   0.301
 1985WAT     H2 8661   6.539   3.384   0.396
 1985WAT    EPW 8662   6.555   3.310   0.376
 1986WAT      O 8663   7.463   4.542   1.537
 1986WAT     H1 8664   7.396   4.594   1.559
 1986WAT     H2 8665   7.469   4.552   1.450
 1986WAT    EPW 8666   7.454   4.551   1.527
 1987WAT      O 8667   6.331   4.295   0.850
 1987WAT     H1 8668   6.344   4.379   0.869
 1987WAT     H2 8669   6.398   4.255   0.890
 1987WAT    EPW 8670   6.343   4.301   0.859
 1988WAT      O 8671   6.144   3.643   1.836
 1988WAT     H1 8672   6.091   3.593   1.883
 1988WAT     H2 8673   6.146   3.604   1.758
 1988WAT    EPW 8674   6.137   3.630   1.832
 1989WAT      O 8675   6.193   3.583   0.350
 1989WAT     H1 8676   6.180   3.538   0.424
 1989WAT     H2 8677   6.135   3.549   0.295
 1989WAT    EPW 8678   6.182   3.571   0.353
 1990WAT      O 8679   6.210   3.766   1.010
 1990WAT     H1 8680   6.131   3.760   0.972
 1990WAT     H2 8681   6.217   3.691   1.054
 1990WAT    EPW 8682   6.199   3.754   1.011
 1991WAT      O 8683   6.253   3.740   1.357
 1991WAT     H1 8684   6.255   3.672   1.302
 1991WAT     H2 8685   6.188   3.789   1.326
 1991WAT    EPW 8686   6.243   3.737   1.344
 1992WAT      O 8687   7.242   3.511   1.197
 1992WAT     H1 8688   7.176   3.544   1.243
 1992WAT     H2 8689   7.261   3.574   1.140
 1992WAT    EPW 8690   7.235   3.525   1.195
 1993WAT      O 8691   6.663   4.617   1.296
 1993WAT     H1 8692   6.635   4.553   1.244
 1993WAT     H2 8693   6.642   4.690   1.253
 1993WAT    EPW 8694   6.655   4.619   1.282
 1994WAT      O 8695   6.907   3.101   1.540
 1994WAT     H1 8696   6.921   3.019   1.515
 1994WAT     H2 8697   6.944   3.107   1.618
 1994WAT    EPW 8698   6.914   3.090   1.548
 1995WAT      O 8699   7.061   3.308   0.548
 1995WAT     H1 8700   7.110   3.379   0.540
 1995WAT     H2 8701   6.982   3.334   0.522
 1995WAT    EPW 8702   7.057   3.322   0.543
 1996WAT      O 8703   6.032   3.875   1.913
 1996WAT     H1 8704   6.029   3.925   1.842
 1996WAT     H2 8705   6.066   3.800   1.884
 1996WAT    EPW 8706   6.037   3.871   1.898
 1997WAT      O 8707   7.193   4.096   1.739
 1997WAT     H1 8708   7.241   4.167   1.749
 1997WAT     H2 8709   7.232   4.053   1.674
 1997WAT    EPW 8710   7.206   4.100   1.731
 1998WAT      O 8711   6.622   4.380   1.857
 1998WAT     H1 8712   6.658   4.362   1.934
 1998WAT     H2 8713   6.579   4.307   1.837
 1998WAT    EPW 8714   6.621   4.367   1.865
 1999WAT      O 8715   6.720   3.455   1.120
 1999WAT     H1 8716   6.768   3.525   1.141
 1999WAT     H2 8717   6.757   3.390   1.165
 1999WAT    EPW 8718   6.732   3.456   1.130
 2000WAT      O 8719   6.938   3.772   0.348
 2000WAT     H1 8720   6.938   3.844   0.299
 2000WAT     H2 8721   6.875   3.785   0.405
 2000WAT    EPW 8722   6.929   3.784   0.349
 2001WAT      O 8723   7.436   4.159   0.746
 2001WAT     H1 8724   7.471   4.124   0.817
 2001WAT     H2 8725   7.435   4.093   0.689
 2001WAT    EPW 8726   7.441   4.144   0.748
 2002WAT      O 8727   7.040   4.465   1.130
 2002WAT     H1 8728   6.980   4.436   1.075
 2002WAT     H2 8729   7.095   4.510   1.079
 2002WAT    EPW 8730   7.039   4.468   1.114
 2003WAT      O 8731   7.041   4.150   1.070
 2003WAT     H1 8732   6.962   4.173   1.098
 2003WAT     H2 8733   7.067   4.091   1.129
 2003WAT    EPW 8734   7.033   4.145   1.083
 2004WAT      O 8735   6.431   4.632   0.515
 2004WAT     H1 8736   6.416   4.554   0.552
 2004WAT     H2 8737   6.500   4.617   0.464
 2004WAT    EPW 8738   6.439   4.618   0.513
 2005WAT      O 8739   6.398   3.006   0.314
 2005WAT     H1 8740   6.407   2.995   0.400
 2005WAT     H2 8741   6.327   3.056   0.307
 2005WAT    EPW 8742   6.389   3.012   0.326
 2006WAT      O 8743   6.660   4.583   0.355
 2006WAT     H1 8744   6.722   4.599   0.414
 2006WAT     H2 8745   6.663   4.652   0.302
 2006WAT    EPW 8746   6.670   4.596   0.356
 2007WAT      O 8747   7.367   3.950   1.555
 2007WAT     H1 8748   7.373   3.963   1.469
 2007WAT     H2 8749   7.443   3.982   1.585
 2007WAT    EPW 8750   7.379   3.957   1.547
 2008WAT      O 8751   6.987   4.485   1.983
 2008WAT     H1 8752   7.003   4.513   2.063
 2008WAT     H2 8753   7.013   4.551   1.932
 2008WAT    EPW 8754   6.993   4.499   1.987
 2009WAT      O 8755   7.471   2.980   1.854
 2009WAT     H1 8756   7.407   2.940   1.809
 2009WAT     H2 8757   7.473   2.937   1.929
 2009WAT    EPW 8758   7.462   2.968   1.858
 2010WAT      O 8759   6.110   3.837   0.438
 2010WAT     H1 8760   6.142   3.759   0.416
 2010WAT     H2 8761   6.175   3.873   0.484
 2010WAT    EPW 8762   6.124   3.830   0.442
 2011WAT      O 8763   6.941   3.931   1.515
 2011WAT     H1 8764   6.925   3.992   1.575
 2011WAT     H2 8765   6.994   3.875   1.555
 2011WAT    EPW 8766   6.946   3.932   1.530
 2012WAT      O 8767   5.810   3.003   0.535
 2012WAT     H1 8768   5.823   2.932   0.486
 2012WAT     H2 8769   5.773   2.971   0.607
 2012WAT    EPW 8770   5.806   2.987   0.538
 2013WAT      O 8771   6.779   3.771   0.581
 2013WAT     H1 8772   6.785   3.836   0.639
 2013WAT     H2 8773   6.760   3.701   0.630
 2013WAT    EPW 8774   6.777   3.770   0.596
 2014WAT      O 8775   7.302   4.204   1.168
 2014WAT     H1 8776   7.254   4.233   1.101
 2014WAT     H2 8777   7.266   4.126   1.185
 2014WAT    EPW 8778   7.289   4.197   1.160
 2015WAT      O 8779   6.229   3.222   0.232
 2015WAT     H1 8780   6.177   3.228   0.161
 2015WAT     H2 8781   6.307   3.246   0.202
 2015WAT    EPW 8782   6.233   3.227   0.217
 2016WAT      O 8783   6.701   3.975   1.024
 2016WAT     H1 8784   6.617   3.956   1.032
 2016WAT     H2 8785   6.734   3.959   1.103
 2016WAT    EPW 8786   6.693   3.970   1.037
 2017WAT      O 8787   6.086   3.945   1.255
 2017WAT     H1 8788   6.158   3.994   1.252
 2017WAT     H2 8789   6.059   3.942   1.172
 2017WAT    EPW 8790   6.093   3.952   1.243
 2018WAT      O 8791   6.409   3.462   0.929
 2018WAT     H1 8792   6.494   3.443   0.939
 2018WAT     H2 8793   6.372   3.384   0.915
 2018WAT    EPW 8794   6.416   3.448   0.928
 2019WAT      O 8795   5.891   3.596   0.594
 2019WAT     H1 8796   5.940   3.566   0.660
 2019WAT     H2 8797   5.904   3.536   0.532
 2019WAT    EPW 8798   5.900   3.583   0.595
 2020WAT      O 8799   7.395   3.898   1.279
 2020WAT     H1 8800   7.394   3.820   1.319
 2020WAT     H2 8801   7.311   3.921   1.279
 2020WAT    EPW 8802   7.382   3.890   1.285
 2021WAT      O 8803   6.026   4.050   1.683
 2021WAT     H1 8804   5.983   3.998   1.627
 2021WAT     H2 8805   5.990   4.129   1.669
 2021WAT    EPW 8806   6.014   4.054   1.673
 2022WAT      O 8807   6.489   3.585   0.414
 2022WAT     H1 8808   6.516   3.668   0.421
 2022WAT     H2 8809   6.403   3.593   0.404
 2022WAT    EPW 8810   6.480   3.598   0.413
 2023WAT      O 8811   7.286   3.297   1.877
 2023WAT     H1 8812   7.234   3.343   1.930
 2023WAT     H2 8813   7.250   3.218   1.877
 2023WAT    EPW 8814   7.273   3.292   1.885
 2024WAT      O 8815   5.837   3.182   1.068
 2024WAT     H1 8816   5.842   3.217   0.987
 2024WAT     H2 8817   5.913   3.206   1.104
 2024WAT    EPW 8818   5.849   3.191   1.061
 2025WAT      O 8819   7.136   3.654   1.885
 2025WAT     H1 8820   7.143   3.665   1.971
 2025WAT     H2 8821   7.072   3.710   1.863
 2025WAT    EPW 8822   7.127   3.664   1.894
 2026WAT      O 8823   7.362   3.686   1.721
 2026WAT     H1 8824   7.394   3.765   1.742
 2026WAT     H2 8825   7.325   3.659   1.796
 2026WAT    EPW 8826   7.362   3.694   1.735
 2027WAT      O 8827   7.294   4.329   0.274
 2027WAT     H1 8828   7.327   4.248   0.278
 2027WAT     H2 8829   7.218   4.321   0.317
 2027WAT    EPW 8830   7.288   4.316   0.281
 2028WAT      O 8831   7.342   3.512   0.840
 2028WAT     H1 8832   7.268   3.480   0.872
 2028WAT     H2 8833   7.342   3.595   0.868
 2028WAT    EPW 8834   7.331   3.519   0.849
 2029WAT      O 8835   7.031   4.116   0.215
 2029WAT     H1 8836   7.100   4.065   0.198
 2029WAT     H2 8837   6.990   4.121   0.138
 2029WAT    EPW 8838   7.035   4.109   0.201
 2030WAT      O 8839   6.499   4.231   1.345
 2030WAT     H1 8840   6.470   4.290   1.402
 2030WAT     H2 8841   6.505   4.275   1.270
 2030WAT    EPW 8842   6.496   4.246   1.342
 2031WAT      O 8843   6.297   4.126   1.685
 2031WAT     H1 8844   6.217   4.097   1.701
 2031WAT     H2 8845   6.288   4.213   1.685
 2031WAT    EPW 8846   6.284   4.135   1.687
 2032WAT      O 8847   7.233   3.145   1.586
 2032WAT     H1 8848   7.308   3.190   1.580
 2032WAT     H2 8849   7.177   3.192   1.539
 2032WAT    EPW 8850   7.236   3.159   1.578
 2033WAT      O 8851   6.751   3.873   1.294
 2033WAT     H1 8852   6.799   3.911   1.357
 2033WAT     H2 8853   6.669   3.887   1.320
 2033WAT    EPW 8854   6.746   3.881   1.307
 2034WAT      O 8855   6.422   3.434   1.568
 2034WAT     H1 8856   6.438   3.359   1.611
 2034WAT     H2 8857   6.418   3.409   1.485
 2034WAT    EPW 8858   6.424   3.419   1.562
 2035WAT      O 8859   6.677   4.613   0.817
 2035WAT     H1 8860   6.732   4.681   0.822
 2035WAT     H2 8861   6.642   4.621   0.737
 2035WAT    EPW 8862   6.680   4.624   0.806
 2036WAT      O 8863   7.362   2.943   1.353
 2036WAT     H1 8864   7.334   3.025   1.349
 2036WAT     H2 8865   7.433   2.948   1.403
 2036WAT    EPW 8866   7.368   2.956   1.360
 2037WAT      O 8867   6.597   3.014   1.556
 2037WAT     H1 8868   6.668   3.046   1.516
 2037WAT     H2 8869   6.621   2.934   1.579
 2037WAT    EPW 8870   6.611   3.007   1.554
 2038WAT      O 8871   6.496   4.435   1.156
 2038WAT     H1 8872   6.433   4.494   1.138
 2038WAT     H2 8873   6.521   4.407   1.077
 2038WAT    EPW 8874   6.490   4.440   1.141
 2039WAT      O 8875   6.927   4.099   1.855
 2039WAT     H1 8876   7.002   4.127   1.822
 2039WAT     H2 8877   6.872   4.104   1.787
 2039WAT    EPW 8878   6.930   4.104   1.840
 2040WAT      O 8879   7.318   4.354   1.705
 2040WAT     H1 8880   7.352   4.381   1.780
 2040WAT     H2 8881   7.347   4.412   1.647
 2040WAT    EPW 8882   7.327   4.366   1.708
 2041WAT      O 8883   7.504   3.568   0.239
 2041WAT     H1 8884   7.542   3.636   0.199
 2041WAT     H2 8885   7.420   3.591   0.242
 2041WAT    EPW 8886   7.497   3.582   0.233
 2042WAT      O 8887   6.248   3.520   1.162
 2042WAT     H1 8888   6.292   3.509   1.088
 2042WAT     H2 8889   6.303   3.488   1.223
 2042WAT    EPW 8890   6.263   3.514   1.160
 2043WAT      O 8891   7.050   3.430   1.721
 2043WAT     H1 8892   6.985   3.477   1.756
 2043WAT     H2 8893   7.106   3.421   1.787
 2043WAT    EPW 8894   7.049   3.436   1.736
 2044WAT      O 8895   7.019   3.584   1.351
 2044WAT     H1 8896   7.049   3.626   1.422
 2044WAT     H2 8897   7.022   3.500   1.374
 2044WAT    EPW 8898   7.024   3.577   1.365
 2045WAT      O 8899   6.761   4.600   1.744
 2045WAT     H1 8900   6.809   4.540   1.702
 2045WAT     H2 8901   6.726   4.556   1.810
 2045WAT    EPW 8902   6.763   4.585   1.747
 2046WAT      O 8903   7.273   3.528   0.576
 2046WAT     H1 8904   7.294   3.508   0.659
 2046WAT     H2 8905   7.349   3.555   0.542
 2046WAT    EPW 8906   7.288   3.529   0.584
 2047WAT      O 8907   6.603   3.018   1.167
 2047WAT     H1 8908   6.520   3.003   1.191
 2047WAT     H2 8909   6.599   3.022   1.080
 2047WAT    EPW 8910   6.590   3.017   1.158
 2048WAT      O 8911   7.376   3.137   0.724
 2048WAT     H1 8912   7.304   3.090   0.741
 2048WAT     H2 8913   7.359   3.171   0.645
 2048WAT    EPW 8914   7.363   3.135   0.715
 2049WAT      O 8915   7.420   3.931   0.562
 2049WAT     H1 8916   7.467   3.858   0.557
 2049WAT     H2 8917   7.338   3.902   0.554
 2049WAT    EPW 8918   7.415   3.916   0.560
 2050WAT      O 8919   6.767   4.122   1.646
 2050WAT     H1 8920   6.687   4.116   1.681
 2050WAT     H2 8921   6.774   4.207   1.626
 2050WAT    EPW 8922   6.756   4.134   1.648
 2051WAT      O 8923   5.859   3.058   1.770
 2051WAT     H1 8924   5.845   3.138   1.737
 2051WAT     H2 8925   5.781   3.034   1.799
 2051WAT    EPW 8926   5.846   3.066   1.770
 2052WAT      O 8927   6.350   4.743   1.177
 2052WAT     H1 8928   6.351   4.749   1.264
 2052WAT     H2 8929   6.307   4.668   1.162
 2052WAT    EPW 8930   6.344   4.733   1.188
 2053WAT      O 8931   6.166   3.332   0.493
 2053WAT     H1 8932   6.178   3.300   0.413
 2053WAT     H2 8933   6.085   3.308   0.513
 2053WAT    EPW 8934   6.156   3.324   0.484
 2054WAT      O 8935   7.041   4.048   0.797
 2054WAT     H1 8936   7.049   4.082   0.877
 2054WAT     H2 8937   7.058   3.963   0.809
 2054WAT    EPW 8938   7.045   4.040   0.811
 2055WAT      O 8939   6.794   3.975   0.754
 2055WAT     H1 8940   6.764   3.944   0.830
 2055WAT     H2 8941   6.863   4.022   0.777
 2055WAT    EPW 8942   6.800   3.977   0.769
 2056WAT      O 8943   6.816   4.387   1.557
 2056WAT     H1 8944   6.885   4.376   1.609
 2056WAT     H2 8945   6.829   4.466   1.522
 2056WAT    EPW 8946   6.828   4.397   1.559
 2057WAT      O 8947   7.085   3.714   1.595
 2057WAT     H1 8948   7.059   3.642   1.637
 2057WAT     H2 8949   7.167   3.726   1.622
 2057WAT    EPW 8950   7.093   3.705   1.605
 2058WAT      O 8951   6.026   4.693   1.722
 2058WAT     H1 8952   5.961   4.636   1.731
 2058WAT     H2 8953   5.989   4.770   1.737
 2058WAT    EPW 8954   6.011   4.696   1.725
 2059WAT      O 8955   6.878   3.833   1.914
 2059WAT     H1 8956   6.910   3.902   1.871
 2059WAT     H2 8957   6.808   3.866   1.954
 2059WAT    EPW 8958   6.872   3.848   1.913
 2060WAT      O 8959   7.187   4.671   1.007
 2060WAT     H1 8960   7.141   4.735   1.045
 2060WAT     H2 8961   7.257   4.663   1.057
 2060WAT    EPW 8962   7.190   4.679   1.020
 2061WAT      O 8963   6.857   4.180   1.300
 2061WAT     H1 8964   6.787   4.220   1.334
 2061WAT     H2 8965   6.924   4.223   1.334
 2061WAT    EPW 8966   6.856   4.192   1.310
 2062WAT      O 8967   7.394   4.439   1.958
 2062WAT     H1 8968   7.472   4.400   1.966
 2062WAT     H2 8969   7.347   4.405   2.023
 2062WAT    EPW 8970   7.399   4.428   1.969
 2063WAT      O 8971   6.163   3.534   1.535
 2063WAT     H1 8972   6.201   3.595   1.486
 2063WAT     H2 8973   6.231   3.486   1.563
 2063WAT    EPW 8974   6.179   3.536   1.532
 2064WAT      O 8975   5.941   3.378   1.462
 2064WAT     H1 8976   5.949   3.361   1.377
 2064WAT     H2 8977   6.016   3.419   1.482
 2064WAT    EPW 8978   5.953   3.382   1.452
 2065WAT      O 8979   7.497   3.642   0.506
 2065WAT     H1 8980   7.507   3.637   0.420
 2065WAT     H2 8981   7.571   3.609   0.538
 2065WAT    EPW 8982   7.509   3.637   0.498
 2066WAT      O 8983   6.196   3.119   1.703
 2066WAT     H1 8984   6.188   3.035   1.724
 2066WAT     H2 8985   6.165   3.124   1.622
 2066WAT    EPW 8986   6.191   3.108   1.694
 2067WAT      O 8987   6.889   4.339   0.617
 2067WAT     H1 8988   6.868   4.422   0.601
 2067WAT     H2 8989   6.811   4.301   0.629
 2067WAT    EPW 8990   6.874   4.346   0.616
 2068WAT      O 8991   7.407   3.657   1.442
 2068WAT     H1 8992   7.407   3.571   1.454
 2068WAT     H2 8993   7.414   3.689   1.522
 2068WAT    EPW 8994   7.408   3.649   1.455
 2069WAT      O 8995   5.881   3.901   1.484
 2069WAT     H1 8996   5.913   3.923   1.406
 2069WAT     H2 8997   5.871   3.814   1.479
 2069WAT    EPW 8998   5.884   3.891   1.472
 2070WAT      O 8999   6.995   3.137   1.820
 2070WAT     H1 9000   7.004   3.208   1.869
 2070WAT     H2 9001   6.931   3.092   1.860
 2070WAT    EPW 9002   6.987   3.141   1.833
 2071WAT      O 9003   6.894   3.156   0.905
 2071WAT     H1 9004   6.824   3.208   0.900
 2071WAT     H2 9005   6.898   3.118   0.827
 2071WAT    EPW 9006   6.885   3.158   0.893
 2072WAT      O 9007   6.425   4.365   0.258
 2072WAT     H1 9008   6.469   4.373   0.332
 2072WAT     H2 9009   6.345   4.343   0.283
 2072WAT    EPW 9010   6.420   4.363   0.273
 2073WAT      O 9011   7.254   3.208   1.185
 2073WAT     H1 9012   7.340   3.217   1.200
 2073WAT     H2 9013   7.217   3.263   1.242
 2073WAT    EPW 9014   7.261   3.217   1.196
 2074WAT      O 9015   6.357   3.830   1.623
 2074WAT     H1 9016   6.317   3.908   1.630
 2074WAT     H2 9017   6.316   3.793   1.555
 2074WAT    EPW 9018   6.345   3.836   1.614
 2075WAT      O 9019   7.285   3.736   1.034
 2075WAT     H1 9020   7.351   3.790   1.050
 2075WAT     H2 9021   7.250   3.767   0.960
 2075WAT    EPW 9022   7.289   3.748   1.026
 2076WAT      O 9023   7.316   4.542   0.615
 2076WAT     H1 9024   7.298   4.477   0.670
 2076WAT     H2 9025   7.387   4.515   0.573
 2076WAT    EPW 9026   7.324   4.528   0.617
 2077WAT      O 9027   6.158   4.272   0.318
 2077WAT     H1 9028   6.134   4.241   0.396
 2077WAT     H2 9029   6.155   4.202   0.266
 2077WAT    EPW 9030   6.154   4.257   0.322
 2078WAT      O 9031   6.440   4.097   0.192
 2078WAT     H1 9032   6.358   4.070   0.206
 2078WAT     H2 9033   6.437   4.182   0.211
 2078WAT    EPW 9034   6.427   4.105   0.197
 2079WAT      O 9035   6.400   3.128   1.368
 2079WAT     H1 9036   6.313   3.136   1.376
 2079WAT     H2 9037   6.422   3.076   1.435
 2079WAT    EPW 9038   6.390   3.122   1.379
 2080WAT      O 9039   6.810   3.203   1.205
 2080WAT     H1 9040   6.736   3.157   1.217
 2080WAT     H2 9041   6.867   3.162   1.258
 2080WAT    EPW 9042   6.808   3.190   1.215
 2081WAT      O 9043   7.083   4.287   1.384
 2081WAT     H1 9044   7.104   4.318   1.463
 2081WAT     H2 9045   7.077   4.360   1.336
 2081WAT    EPW 9046   7.085   4.303   1.389
 2082WAT      O 9047   7.037   4.709   1.809
 2082WAT     H1 9048   6.961   4.707   1.765
 2082WAT     H2 9049   7.054   4.794   1.817
 2082WAT    EPW 9050   7.028   4.721   1.803
 2083WAT      O 9051   6.560   3.636   1.726
 2083WAT     H1 9052   6.528   3.578   1.669
 2083WAT     H2 9053   6.525   3.711   1.701
 2083WAT    EPW 9054   6.550   3.638   1.714
 2084WAT      O 9055   7.565   4.151   1.330
 2084WAT     H1 9056   7.561   4.065   1.316
 2084WAT     H2 9057   7.495   4.182   1.287
 2084WAT    EPW 9058   7.554   4.143   1.322
 2085WAT      O 9059   6.404   4.671   1.751
 2085WAT     H1 9060   6.408   4.684   1.837
 2085WAT     H2 9061   6.469   4.615   1.735
 2085WAT    EPW 9062   6.414   4.665   1.761
 2086WAT      O 9063   7.375   4.477   1.210
 2086WAT     H1 9064   7.428   4.469   1.141
 2086WAT     H2 9065   7.336   4.400   1.215
 2086WAT    EPW 9066   7.377   4.465   1.200
 2087WAT      O 9067   6.122   3.136   1.433
 2087WAT     H1 9068   6.088   3.059   1.409
 2087WAT     H2 9069   6.052   3.189   1.439
 2087WAT    EPW 9070   6.107   3.133   1.430
 2088WAT      O 9071   7.026   3.022   1.130
 2088WAT     H1 9072   7.093   3.076   1.143
 2088WAT     H2 9073   6.976   3.064   1.073
 2088WAT    EPW 9074   7.029   3.036   1.124
 2089WAT      O 9075   6.163   4.509   1.887
 2089WAT     H1 9076   6.223   4.553   1.934
 2089WAT     H2 9077   6.127   4.572   1.838
 2089WAT    EPW 9078   6.167   4.525   1.886
 2090WAT      O 9079   6.962   3.603   0.880
 2090WAT     H1 9080   7.017   3.542   0.910
 2090WAT     H2 9081   6.920   3.629   0.951
 2090WAT    EPW 9082   6.964   3.597   0.895
 2091WAT      O 9083   5.987   3.468   0.828
 2091WAT     H1 9084   5.950   3.498   0.901
 2091WAT     H2 9085   6.041   3.405   0.857
 2091WAT    EPW 9086   5.990   3.463   0.843
 2092WAT      O 9087   5.956   4.308   1.579
 2092WAT     H1 9088   5.899   4.350   1.630
 2092WAT     H2 9089   6.029   4.355   1.589
 2092WAT    EPW 9090   5.958   4.321   1.588
 2093WAT      O 9091   7.159   3.786   0.536
 2093WAT     H1 9092   7.166   3.701   0.554
 2093WAT     H2 9093   7.077   3.794   0.508
 2093WAT    EPW 9094   7.148   3.774   0.535
 2094WAT      O 9095   6.135   4.635   0.457
 2094WAT     H1 9096   6.120   4.651   0.372
 2094WAT     H2 9097   6.221   4.643   0.465
 2094WAT    EPW 9098   6.145   4.639   0.446
 2095WAT      O 9099   6.551   3.875   0.430
 2095WAT     H1 9100   6.561   3.889   0.344
 2095WAT     H2 9101   6.633   3.869   0.459
 2095WAT    EPW 9102   6.565   3.876   0.421
 2096WAT      O 9103   7.467   4.681   0.178
 2096WAT     H1 9104   7.531   4.668   0.236
 2096WAT     H2 9105   7.433   4.602   0.166
 2096WAT    EPW 9106   7.472   4.667   0.185
 2097WAT      O 9107   7.487   3.923   1.851
 2097WAT     H1 9108   7.550   3.906   1.908
 2097WAT     H2 9109   7.528   3.963   1.786
 2097WAT    EPW 9110   7.502   3.926   1.850
 2098WAT      O 9111   7.075   4.308   0.410
 2098WAT     H1 9112   7.050   4.295   0.493
 2098WAT     H2 9113   7.043   4.238   0.368
 2098WAT    EPW 9114   7.066   4.296   0.416
 2099WAT      O 9115   7.549   3.379   1.925
 2099WAT     H1 9116   7.530   3.444   1.980
 2099WAT     H2 9117   7.477   3.330   1.924
 2099WAT    EPW 9118   7.536   3.382   1.933
 2100WAT      O 9119   7.539   3.473   1.222
 2100WAT     H1 9120   7.456   3.498   1.215
 2100WAT     H2 9121   7.534   3.389   1.245
 2100WAT    EPW 9122   7.526   3.465   1.224
 2101WAT      O 9123   6.465   3.172   1.741
 2101WAT     H1 9124   6.489   3.115   1.680
 2101WAT     H2 9125   6.381   3.154   1.755
 2101WAT    EPW 9126   6.456   3.161   1.734
 2102WAT      O 9127   7.228   3.934   1.987
 2102WAT     H1 9128   7.315   3.930   1.983
 2102WAT     H2 9129   7.206   3.976   1.913
 2102WAT    EPW 9130   7.238   3.940   1.975
 2103WAT      O 9131   6.203   4.517   1.105
 2103WAT     H1 9132   6.195   4.436   1.073
 2103WAT     H2 9133   6.159   4.565   1.047
 2103WAT    EPW 9134   6.196   4.512   1.092
 2104WAT      O 9135   6.763   4.128   0.353
 2104WAT     H1 9136   6.835   4.094   0.317
 2104WAT     H2 9137   6.760   4.208   0.318
 2104WAT    EPW 9138   6.773   4.135   0.343
 2105WAT      O 9139   5.960   4.741   1.463
 2105WAT     H1 9140   6.010   4.735   1.535
 2105WAT     H2 9141   5.979   4.668   1.419
 2105WAT    EPW 9142   5.971   4.729   1.467
 2106WAT      O 9143   6.904   1.145   6.379
 2106WAT     H1 9144   6.880   1.194   6.311
 2106WAT     H2 9145   6.991   1.137   6.369
 2106WAT    EPW 9146   6.913   1.151   6.368
 2107WAT      O 9147   6.885   1.836   6.846
 2107WAT     H1 9148   6.833   1.896   6.883
 2107WAT     H2 9149   6.925   1.800   6.915
 2107WAT    EPW 9150   6.883   1.840   6.862
 2108WAT      O 9151   5.872   2.250   6.392
 2108WAT     H1 9152   5.828   2.262   6.466
 2108WAT     H2 9153   5.844   2.173   6.363
 2108WAT    EPW 9154   5.861   2.241   6.399
 2109WAT      O 9155   7.500   2.580   6.143
 2109WAT     H1 9156   7.570   2.529   6.143
 2109WAT     H2 9157   7.441   2.536   6.097
 2109WAT    EPW 9158   7.501   2.566   6.136
 2110WAT      O 9159   5.846   1.630   6.043
 2110WAT     H1 9160   5.769   1.646   6.007
 2110WAT     H2 9161   5.850   1.542   6.045
 2110WAT    EPW 9162   5.835   1.619   6.038
 2111WAT      O 9163   6.160   2.156   5.910
 2111WAT     H1 9164   6.121   2.119   5.841
 2111WAT     H2 9165   6.152   2.096   5.973
 2111WAT    EPW 9166   6.153   2.142   5.909
 2112WAT      O 9167   7.152   1.943   6.514
 2112WAT     H1 9168   7.160   1.943   6.427
 2112WAT     H2 9169   7.094   1.880   6.529
 2112WAT    EPW 9170   7.145   1.934   6.503
 2113WAT      O 9171   6.123   2.320   6.300
 2113WAT     H1 9172   6.184   2.303   6.360
 2113WAT     H2 9173   6.048   2.306   6.342
 2113WAT    EPW 9174   6.121   2.315   6.315
 2114WAT      O 9175   6.551   1.253   6.295
 2114WAT     H1 9176   6.544   1.321   6.240
 2114WAT     H2 9177   6.625   1.215   6.270
 2114WAT    EPW 9178   6.561   1.258   6.283
 2115WAT      O 9179   6.012   2.629   5.908
 2115WAT     H1 9180   6.059   2.637   5.834
 2115WAT     H2 9181   6.058   2.571   5.954
 2115WAT    EPW 9182   6.026   2.622   5.904
 2116WAT      O 9183   5.866   2.524   7.017
 2116WAT     H1 9184   5.879   2.496   7.099
 2116WAT     H2 9185   5.805   2.470   6.987
 2116WAT    EPW 9186   5.859   2.512   7.025
 2117WAT      O 9187   6.523   2.276   7.524
 2117WAT     H1 9188   6.500   2.276   7.608
 2117WAT     H2 9189   6.449   2.262   7.482
 2117WAT    EPW 9190   6.509   2.274   7.530
 2118WAT      O 9191   6.011   1.976   6.438
 2118WAT     H1 9192   5.964   1.937   6.375
 2118WAT     H2 9193   6.081   1.925   6.447
 2118WAT    EPW 9194   6.014   1.963   6.430
 2119WAT      O 9195   6.461   1.537   6.972
 2119WAT     H1 9196   6.529   1.539   6.917
 2119WAT     H2 9197   6.457   1.453   6.997
 2119WAT    EPW 9198   6.471   1.525   6.968
 2120WAT      O 9199   6.522   2.596   7.250
 2120WAT     H1 9200   6.535   2.672   7.210
 2120WAT     H2 9201   6.601   2.559   7.253
 2120WAT    EPW 9202   6.535   2.601   7.245
 2121WAT      O 9203   6.211   1.786   6.440
 2121WAT     H1 9204   6.292   1.767   6.464
 2121WAT     H2 9205   6.163   1.725   6.480
 2121WAT    EPW 9206   6.216   1.774   6.449
 2122WAT      O 9207   6.631   2.384   6.701
 2122WAT     H1 9208   6.666   2.304   6.704
 2122WAT     H2 9209   6.698   2.434   6.675
 2122WAT    EPW 9210   6.646   2.380   6.698
 2123WAT      O 9211   6.637   2.329   6.322
 2123WAT     H1 9212   6.670   2.265   6.371
 2123WAT     H2 9213   6.661   2.308   6.241
 2123WAT    EPW 9214   6.645   2.316   6.317
 2124WAT      O 9215   6.834   1.742   7.456
 2124WAT     H1 9216   6.749   1.732   7.438
 2124WAT     H2 9217   6.837   1.817   7.501
 2124WAT    EPW 9218   6.822   1.752   7.460
 2125WAT      O 9219   6.270   1.295   6.367
 2125WAT     H1 9220   6.241   1.345   6.302
 2125WAT     H2 9221   6.357   1.303   6.361
 2125WAT    EPW 9222   6.279   1.304   6.356
 2126WAT      O 9223   7.289   1.038   7.367
 2126WAT     H1 9224   7.274   1.115   7.329
 2126WAT     H2 9225   7.212   1.016   7.402
 2126WAT    EPW 9226   7.276   1.046   7.367
 2127WAT      O 9227   6.568   1.210   6.589
 2127WAT     H1 9228   6.576   1.296   6.602
 2127WAT     H2 9229   6.565   1.202   6.502
 2127WAT    EPW 9230   6.569   1.221   6.578
 2128WAT      O 9231   7.036   1.502   5.819
 2128WAT     H1 9232   6.991   1.570   5.849
 2128WAT     H2 9233   7.047   1.452   5.889
 2128WAT    EPW 9234   7.031   1.505   5.834
 2129WAT      O 9235   5.856   1.752   6.739
 2129WAT     H1 9236   5.831   1.835   6.731
 2129WAT     H2 9237   5.790   1.714   6.781
 2129WAT    EPW 9238   5.843   1.759   6.744
 2130WAT      O 9239   5.847   2.723   6.529
 2130WAT     H1 9240   5.788   2.779   6.498
 2130WAT     H2 9241   5.890   2.696   6.458
 2130WAT    EPW 9242   5.845   2.727   6.514
 2131WAT      O 9243   6.431   2.507   6.277
 2131WAT     H1 9244   6.373   2.480   6.336
 2131WAT     H2 9245   6.494   2.447   6.279
 2131WAT    EPW 9246   6.432   2.494   6.286
 2132WAT      O 9247   7.046   2.736   6.029
 2132WAT     H1 9248   7.118   2.783   6.039
 2132WAT     H2 9249   7.068   2.657   6.057
 2132WAT    EPW 9250   7.060   2.732   6.035
 2133WAT      O 9251   6.862   2.775   6.228
 2133WAT     H1 9252   6.884   2.828   6.294
 2133WAT     H2 9253   6.939   2.758   6.190
 2133WAT    EPW 9254   6.877   2.781   6.232
 2134WAT      O 9255   6.159   1.234   6.788
 2134WAT     H1 9256   6.107   1.171   6.757
 2134WAT     H2 9257   6.218   1.190   6.835
 2134WAT    EPW 9258   6.160   1.218   6.790
 2135WAT      O 9259   6.002   2.590   6.322
 2135WAT     H1 9260   6.067   2.533   6.324
 2135WAT     H2 9261   6.041   2.665   6.300
 2135WAT    EPW 9262   6.017   2.593   6.319
 2136WAT      O 9263   7.575   1.499   6.448
 2136WAT     H1 9264   7.540   1.567   6.491
 2136WAT     H2 9265   7.511   1.440   6.450
 2136WAT    EPW 9266   7.561   1.501   6.455
 2137WAT      O 9267   7.106   2.776   7.059
 2137WAT     H1 9268   7.181   2.822   7.058
 2137WAT     H2 9269   7.094   2.755   6.975
 2137WAT    EPW 9270   7.115   2.780   7.046
 2138WAT      O 9271   6.063   1.407   7.616
 2138WAT     H1 9272   5.985   1.368   7.609
 2138WAT     H2 9273   6.112   1.366   7.557
 2138WAT    EPW 9274   6.059   1.395   7.606
 2139WAT      O 9275   6.084   2.439   6.672
 2139WAT     H1 9276   6.126   2.403   6.605
 2139WAT     H2 9277   6.116   2.397   6.741
 2139WAT    EPW 9278   6.095   2.427   6.672
 2140WAT      O 9279   6.407   2.724   6.602
 2140WAT     H1 9280   6.491   2.734   6.582
 2140WAT     H2 9281   6.377   2.806   6.608
 2140WAT    EPW 9282   6.415   2.738   6.600
 2141WAT      O 9283   6.728   1.171   7.533
 2141WAT     H1 9284   6.746   1.090   7.506
 2141WAT     H2 9285   6.714   1.215   7.459
 2141WAT    EPW 9286   6.728   1.166   7.518
 2142WAT      O 9287   6.787   1.664   6.410
 2142WAT     H1 9288   6.816   1.640   6.331
 2142WAT     H2 9289   6.861   1.672   6.457
 2142WAT    EPW 9290   6.802   1.661   6.406
 2143WAT      O 9291   6.860   1.698   5.922
 2143WAT     H1 9292   6.888   1.776   5.947
 2143WAT     H2 9293   6.782   1.714   5.886
 2143WAT    EPW 9294   6.852   1.712   5.921
 2144WAT      O 9295   7.264   2.895   6.069
 2144WAT     H1 9296   7.330   2.880   6.015
 2144WAT     H2 9297   7.300   2.887   6.148
 2144WAT    EPW 9298   7.279   2.892   6.073
 2145WAT      O 9299   6.306   2.846   7.176
 2145WAT     H1 9300   6.336   2.839   7.258
 2145WAT     H2 9301   6.244   2.785   7.171
 2145WAT    EPW 9302   6.302   2.836   7.187
 2146WAT      O 9303   5.798   1.462   7.375
 2146WAT     H1 9304   5.797   1.520   7.439
 2146WAT     H2 9305   5.857   1.493   7.319
 2146WAT    EPW 9306   5.807   1.475   7.376
 2147WAT      O 9307   7.032   2.495   7.429
 2147WAT     H1 9308   7.028   2.533   7.507
 2147WAT     H2 9309   7.117   2.491   7.412
 2147WAT    EPW 9310   7.044   2.500   7.438
 2148WAT      O 9311   6.745   2.515   5.904
 2148WAT     H1 9312   6.727   2.569   5.970
 2148WAT     H2 9313   6.822   2.544   5.874
 2148WAT    EPW 9314   6.754   2.527   5.909
 2149WAT      O 9315   7.096   1.304   6.009
 2149WAT     H1 9316   7.150   1.236   6.017
 2149WAT     H2 9317   7.102   1.344   6.087
 2149WAT    EPW 9318   7.105   1.300   6.022
 2150WAT      O 9319   5.892   1.421   6.266
 2150WAT     H1 9320   5.880   1.335   6.269
 2150WAT     H2 9321   5.844   1.450   6.333
 2150WAT    EPW 9322   5.883   1.413   6.277
 2151WAT      O 9323   6.106   2.662   7.088
 2151WAT     H1 9324   6.036   2.611   7.100
 2151WAT     H2 9325   6.132   2.642   7.007
 2151WAT    EPW 9326   6.099   2.652   7.078
 2152WAT      O 9327   6.822   1.542   6.141
 2152WAT     H1 9328   6.771   1.476   6.115
 2152WAT     H2 9329   6.827   1.592   6.070
 2152WAT    EPW 9330   6.815   1.540   6.127
 2153WAT      O 9331   6.877   2.811   7.179
 2153WAT     H1 9332   6.954   2.803   7.138
 2153WAT     H2 9333   6.819   2.799   7.115
 2153WAT    EPW 9334   6.880   2.808   7.163
 2154WAT      O 9335   6.822   1.236   6.130
 2154WAT     H1 9336   6.776   1.196   6.067
 2154WAT     H2 9337   6.899   1.251   6.092
 2154WAT    EPW 9338   6.827   1.232   6.115
 2155WAT      O 9339   7.505   2.872   6.469
 2155WAT     H1 9340   7.459   2.943   6.489
 2155WAT     H2 9341   7.443   2.815   6.445
 2155WAT    EPW 9342   7.489   2.874   6.468
 2156WAT      O 9343   6.682   1.473   6.582
 2156WAT     H1 9344   6.689   1.529   6.516
 2156WAT     H2 9345   6.694   1.522   6.653
 2156WAT    EPW 9346   6.685   1.488   6.583
 2157WAT      O 9347   7.204   2.456   6.423
 2157WAT     H1 9348   7.274   2.408   6.442
 2157WAT     H2 9349   7.138   2.399   6.428
 2157WAT    EPW 9350   7.205   2.441   6.427
 2158WAT      O 9351   6.242   2.547   7.345
 2158WAT     H1 9352   6.326   2.553   7.322
 2158WAT     H2 9353   6.238   2.587   7.422
 2158WAT    EPW 9354   6.254   2.554   7.353
 2159WAT      O 9355   6.143   1.055   6.417
 2159WAT     H1 9356   6.196   1.124   6.416
 2159WAT     H2 9357   6.143   1.028   6.334
 2159WAT    EPW 9358   6.150   1.061   6.405
 2160WAT      O 9359   6.438   2.098   6.819
 2160WAT     H1 9360   6.455   2.077   6.902
 2160WAT     H2 9361   6.373   2.045   6.798
 2160WAT    EPW 9362   6.431   2.087   6.829
 2161WAT      O 9363   7.061   1.490   7.171
 2161WAT     H1 9364   7.051   1.522   7.252
 2161WAT     H2 9365   7.002   1.426   7.167
 2161WAT    EPW 9366   7.051   1.485   7.182
 2162WAT      O 9367   6.513   2.092   7.078
 2162WAT     H1 9368   6.518   2.177   7.099
 2162WAT     H2 9369   6.485   2.055   7.152
 2162WAT    EPW 9370   6.510   2.099   7.092
 2163WAT      O 9371   7.131   2.162   6.991
 2163WAT     H1 9372   7.079   2.120   7.049
 2163WAT     H2 9373   7.118   2.246   7.010
 2163WAT    EPW 9374   7.121   2.168   7.003
 2164WAT      O 9375   7.187   1.084   6.455
 2164WAT     H1 9376   7.191   1.052   6.536
 2164WAT     H2 9377   7.219   1.020   6.405
 2164WAT    EPW 9378   7.192   1.070   6.459
 2165WAT      O 9379   7.433   1.508   7.285
 2165WAT     H1 9380   7.510   1.485   7.319
 2165WAT     H2 9381   7.385   1.529   7.355
 2165WAT    EPW 9382   7.437   1.508   7.301
 2166WAT      O 9383   6.187   1.436   6.582
 2166WAT     H1 9384   6.215   1.393   6.512
 2166WAT     H2 9385   6.170   1.372   6.639
 2166WAT    EPW 9386   6.189   1.420   6.580
 2167WAT      O 9387   7.456   2.205   6.004
 2167WAT     H1 9388   7.468   2.177   6.086
 2167WAT     H2 9389   7.537   2.208   5.971
 2167WAT    EPW 9390   7.470   2.202   6.011
 2168WAT      O 9391   6.170   2.179   6.537
 2168WAT     H1 9392   6.255   2.171   6.520
 2168WAT     H2 9393   6.134   2.110   6.496
 2168WAT    EPW 9394   6.177   2.167   6.529
 2169WAT      O 9395   6.046   2.851   6.661
 2169WAT     H1 9396   5.979   2.801   6.636
 2169WAT     H2 9397   6.087   2.870   6.586
 2169WAT    EPW 9398   6.042   2.847   6.646
 2170WAT      O 9399   6.001   1.546   6.891
 2170WAT     H1 9400   6.086   1.568   6.886
 2170WAT     H2 9401   5.963   1.603   6.837
 2170WAT    EPW 9402   6.008   1.558   6.882
 2171WAT      O 9403   7.246   1.859   5.963
 2171WAT     H1 9404   7.224   1.932   5.920
 2171WAT     H2 9405   7.201   1.864   6.037
 2171WAT    EPW 9406   7.236   1.871   5.967
 2172WAT      O 9407   6.407   2.179   6.361
 2172WAT     H1 9408   6.478   2.229   6.370
 2172WAT     H2 9409   6.429   2.123   6.298
 2172WAT    EPW 9410   6.420   2.178   6.353
 2173WAT      O 9411   5.822   2.344   6.693
 2173WAT     H1 9412   5.755   2.392   6.720
 2173WAT     H2 9413   5.890   2.398   6.696
 2173WAT    EPW 9414   5.822   2.359   6.697
 2174WAT      O 9415   5.829   2.012   6.203
 2174WAT     H1 9416   5.810   1.928   6.218
 2174WAT     H2 9417   5.895   2.008   6.146
 2174WAT    EPW 9418   5.836   1.999   6.197
 2175WAT      O 9419   7.465   1.301   6.136
 2175WAT     H1 9420   7.539   1.260   6.156
 2175WAT     H2 9421   7.491   1.373   6.093
 2175WAT    EPW 9422   7.479   1.306   6.133
 2176WAT      O 9423   6.859   2.550   6.593
 2176WAT     H1 9424   6.807   2.613   6.564
 2176WAT     H2 9425   6.890   2.513   6.521
 2176WAT    EPW 9426   6.856   2.554   6.578
 2177WAT      O 9427   5.846   2.428   6.161
 2177WAT     H1 9428   5.901   2.485   6.197
 2177WAT     H2 9429   5.823   2.377   6.227
 2177WAT    EPW 9430   5.851   2.429   6.176
 2178WAT      O 9431   6.266   2.328   6.869
 2178WAT     H1 9432   6.313   2.357   6.937
 2178WAT     H2 9433   6.324   2.281   6.824
 2178WAT    EPW 9434   6.282   2.326   6.873
 2179WAT      O 9435   7.110   1.530   6.643
 2179WAT     H1 9436   7.144   1.545   6.722
 2179WAT     H2 9437   7.065   1.456   6.654
 2179WAT    EPW 9438   7.108   1.521   6.656
 2180WAT      O 9439   5.829   2.273   5.923
 2180WAT     H1 9440   5.905   2.230   5.929
 2180WAT     H2 9441   5.830   2.327   5.992
 2180WAT    EPW 9442   5.840   2.275   5.934
 2181WAT      O 9443   5.923   2.095   6.724
 2181WAT     H1 9444   5.966   2.083   6.649
 2181WAT     H2 9445   5.902   2.180   6.721
 2181WAT    EPW 9446   5.926   2.106   6.712
 2182WAT      O 9447   6.558   1.452   6.089
 2182WAT     H1 9448   6.557   1.440   6.002
 2182WAT     H2 9449   6.539   1.537   6.098
 2182WAT    EPW 9450   6.555   1.463   6.077
 2183WAT      O 9451   7.463   2.695   7.239
 2183WAT     H1 9452   7.396   2.746   7.260
 2183WAT     H2 9453   7.469   2.705   7.152
 2183WAT    EPW 9454   7.454   2.704   7.229
 2184WAT      O 9455   6.331   2.447   6.552
 2184WAT     H1 9456   6.344   2.531   6.571
 2184WAT     H2 9457   6.398   2.407   6.592
 2184WAT    EPW 9458   6.343   2.454   6.561
 2185WAT      O 9459   6.144   1.795   7.538
 2185WAT     H1 9460   6.091   1.745   7.585
 2185WAT     H2 9461   6.146   1.756   7.460
 2185WAT    EPW 9462   6.137   1.782   7.534
 2186WAT      O 9463   6.193   1.735   6.052
 2186WAT     H1 9464   6.180   1.690   6.126
 2186WAT     H2 9465   6.135   1.701   5.997
 2186WAT    EPW 9466   6.182   1.723   6.055
 2187WAT      O 9467   6.210   1.918   6.712
 2187WAT     H1 9468   6.131   1.912   6.674
 2187WAT     H2 9469   6.217   1.843   6.756
 2187WAT    EPW 9470   6.199   1.906   6.713
 2188WAT      O 9471   6.253   1.892   7.059
 2188WAT     H1 9472   6.255   1.824   7.004
 2188WAT     H2 9473   6.188   1.941   7.028
 2188WAT    EPW 9474   6.243   1.889   7.046
 2189WAT      O 9475   7.242   1.663   6.899
 2189WAT     H1 9476   7.176   1.696   6.945
 2189WAT     H2 9477   7.261   1.726   6.842
 2189WAT    EPW 9478   7.235   1.677   6.897
 2190WAT      O 9479   6.663   2.769   6.998
 2190WAT     H1 9480   6.635   2.705   6.946
 2190WAT     H2 9481   6.642   2.842   6.954
 2190WAT    EPW 9482   6.655   2.771   6.984
 2191WAT      O 9483   6.907   1.254   7.241
 2191WAT     H1 9484   6.921   1.171   7.217
 2191WAT     H2 9485   6.944   1.259   7.320
 2191WAT    EPW 9486   6.914   1.242   7.249
 2192WAT      O 9487   7.061   1.460   6.250
 2192WAT     H1 9488   7.110   1.532   6.242
 2192WAT     H2 9489   6.982   1.486   6.223
 2192WAT    EPW 9490   7.057   1.474   6.245
 2193WAT      O 9491   6.032   2.027   7.615
 2193WAT     H1 9492   6.029   2.077   7.543
 2193WAT     H2 9493   6.066   1.952   7.585
 2193WAT    EPW 9494   6.037   2.023   7.600
 2194WAT      O 9495   7.193   2.248   7.441
 2194WAT     H1 9496   7.241   2.320   7.450
 2194WAT     H2 9497   7.232   2.205   7.376
 2194WAT    EPW 9498   7.206   2.252   7.432
 2195WAT      O 9499   6.622   2.532   7.558
 2195WAT     H1 9500   6.658   2.514   7.636
 2195WAT     H2 9501   6.579   2.459   7.538
 2195WAT    EPW 9502   6.621   2.519   7.567
 2196WAT      O 9503   6.720   1.607   6.822
 2196WAT     H1 9504   6.768   1.677   6.843
 2196WAT     H2 9505   6.757   1.542   6.867
 2196WAT    EPW 9506   6.732   1.608   6.832
 2197WAT      O 9507   6.938   1.924   6.050
 2197WAT     H1 9508   6.938   1.996   6.001
 2197WAT     H2 9509   6.875   1.937   6.107
 2197WAT    EPW 9510   6.929   1.937   6.051
 2198WAT      O 9511   7.436   2.311   6.448
 2198WAT     H1 9512   7.471   2.276   6.519
 2198WAT     H2 9513   7.435   2.245   6.391
 2198WAT    EPW 9514   7.441   2.296   6.450
 2199WAT      O 9515   7.040   2.617   6.832
 2199WAT     H1 9516   6.980   2.588   6.776
 2199WAT     H2 9517   7.095   2.663   6.781
 2199WAT    EPW 9518   7.039   2.620   6.816
 2200WAT      O 9519   7.041   2.303   6.772
 2200WAT     H1 9520   6.962   2.325   6.799
 2200WAT     H2 9521   7.067   2.243   6.831
 2200WAT    EPW 9522   7.033   2.297   6.785
 2201WAT      O 9523   6.431   2.784   6.217
 2201WAT     H1 9524   6.416   2.706   6.254
 2201WAT     H2 9525   6.500   2.769   6.165
 2201WAT    EPW 9526   6.439   2.770   6.215
 2202WAT      O 9527   6.398   1.158   6.016
 2202WAT     H1 9528   6.407   1.147   6.102
 2202WAT     H2 9529   6.327   1.209   6.009
 2202WAT    EPW 9530   6.389   1.164   6.027
 2203WAT      O 9531   6.660   2.735   6.057
 2203WAT     H1 9532   6.722   2.752   6.116
 2203WAT     H2 9533   6.663   2.804   6.004
 2203WAT    EPW 9534   6.670   2.748   6.058
 2204WAT      O 9535   7.367   2.102   7.257
 2204WAT     H1 9536   7.373   2.115   7.170
 2204WAT     H2 9537   7.443   2.134   7.287
 2204WAT    EPW 9538   7.379   2.109   7.248
 2205WAT      O 9539   7.471   1.132   7.555
 2205WAT     H1 9540   7.407   1.092   7.511
 2205WAT     H2 9541   7.473   1.089   7.631
 2205WAT    EPW 9542   7.462   1.120   7.560
 2206WAT      O 9543   6.110   1.989   6.140
 2206WAT     H1 9544   6.142   1.911   6.118
 2206WAT     H2 9545   6.175   2.026   6.185
 2206WAT    EPW 9546   6.124   1.983   6.143
 2207WAT      O 9547   6.941   2.083   7.217
 2207WAT     H1 9548   6.925   2.144   7.277
 2207WAT     H2 9549   6.994   2.027   7.257
 2207WAT    EPW 9550   6.946   2.084   7.232
 2208WAT      O 9551   5.810   1.155   6.237
 2208WAT     H1 9552   5.823   1.084   6.188
 2208WAT     H2 9553   5.773   1.123   6.309
 2208WAT    EPW 9554   5.806   1.140   6.240
 2209WAT      O 9555   6.779   1.923   6.282
 2209WAT     H1 9556   6.785   1.988   6.340
 2209WAT     H2 9557   6.760   1.853   6.332
 2209WAT    EPW 9558   6.777   1.922   6.298
 2210WAT      O 9559   7.302   2.356   6.869
 2210WAT     H1 9560   7.254   2.386   6.803
 2210WAT     H2 9561   7.266   2.278   6.887
 2210WAT    EPW 9562   7.289   2.349   6.862
 2211WAT      O 9563   6.229   1.375   5.934
 2211WAT     H1 9564   6.177   1.380   5.863
 2211WAT     H2 9565   6.307   1.399   5.904
 2211WAT    EPW 9566   6.233   1.379   5.919
 2212WAT      O 9567   6.701   2.128   6.726
 2212WAT     H1 9568   6.617   2.108   6.734
 2212WAT     H2 9569   6.734   2.111   6.805
 2212WAT    EPW 9570   6.693   2.122   6.738
 2213WAT      O 9571   6.376   2.801   5.814
 2213WAT     H1 9572   6.420   2.731   5.843
 2213WAT     H2 9573   6.397   2.863   5.871
 2213WAT    EPW 9574   6.386   2.800   5.827
 2214WAT      O 9575   6.086   2.097   6.957
 2214WAT     H1 9576   6.158   2.146   6.953
 2214WAT     H2 9577   6.059   2.094   6.874
 2214WAT    EPW 9578   6.093   2.104   6.944
 2215WAT      O 9579   6.409   1.614   6.631
 2215WAT     H1 9580   6.494   1.595   6.640
 2215WAT     H2 9581   6.372   1.536   6.617
 2215WAT    EPW 9582   6.416   1.600   6.630
 2216WAT      O 9583   5.891   1.748   6.296
 2216WAT     H1 9584   5.940   1.719   6.362
 2216WAT     H2 9585   5.904   1.689   6.233
 2216WAT    EPW 9586   5.900   1.735   6.297
 2217WAT      O 9587   7.395   2.050   6.981
 2217WAT     H1 9588   7.394   1.972   7.021
 2217WAT     H2 9589   7.311   2.073   6.981
 2217WAT    EPW 9590   7.382   2.042   6.987
 2218WAT      O 9591   6.344   1.891   5.845
 2218WAT     H1 9592   6.283   1.851   5.892
 2218WAT     H2 9593   6.305   1.903   5.767
 2218WAT    EPW 9594   6.329   1.887   5.840
 2219WAT      O 9595   6.026   2.202   7.385
 2219WAT     H1 9596   5.983   2.150   7.329
 2219WAT     H2 9597   5.990   2.281   7.371
 2219WAT    EPW 9598   6.014   2.206   7.375
 2220WAT      O 9599   6.489   1.737   6.116
 2220WAT     H1 9600   6.516   1.820   6.122
 2220WAT     H2 9601   6.403   1.745   6.106
 2220WAT    EPW 9602   6.480   1.751   6.115
 2221WAT      O 9603   7.286   1.450   7.579
 2221WAT     H1 9604   7.234   1.495   7.631
 2221WAT     H2 9605   7.250   1.370   7.578
 2221WAT    EPW 9606   7.273   1.445   7.587
 2222WAT      O 9607   5.837   1.334   6.769
 2222WAT     H1 9608   5.842   1.369   6.689
 2222WAT     H2 9609   5.913   1.358   6.806
 2222WAT    EPW 9610   5.849   1.343   6.763
 2223WAT      O 9611   7.136   1.806   7.587
 2223WAT     H1 9612   7.143   1.817   7.673
 2223WAT     H2 9613   7.072   1.862   7.564
 2223WAT    EPW 9614   7.127   1.816   7.596
 2224WAT      O 9615   7.362   1.838   7.423
 2224WAT     H1 9616   7.394   1.917   7.443
 2224WAT     H2 9617   7.325   1.811   7.497
 2224WAT    EPW 9618   7.362   1.846   7.437
 2225WAT      O 9619   7.294   2.481   5.976
 2225WAT     H1 9620   7.327   2.400   5.980
 2225WAT     H2 9621   7.218   2.474   6.019
 2225WAT    EPW 9622   7.288   2.468   5.983
 2226WAT      O 9623   7.342   1.664   6.542
 2226WAT     H1 9624   7.268   1.632   6.574
 2226WAT     H2 9625   7.342   1.747   6.570
 2226WAT    EPW 9626   7.331   1.672   6.551
 2227WAT      O 9627   7.031   2.268   5.916
 2227WAT     H1 9628   7.100   2.217   5.899
 2227WAT     H2 9629   6.990   2.273   5.840
 2227WAT    EPW 9630   7.035   2.261   5.903
 2228WAT      O 9631   6.499   2.383   7.047
 2228WAT     H1 9632   6.470   2.442   7.103
 2228WAT     H2 9633   6.505   2.427   6.972
 2228WAT    EPW 9634   6.496   2.399   7.044
 2229WAT      O 9635   6.297   2.278   7.387
 2229WAT     H1 9636   6.217   2.249   7.403
 2229WAT     H2 9637   6.288   2.365   7.387
 2229WAT    EPW 9638   6.284   2.287   7.389
 2230WAT      O 9639   7.233   1.297   7.288
 2230WAT     H1 9640   7.308   1.342   7.282
 2230WAT     H2 9641   7.177   1.344   7.241
 2230WAT    EPW 9642   7.236   1.311   7.280
 2231WAT      O 9643   6.751   2.026   6.996
 2231WAT     H1 9644   6.799   2.063   7.059
 2231WAT     H2 9645   6.669   2.039   7.022
 2231WAT    EPW 9646   6.746   2.033   7.009
 2232WAT      O 9647   6.422   1.586   7.270
 2232WAT     H1 9648   6.438   1.511   7.313
 2232WAT     H2 9649   6.418   1.561   7.186
 2232WAT    EPW 9650   6.424   1.571   7.264
 2233WAT      O 9651   6.677   2.765   6.519
 2233WAT     H1 9652   6.732   2.833   6.524
 2233WAT     H2 9653   6.642   2.773   6.439
 2233WAT    EPW 9654   6.680   2.776   6.508
 2234WAT      O 9655   7.362   1.095   7.055
 2234WAT     H1 9656   7.334   1.178   7.051
 2234WAT     H2 9657   7.433   1.100   7.105
 2234WAT    EPW 9658   7.368   1.108   7.062
 2235WAT      O 9659   6.597   1.167   7.258
 2235WAT     H1 9660   6.668   1.199   7.218
 2235WAT     H2 9661   6.621   1.086   7.281
 2235WAT    EPW 9662   6.611   1.159   7.255
 2236WAT      O 9663   6.496   2.588   6.858
 2236WAT     H1 9664   6.433   2.646   6.839
 2236WAT     H2 9665   6.521   2.559   6.779
 2236WAT    EPW 9666   6.490   2.592   6.843
 2237WAT      O 9667   6.927   2.251   7.556
 2237WAT     H1 9668   7.002   2.280   7.524
 2237WAT     H2 9669   6.872   2.256   7.489
 2237WAT    EPW 9670   6.930   2.256   7.542
 2238WAT      O 9671   7.318   2.506   7.407
 2238WAT     H1 9672   7.352   2.533   7.482
 2238WAT     H2 9673   7.347   2.564   7.349
 2238WAT    EPW 9674   7.327   2.519   7.409
 2239WAT      O 9675   7.504   1.721   5.941
 2239WAT     H1 9676   7.542   1.788   5.901
 2239WAT     H2 9677   7.420   1.743   5.944
 2239WAT    EPW 9678   7.497   1.734   5.935
 2240WAT      O 9679   6.655   2.065   5.849
 2240WAT     H1 9680   6.575   2.048   5.821
 2240WAT     H2 9681   6.652   2.150   5.868
 2240WAT    EPW 9682   6.643   2.075   5.848
 2241WAT      O 9683   6.248   1.672   6.864
 2241WAT     H1 9684   6.292   1.662   6.789
 2241WAT     H2 9685   6.303   1.641   6.925
 2241WAT    EPW 9686   6.263   1.666   6.862
 2242WAT      O 9687   7.050   1.582   7.423
 2242WAT     H1 9688   6.985   1.629   7.458
 2242WAT     H2 9689   7.106   1.573   7.489
 2242WAT    EPW 9690   7.049   1.588   7.438
 2243WAT      O 9691   7.019   1.736   7.053
 2243WAT     H1 9692   7.049   1.778   7.123
 2243WAT     H2 9693   7.022   1.652   7.076
 2243WAT    EPW 9694   7.024   1.730   7.067
 2244WAT      O 9695   6.761   2.753   7.446
 2244WAT     H1 9696   6.809   2.693   7.404
 2244WAT     H2 9697   6.726   2.708   7.512
 2244WAT    EPW 9698   6.763   2.737   7.449
 2245WAT      O 9699   7.273   1.681   6.278
 2245WAT     H1 9700   7.294   1.660   6.361
 2245WAT     H2 9701   7.349   1.707   6.244
 2245WAT    EPW 9702   7.288   1.682   6.285
 2246WAT      O 9703   6.603   1.170   6.869
 2246WAT     H1 9704   6.520   1.156   6.892
 2246WAT     H2 9705   6.599   1.174   6.782
 2246WAT    EPW 9706   6.590   1.169   6.859
 2247WAT      O 9707   7.376   1.289   6.426
 2247WAT     H1 9708   7.304   1.242   6.443
 2247WAT     H2 9709   7.359   1.323   6.347
 2247WAT    EPW 9710   7.363   1.287   6.417
 2248WAT      O 9711   7.420   2.083   6.264
 2248WAT     H1 9712   7.467   2.010   6.259
 2248WAT     H2 9713   7.338   2.055   6.256
 2248WAT    EPW 9714   7.415   2.068   6.262
 2249WAT      O 9715   6.767   2.274   7.348
 2249WAT     H1 9716   6.687   2.268   7.383
 2249WAT     H2 9717   6.774   2.359   7.328
 2249WAT    EPW 9718   6.756   2.286   7.350
 2250WAT      O 9719   5.859   1.210   7.472
 2250WAT     H1 9720   5.845   1.290   7.439
 2250WAT     H2 9721   5.781   1.186   7.501
 2250WAT    EPW 9722   5.846   1.218   7.472
 2251WAT      O 9723   6.350   2.895   6.879
 2251WAT     H1 9724   6.351   2.901   6.966
 2251WAT     H2 9725   6.307   2.820   6.864
 2251WAT    EPW 9726   6.344   2.885   6.890
 2252WAT      O 9727   6.166   1.485   6.195
 2252WAT     H1 9728   6.178   1.452   6.115
 2252WAT     H2 9729   6.085   1.460   6.215
 2252WAT    EPW 9730   6.156   1.476   6.186
 2253WAT      O 9731   7.041   2.200   6.499
 2253WAT     H1 9732   7.049   2.234   6.579
 2253WAT     H2 9733   7.058   2.115   6.511
 2253WAT    EPW 9734   7.045   2.192   6.513
 2254WAT      O 9735   6.794   2.127   6.456
 2254WAT     H1 9736   6.764   2.096   6.531
 2254WAT     H2 9737   6.863   2.175   6.479
 2254WAT    EPW 9738   6.800   2.130   6.470
 2255WAT      O 9739   6.816   2.539   7.258
 2255WAT     H1 9740   6.885   2.528   7.311
 2255WAT     H2 9741   6.829   2.618   7.224
 2255WAT    EPW 9742   6.828   2.549   7.261
 2256WAT      O 9743   7.085   1.867   7.297
 2256WAT     H1 9744   7.059   1.795   7.339
 2256WAT     H2 9745   7.167   1.878   7.324
 2256WAT    EPW 9746   7.093   1.858   7.307
 2257WAT      O 9747   6.026   2.845   7.423
 2257WAT     H1 9748   5.961   2.788   7.433
 2257WAT     H2 9749   5.989   2.922   7.439
 2257WAT    EPW 9750   6.011   2.848   7.427
 2258WAT      O 9751   6.878   1.986   7.616
 2258WAT     H1 9752   6.910   2.054   7.573
 2258WAT     H2 9753   6.808   2.018   7.656
 2258WAT    EPW 9754   6.872   2.000   7.615
 2259WAT      O 9755   7.187   2.823   6.709
 2259WAT     H1 9756   7.141   2.887   6.747
 2259WAT     H2 9757   7.257   2.815   6.759
 2259WAT    EPW 9758   7.190   2.831   6.722
 2260WAT      O 9759   6.857   2.332   7.002
 2260WAT     H1 9760   6.787   2.372   7.036
 2260WAT     H2 9761   6.924   2.375   7.036
 2260WAT    EPW 9762   6.856   2.344   7.012
 2261WAT      O 9763   6.163   1.686   7.236
 2261WAT     H1 9764   6.201   1.748   7.188
 2261WAT     H2 9765   6.231   1.638   7.265
 2261WAT    EPW 9766   6.179   1.688   7.233
 2262WAT      O 9767   5.941   1.531   7.164
 2262WAT     H1 9768   5.949   1.514   7.079
 2262WAT     H2 9769   6.016   1.571   7.184
 2262WAT    EPW 9770   5.953   1.534   7.154
 2263WAT      O 9771   7.497   1.795   6.208
 2263WAT     H1 9772   7.507   1.789   6.121
 2263WAT     H2 9773   7.571   1.761   6.240
 2263WAT    EPW 9774   7.509   1.789   6.200
 2264WAT      O 9775   6.196   1.272   7.405
 2264WAT     H1 9776   6.188   1.187   7.426
 2264WAT     H2 9777   6.165   1.276   7.324
 2264WAT    EPW 9778   6.191   1.260   7.396
 2265WAT      O 9779   6.889   2.491   6.319
 2265WAT     H1 9780   6.868   2.574   6.303
 2265WAT     H2 9781   6.811   2.453   6.331
 2265WAT    EPW 9782   6.874   2.498   6.318
 2266WAT      O 9783   7.407   1.809   7.143
 2266WAT     H1 9784   7.407   1.723   7.156
 2266WAT     H2 9785   7.414   1.842   7.224
 2266WAT    EPW 9786   7.408   1.801   7.157
 2267WAT      O 9787   5.881   2.053   7.186
 2267WAT     H1 9788   5.913   2.075   7.108
 2267WAT     H2 9789   5.871   1.967   7.181
 2267WAT    EPW 9790   5.884   2.044   7.174
 2268WAT      O 9791   6.026   1.647   5.848
 2268WAT     H1 9792   5.959   1.648   5.904
 2268WAT     H2 9793   6.036   1.562   5.830
 2268WAT    EPW 9794   6.018   1.634   5.854
 2269WAT      O 9795   6.995   1.289   7.522
 2269WAT     H1 9796   7.004   1.360   7.571
 2269WAT     H2 9797   6.931   1.245   7.561
 2269WAT    EPW 9798   6.987   1.293   7.535
 2270WAT      O 9799   6.894   1.308   6.607
 2270WAT     H1 9800   6.824   1.360   6.601
 2270WAT     H2 9801   6.898   1.270   6.529
 2270WAT    EPW 9802   6.885   1.310   6.595
 2271WAT      O 9803   6.425   2.517   5.959
 2271WAT     H1 9804   6.469   2.525   6.034
 2271WAT     H2 9805   6.345   2.496   5.985
 2271WAT    EPW 9806   6.420   2.515   5.974
 2272WAT      O 9807   7.254   1.360   6.887
 2272WAT     H1 9808   7.340   1.370   6.902
 2272WAT     H2 9809   7.217   1.415   6.944
 2272WAT    EPW 9810   7.261   1.369   6.898
 2273WAT      O 9811   6.357   1.982   7.325
 2273WAT     H1 9812   6.317   2.060   7.332
 2273WAT     H2 9813   6.316   1.945   7.257
 2273WAT    EPW 9814   6.345   1.988   7.316
 2274WAT      O 9815   7.285   1.888   6.736
 2274WAT     H1 9816   7.351   1.942   6.752
 2274WAT     H2 9817   7.250   1.919   6.662
 2274WAT    EPW 9818   7.289   1.900   6.728
 2275WAT      O 9819   7.316   2.694   6.317
 2275WAT     H1 9820   7.298   2.629   6.372
 2275WAT     H2 9821   7.387   2.667   6.275
 2275WAT    EPW 9822   7.324   2.681   6.319
 2276WAT      O 9823   6.158   2.424   6.020
 2276WAT     H1 9824   6.134   2.394   6.098
 2276WAT     H2 9825   6.155   2.354   5.968
 2276WAT    EPW 9826   6.154   2.409   6.023
 2277WAT      O 9827   6.440   2.249   5.894
 2277WAT     H1 9828   6.358   2.222   5.908
 2277WAT     H2 9829   6.437   2.334   5.912
 2277WAT    EPW 9830   6.427   2.257   5.899
 2278WAT      O 9831   6.400   1.280   7.070
 2278WAT     H1 9832   6.313   1.288   7.078
 2278WAT     H2 9833   6.422   1.229   7.137
 2278WAT    EPW 9834   6.390   1.274   7.081
 2279WAT      O 9835   6.810   1.355   6.907
 2279WAT     H1 9836   6.736   1.309   6.918
 2279WAT     H2 9837   6.867   1.315   6.959
 2279WAT    EPW 9838   6.808   1.342   6.917
 2280WAT      O 9839   7.083   2.440   7.086
 2280WAT     H1 9840   7.104   2.470   7.165
 2280WAT     H2 9841   7.077   2.512   7.037
 2280WAT    EPW 9842   7.085   2.455   7.090
 2281WAT      O 9843   7.037   2.861   7.511
 2281WAT     H1 9844   6.961   2.859   7.466
 2281WAT     H2 9845   7.054   2.946   7.519
 2281WAT    EPW 9846   7.028   2.873   7.505
 2282WAT      O 9847   6.560   1.788   7.428
 2282WAT     H1 9848   6.528   1.730   7.371
 2282WAT     H2 9849   6.525   1.863   7.403
 2282WAT    EPW 9850   6.550   1.790   7.416
 2283WAT      O 9851   6.640   1.113   5.890
 2283WAT     H1 9852   6.648   1.138   5.807
 2283WAT     H2 9853   6.566   1.151   5.916
 2283WAT    EPW 9854   6.630   1.122   5.882
 2284WAT      O 9855   7.565   2.304   7.032
 2284WAT     H1 9856   7.561   2.217   7.018
 2284WAT     H2 9857   7.495   2.334   6.988
 2284WAT    EPW 9858   7.554   2.295   7.023
 2285WAT      O 9859   6.404   2.823   7.452
 2285WAT     H1 9860   6.408   2.836   7.539
 2285WAT     H2 9861   6.469   2.767   7.437
 2285WAT    EPW 9862   6.414   2.817   7.463
 2286WAT      O 9863   7.375   2.630   6.911
 2286WAT     H1 9864   7.428   2.621   6.842
 2286WAT     H2 9865   7.336   2.552   6.917
 2286WAT    EPW 9866   7.377   2.617   6.902
 2287WAT      O 9867   6.122   1.288   7.135
 2287WAT     H1 9868   6.088   1.212   7.111
 2287WAT     H2 9869   6.052   1.341   7.141
 2287WAT    EPW 9870   6.107   1.285   7.132
 2288WAT      O 9871   7.026   1.174   6.832
 2288WAT     H1 9872   7.093   1.228   6.845
 2288WAT     H2 9873   6.976   1.216   6.775
 2288WAT    EPW 9874   7.029   1.188   6.826
 2289WAT      O 9875   6.163   2.662   7.588
 2289WAT     H1 9876   6.223   2.705   7.636
 2289WAT     H2 9877   6.127   2.724   7.539
 2289WAT    EPW 9878   6.167   2.677   7.588
 2290WAT      O 9879   6.962   1.755   6.582
 2290WAT     H1 9880   7.017   1.694   6.612
 2290WAT     H2 9881   6.920   1.781   6.653
 2290WAT    EPW 9882   6.964   1.750   6.596
 2291WAT      O 9883   5.987   1.620   6.530
 2291WAT     H1 9884   5.950   1.650   6.603
 2291WAT     H2 9885   6.041   1.557   6.559
 2291WAT    EPW 9886   5.990   1.615   6.545
 2292WAT      O 9887   5.956   2.461   7.281
 2292WAT     H1 9888   5.899   2.502   7.332
 2292WAT     H2 9889   6.029   2.507   7.291
 2292WAT    EPW 9890   5.958   2.474   7.290
 2293WAT      O 9891   7.159   1.938   6.238
 2293WAT     H1 9892   7.166   1.853   6.256
 2293WAT     H2 9893   7.077   1.946   6.210
 2293WAT    EPW 9894   7.148   1.927   6.236
 2294WAT      O 9895   6.135   2.787   6.159
 2294WAT     H1 9896   6.120   2.803   6.074
 2294WAT     H2 9897   6.221   2.795   6.167
 2294WAT    EPW 9898   6.145   2.791   6.147
 2295WAT      O 9899   6.551   2.027   6.132
 2295WAT     H1 9900   6.561   2.041   6.046
 2295WAT     H2 9901   6.633   2.021   6.161
 2295WAT    EPW 9902   6.565   2.028   6.123
 2296WAT      O 9903   7.467   2.833   5.880
 2296WAT     H1 9904   7.531   2.820   5.938
 2296WAT     H2 9905   7.433   2.754   5.868
 2296WAT    EPW 9906   7.472   2.820   5.886
 2297WAT      O 9907   7.487   2.075   7.553
 2297WAT     H1 9908   7.550   2.058   7.610
 2297WAT     H2 9909   7.528   2.115   7.488
 2297WAT    EPW 9910   7.502   2.079   7.552
 2298WAT      O 9911   7.075   2.460   6.112
 2298WAT     H1 9912   7.050   2.447   6.194
 2298WAT     H2 9913   7.043   2.390   6.070
 2298WAT    EPW 9914   7.066   2.448   6.118
 2299WAT      O 9915   7.549   1.532   7.627
 2299WAT     H1 9916   7.530   1.596   7.682
 2299WAT     H2 9917   7.477   1.483   7.626
 2299WAT    EPW 9918   7.536   1.534   7.635
 2300WAT      O 9919   7.539   1.626   6.924
 2300WAT     H1 9920   7.456   1.651   6.917
 2300WAT     H2 9921   7.534   1.542   6.947
 2300WAT    EPW 9922   7.526   1.617   6.926
 2301WAT      O 9923   6.465   1.324   7.443
 2301WAT     H1 9924   6.489   1.267   7.382
 2301WAT     H2 9925   6.381   1.306   7.457
 2301WAT    EPW 9926   6.456   1.313   7.436
 2302WAT      O 9927   7.228   2.086   7.688
 2302WAT     H1 9928   7.315   2.083   7.685
 2302WAT     H2 9929   7.206   2.128   7.615
 2302WAT    EPW 9930   7.238   2.092   7.677
 2303WAT      O 9931   6.203   2.669   6.806
 2303WAT     H1 9932   6.195   2.588   6.775
 2303WAT     H2 9933   6.159   2.717   6.749
 2303WAT    EPW 9934   6.196   2.664   6.793
 2304WAT      O 9935   6.763   2.281   6.055
 2304WAT     H1 9936   6.835   2.246   6.019
 2304WAT     H2 9937   6.760   2.361   6.020
 2304WAT    EPW 9938   6.773   2.287   6.044
 2305WAT      O 9939   5.960   2.893   7.165
 2305WAT     H1 9940   6.010   2.888   7.236
 2305WAT     H2 9941   5.979   2.820   7.121
 2305WAT    EPW 9942   5.971   2.881   7.169
 2306WAT      O 9943   6.904   1.145   4.479
 2306WAT     H1 9944   6.880   1.194   4.411
 2306WAT     H2 9945   6.991   1.137   4.469
 2306WAT    EPW 9946   6.913   1.151   4.467
 2307WAT      O 9947   6.885   1.836   4.946
 2307WAT     H1 9948   6.833   1.896   4.982
 2307WAT     H2 9949   6.925   1.800   5.014
 2307WAT    EPW 9950   6.883   1.840   4.961
 2308WAT      O 9951   5.872   2.250   4.491
 2308WAT     H1 9952   5.828   2.262   4.566
 2308WAT     H2 9953   5.844   2.173   4.463
 2308WAT    EPW 9954   5.861   2.241   4.498
 2309WAT      O 9955   7.500   2.580   4.243
 2309WAT     H1 9956   7.570   2.529   4.242
 2309WAT     H2 9957   7.441   2.536   4.196
 2309WAT    EPW 9958   7.501   2.566   4.236
 2310WAT      O 9959   5.846   1.630   4.142
 2310WAT     H1 9960   5.769   1.646   4.106
 2310WAT     H2 9961   5.850   1.542   4.144
 2310WAT    EPW 9962   5.835   1.619   4.137
 2311WAT      O 9963   6.160   2.156   4.009
 2311WAT     H1 9964   6.121   2.119   3.941
 2311WAT     H2 9965   6.152   2.096   4.072
 2311WAT    EPW 9966   6.153   2.142   4.008
 2312WAT      O 9967   7.152   1.943   4.613
 2312WAT     H1 9968   7.160   1.943   4.526
 2312WAT     H2 9969   7.094   1.880   4.628
 2312WAT    EPW 9970   7.145   1.934   4.603
 2313WAT      O 9971   6.123   2.320   4.399
 2313WAT     H1 9972   6.184   2.303   4.460
 2313WAT     H2 9973   6.048   2.306   4.441
 2313WAT    EPW 9974   6.121   2.315   4.414
 2314WAT      O 9975   6.551   1.253   4.394
 2314WAT     H1 9976   6.544   1.321   4.340
 2314WAT     H2 9977   6.625   1.215   4.369
 2314WAT    EPW 9978   6.561   1.258   4.382
 2315WAT      O 9979   6.012   2.629   4.007
 2315WAT     H1 9980   6.059   2.637   3.934
 2315WAT     H2 9981   6.058   2.571   4.054
 2315WAT    EPW 9982   6.026   2.622   4.003
 2316WAT      O 9983   5.866   2.524   5.117
 2316WAT     H1 9984   5.879   2.496   5.198
 2316WAT     H2 9985   5.805   2.470   5.086
 2316WAT    EPW 9986   5.859   2.512   5.124
 2317WAT      O 9987   6.523   2.276   5.624
 2317WAT     H1 9988   6.500   2.276   5.708
 2317WAT     H2 9989   6.449   2.262   5.581
 2317WAT    EPW 9990   6.509   2.274   5.630
 2318WAT      O 9991   6.011   1.976   4.537
 2318WAT     H1 9992   5.964   1.937   4.474
 2318WAT     H2 9993   6.081   1.925   4.546
 2318WAT    EPW 9994   6.014   1.963   4.529
 2319WAT      O 9995   6.461   1.537   5.072
 2319WAT     H1 9996   6.529   1.539   5.017
 2319WAT     H2 9997   6.457   1.453   5.096
 2319WAT    EPW 9998   6.471   1.525   5.067
 2320WAT      O 9999   6.522   2.596   5.350
 2320WAT     H110000   6.535   2.672   5.309
 2320WAT     H210001   6.601   2.559   5.353
 2320WAT    EPW10002   6.535   2.601   5.344
 2321WAT      O10003   6.211   1.786   4.539
 2321WAT     H110004   6.292   1.767   4.564
 2321WAT     H210005   6.163   1.725   4.579
 2321WAT    EPW10006   6.216   1.774   4.549
 2322WAT      O10007   6.631   2.384   4.800
 2322WAT     H110008   6.666   2.304   4.803
 2322WAT     H210009   6.698   2.434   4.775
 2322WAT    EPW10010   6.646   2.380   4.797
 2323WAT      O10011   6.637   2.329   4.421
 2323WAT     H110012   6.670   2.265   4.470
 2323WAT     H210013   6.661   2.308   4.340
 2323WAT    EPW10014   6.645   2.316   4.417
 2324WAT      O10015   6.834   1.742   5.555
 2324WAT     H110016   6.749   1.732   5.538
 2324WAT     H210017   6.837   1.817   5.601
 2324WAT    EPW10018   6.822   1.752   5.559
 2325WAT      O10019   6.270   1.295   4.466
 2325WAT     H110020   6.241   1.345   4.401
 2325WAT     H210021   6.357   1.303   4.460
 2325WAT    EPW10022   6.279   1.304   4.456
 2326WAT      O10023   7.289   1.038   5.467
 2326WAT     H110024   7.274   1.115   5.429
 2326WAT     H210025   7.212   1.016   5.501
 2326WAT    EPW10026   7.276   1.046   5.466
 2327WAT      O10027   6.568   1.210   4.688
 2327WAT     H110028   6.576   1.296   4.701
 2327WAT     H210029   6.565   1.202   4.601
 2327WAT    EPW10030   6.569   1.221   4.677
 2328WAT      O10031   7.036   1.502   3.918
 2328WAT     H110032   6.991   1.570   3.949
 2328WAT     H210033   7.047   1.452   3.988
 2328WAT    EPW10034   7.031   1.505   3.933
 2329WAT      O10035   5.856   1.752   4.838
 2329WAT     H110036   5.831   1.835   4.831
 2329WAT     H210037   5.790   1.714   4.880
 2329WAT    EPW10038   5.843   1.759   4.843
 2330WAT      O10039   5.847   2.723   4.628
 2330WAT     H110040   5.788   2.779   4.597
 2330WAT     H210041   5.890   2.696   4.557
 2330WAT    EPW10042   5.845   2.727   4.613
 2331WAT      O10043   6.431   2.507   4.376
 2331WAT     H110044   6.373   2.480   4.436
 2331WAT     H210045   6.494   2.447   4.379
 2331WAT    EPW10046   6.432   2.494   4.385
 2332WAT      O10047   7.046   2.736   4.129
 2332WAT     H110048   7.118   2.783   4.139
 2332WAT     H210049   7.068   2.657   4.157
 2332WAT    EPW10050   7.060   2.732   4.134
 2333WAT      O10051   6.862   2.775   4.328
 2333WAT     H110052   6.884   2.828   4.394
 2333WAT     H210053   6.939   2.758   4.290
 2333WAT    EPW10054   6.877   2.781   4.332
 2334WAT      O10055   6.159   1.234   4.887
 2334WAT     H110056   6.107   1.171   4.857
 2334WAT     H210057   6.218   1.190   4.935
 2334WAT    EPW10058   6.160   1.218   4.890
 2335WAT      O10059   6.490   1.447   5.817
 2335WAT     H110060   6.501   1.402   5.744
 2335WAT     H210061   6.519   1.527   5.797
 2335WAT    EPW10062   6.496   1.452   5.803
 2336WAT      O10063   6.002   2.590   4.421
 2336WAT     H110064   6.067   2.533   4.423
 2336WAT     H210065   6.041   2.665   4.399
 2336WAT    EPW10066   6.017   2.593   4.418
 2337WAT      O10067   7.575   1.499   4.548
 2337WAT     H110068   7.540   1.567   4.590
 2337WAT     H210069   7.511   1.440   4.549
 2337WAT    EPW10070   7.561   1.501   4.554
 2338WAT      O10071   7.106   2.776   5.158
 2338WAT     H110072   7.181   2.822   5.157
 2338WAT     H210073   7.094   2.755   5.074
 2338WAT    EPW10074   7.115   2.780   5.146
 2339WAT      O10075   6.063   1.407   5.716
 2339WAT     H110076   5.985   1.368   5.708
 2339WAT     H210077   6.112   1.366   5.657
 2339WAT    EPW10078   6.059   1.395   5.706
 2340WAT      O10079   6.084   2.439   4.771
 2340WAT     H110080   6.126   2.403   4.704
 2340WAT     H210081   6.116   2.397   4.841
 2340WAT    EPW10082   6.095   2.427   4.772
 2341WAT      O10083   6.407   2.724   4.701
 2341WAT     H110084   6.491   2.734   4.682
 2341WAT     H210085   6.377   2.806   4.708
 2341WAT    EPW10086   6.415   2.738   4.699
 2342WAT      O10087   6.728   1.171   5.632
 2342WAT     H110088   6.746   1.090   5.605
 2342WAT     H210089   6.714   1.215   5.559
 2342WAT    EPW10090   6.728   1.166   5.617
 2343WAT      O10091   6.787   1.664   4.510
 2343WAT     H110092   6.816   1.640   4.431
 2343WAT     H210093   6.861   1.672   4.557
 2343WAT    EPW10094   6.802   1.661   4.505
 2344WAT      O10095   6.860   1.698   4.022
 2344WAT     H110096   6.888   1.776   4.047
 2344WAT     H210097   6.782   1.714   3.986
 2344WAT    EPW10098   6.852   1.712   4.020
 2345WAT      O10099   7.264   2.895   4.169
 2345WAT     H110100   7.330   2.880   4.114
 2345WAT     H210101   7.300   2.887   4.248
 2345WAT    EPW10102   7.279   2.892   4.172
 2346WAT      O10103   6.306   2.846   5.275
 2346WAT     H110104   6.336   2.839   5.357
 2346WAT     H210105   6.244   2.785   5.271
 2346WAT    EPW10106   6.302   2.836   5.287
 2347WAT      O10107   5.798   1.462   5.474
 2347WAT     H110108   5.797   1.520   5.539
 2347WAT     H210109   5.857   1.493   5.419
 2347WAT    EPW10110   5.807   1.475   5.476
 2348WAT      O10111   7.032   2.495   5.528
 2348WAT     H110112   7.028   2.533   5.607
 2348WAT     H210113   7.117   2.491   5.511
 2348WAT    EPW10114   7.044   2.500   5.538
 2349WAT      O10115   6.745   2.515   4.003
 2349WAT     H110116   6.727   2.569   4.069
 2349WAT     H210117   6.822   2.544   3.973
 2349WAT    EPW10118   6.754   2.527   4.009
 2350WAT      O10119   7.096   1.304   4.109
 2350WAT     H110120   7.150   1.236   4.116
 2350WAT     H210121   7.102   1.344   4.186
 2350WAT    EPW10122   7.105   1.300   4.121
 2351WAT      O10123   5.892   1.421   4.366
 2351WAT     H110124   5.880   1.335   4.369
 2351WAT     H210125   5.844   1.450   4.433
 2351WAT    EPW10126   5.883   1.413   4.376
 2352WAT      O10127   6.106   2.662   5.187
 2352WAT     H110128   6.036   2.611   5.200
 2352WAT     H210129   6.132   2.642   5.106
 2352WAT    EPW10130   6.099   2.652   5.177
 2353WAT      O10131   6.822   1.542   4.240
 2353WAT     H110132   6.771   1.476   4.215
 2353WAT     H210133   6.827   1.592   4.169
 2353WAT    EPW10134   6.815   1.540   4.226
 2354WAT      O10135   6.877   2.811   5.278
 2354WAT     H110136   6.954   2.803   5.238
 2354WAT     H210137   6.819   2.799   5.214
 2354WAT    EPW10138   6.880   2.808   5.263
 2355WAT      O10139   6.822   1.236   4.229
 2355WAT     H110140   6.776   1.196   4.167
 2355WAT     H210141   6.899   1.251   4.192
 2355WAT    EPW10142   6.827   1.232   4.215
 2356WAT      O10143   7.505   2.872   4.568
 2356WAT     H110144   7.459   2.943   4.588
 2356WAT     H210145   7.443   2.815   4.544
 2356WAT    EPW10146   7.489   2.874   4.568
 2357WAT      O10147   6.682   1.473   4.682
 2357WAT     H110148   6.689   1.529   4.616
 2357WAT     H210149   6.694   1.522   4.753
 2357WAT    EPW10150   6.685   1.488   4.682
 2358WAT      O10151   7.204   2.456   4.523
 2358WAT     H110152   7.274   2.408   4.542
 2358WAT     H210153   7.138   2.399   4.527
 2358WAT    EPW10154   7.205   2.441   4.526
 2359WAT      O10155   6.242   2.547   5.444
 2359WAT     H110156   6.326   2.553   5.422
 2359WAT     H210157   6.238   2.587   5.522
 2359WAT    EPW10158   6.254   2.554   5.452
 2360WAT      O10159   6.143   1.055   4.516
 2360WAT     H110160   6.196   1.124   4.515
 2360WAT     H210161   6.143   1.028   4.434
 2360WAT    EPW10162   6.150   1.061   4.504
 2361WAT      O10163   6.438   2.098   4.919
 2361WAT     H110164   6.455   2.077   5.002
 2361WAT     H210165   6.373   2.045   4.897
 2361WAT    EPW10166   6.431   2.087   4.928
 2362WAT      O10167   7.061   1.490   5.270
 2362WAT     H110168   7.051   1.522   5.351
 2362WAT     H210169   7.002   1.426   5.267
 2362WAT    EPW10170   7.051   1.485   5.282
 2363WAT      O10171   6.513   2.092   5.178
 2363WAT     H110172   6.518   2.177   5.198
 2363WAT     H210173   6.485   2.055   5.252
 2363WAT    EPW10174   6.510   2.099   5.192
 2364WAT      O10175   7.131   2.162   5.091
 2364WAT     H110176   7.079   2.120   5.148
 2364WAT     H210177   7.118   2.246   5.109
 2364WAT    EPW10178   7.121   2.168   5.102
 2365WAT      O10179   7.187   1.084   4.554
 2365WAT     H110180   7.191   1.052   4.635
 2365WAT     H210181   7.219   1.020   4.505
 2365WAT    EPW10182   7.192   1.070   4.559
 2366WAT      O10183   5.795   2.529   5.799
 2366WAT     H110184   5.871   2.564   5.825
 2366WAT     H210185   5.813   2.444   5.793
 2366WAT    EPW10186   5.809   2.522   5.802
 2367WAT      O10187   7.433   1.508   5.385
 2367WAT     H110188   7.510   1.485   5.418
 2367WAT     H210189   7.385   1.529   5.455
 2367WAT    EPW10190   7.437   1.508   5.400
 2368WAT      O10191   6.187   1.436   4.682
 2368WAT     H110192   6.215   1.393   4.611
 2368WAT     H210193   6.170   1.372   4.739
 2368WAT    EPW10194   6.189   1.420   4.680
 2369WAT      O10195   7.456   2.205   4.104
 2369WAT     H110196   7.468   2.177   4.185
 2369WAT     H210197   7.537   2.208   4.071
 2369WAT    EPW10198   7.470   2.202   4.111
 2370WAT      O10199   6.170   2.179   4.637
 2370WAT     H110200   6.255   2.171   4.619
 2370WAT     H210201   6.134   2.110   4.595
 2370WAT    EPW10202   6.177   2.167   4.628
 2371WAT      O10203   6.046   2.851   4.760
 2371WAT     H110204   5.979   2.801   4.736
 2371WAT     H210205   6.087   2.870   4.685
 2371WAT    EPW10206   6.042   2.847   4.746
 2372WAT      O10207   6.001   1.546   4.990
 2372WAT     H110208   6.086   1.568   4.986
 2372WAT     H210209   5.963   1.603   4.937
 2372WAT    EPW10210   6.008   1.558   4.981
 2373WAT      O10211   7.246   1.859   4.062
 2373WAT     H110212   7.224   1.932   4.020
 2373WAT     H210213   7.201   1.864   4.137
 2373WAT    EPW10214   7.236   1.871   4.067
 2374WAT      O10215   6.407   2.179   4.460
 2374WAT     H110216   6.478   2.229   4.469
 2374WAT     H210217   6.429   2.123   4.398
 2374WAT    EPW10218   6.420   2.178   4.452
 2375WAT      O10219   5.822   2.344   4.792
 2375WAT     H110220   5.755   2.392   4.820
 2375WAT     H210221   5.890   2.398   4.795
 2375WAT    EPW10222   5.822   2.359   4.797
 2376WAT      O10223   6.587   1.715   5.802
 2376WAT     H110224   6.538   1.772   5.846
 2376WAT     H210225   6.584   1.744   5.720
 2376WAT    EPW10226   6.579   1.728   5.796
 2377WAT      O10227   5.829   2.012   4.302
 2377WAT     H110228   5.810   1.928   4.318
 2377WAT     H210229   5.895   2.008   4.245
 2377WAT    EPW10230   5.836   1.999   4.296
 2378WAT      O10231   7.465   1.301   4.235
 2378WAT     H110232   7.539   1.260   4.255
 2378WAT     H210233   7.491   1.373   4.193
 2378WAT    EPW10234   7.479   1.306   4.232
 2379WAT      O10235   6.859   2.550   4.693
 2379WAT     H110236   6.807   2.613   4.664
 2379WAT     H210237   6.890   2.513   4.620
 2379WAT    EPW10238   6.856   2.554   4.678
 2380WAT      O10239   5.846   2.428   4.260
 2380WAT     H110240   5.901   2.485   4.296
 2380WAT     H210241   5.823   2.377   4.326
 2380WAT    EPW10242   5.851   2.429   4.275
 2381WAT      O10243   6.266   2.328   4.969
 2381WAT     H110244   6.313   2.357   5.037
 2381WAT     H210245   6.324   2.281   4.923
 2381WAT    EPW10246   6.282   2.326   4.972
 2382WAT      O10247   7.110   1.530   4.743
 2382WAT     H110248   7.144   1.545   4.821
 2382WAT     H210249   7.065   1.456   4.754
 2382WAT    EPW10250   7.108   1.521   4.756
 2383WAT      O10251   5.829   2.273   4.023
 2383WAT     H110252   5.905   2.230   4.029
 2383WAT     H210253   5.830   2.327   4.092
 2383WAT    EPW10254   5.840   2.275   4.034
 2384WAT      O10255   5.923   2.095   4.823
 2384WAT     H110256   5.966   2.083   4.749
 2384WAT     H210257   5.902   2.180   4.821
 2384WAT    EPW10258   5.926   2.106   4.812
 2385WAT      O10259   6.558   1.452   4.188
 2385WAT     H110260   6.557   1.440   4.102
 2385WAT     H210261   6.539   1.537   4.197
 2385WAT    EPW10262   6.555   1.463   4.177
 2386WAT      O10263   7.463   2.695   5.338
 2386WAT     H110264   7.396   2.746   5.360
 2386WAT     H210265   7.469   2.705   5.252
 2386WAT    EPW10266   7.454   2.704   5.328
 2387WAT      O10267   6.331   2.447   4.651
 2387WAT     H110268   6.344   2.531   4.670
 2387WAT     H210269   6.398   2.407   4.691
 2387WAT    EPW10270   6.343   2.454   4.660
 2388WAT      O10271   6.144   1.795   5.638
 2388WAT     H110272   6.091   1.745   5.684
 2388WAT     H210273   6.146   1.756   5.560
 2388WAT    EPW10274   6.137   1.782   5.633
 2389WAT      O10275   6.193   1.735   4.152
 2389WAT     H110276   6.180   1.690   4.225
 2389WAT     H210277   6.135   1.701   4.096
 2389WAT    EPW10278   6.182   1.723   4.154
 2390WAT      O10279   6.210   1.918   4.812
 2390WAT     H110280   6.131   1.912   4.773
 2390WAT     H210281   6.217   1.843   4.855
 2390WAT    EPW10282   6.199   1.906   4.812
 2391WAT      O10283   6.253   1.892   5.158
 2391WAT     H110284   6.255   1.824   5.103
 2391WAT     H210285   6.188   1.941   5.127
 2391WAT    EPW10286   6.243   1.889   5.146
 2392WAT      O10287   7.242   1.663   4.998
 2392WAT     H110288   7.176   1.696   5.044
 2392WAT     H210289   7.261   1.726   4.941
 2392WAT    EPW10290   7.235   1.677   4.996
 2393WAT      O10291   6.663   2.769   5.098
 2393WAT     H110292   6.635   2.705   5.045
 2393WAT     H210293   6.642   2.842   5.054
 2393WAT    EPW10294   6.655   2.771   5.083
 2394WAT      O10295   6.907   1.254   5.341
 2394WAT     H110296   6.921   1.171   5.317
 2394WAT     H210297   6.944   1.259   5.419
 2394WAT    EPW10298   6.914   1.242   5.349
 2395WAT      O10299   7.061   1.460   4.349
 2395WAT     H110300   7.110   1.532   4.341
 2395WAT     H210301   6.982   1.486   4.323
 2395WAT    EPW10302   7.057   1.474   4.344
 2396WAT      O10303   6.032   2.027   5.714
 2396WAT     H110304   6.029   2.077   5.643
 2396WAT     H210305   6.066   1.952   5.685
 2396WAT    EPW10306   6.037   2.023   5.699
 2397WAT      O10307   7.193   2.248   5.540
 2397WAT     H110308   7.241   2.320   5.550
 2397WAT     H210309   7.232   2.205   5.475
 2397WAT    EPW10310   7.206   2.252   5.532
 2398WAT      O10311   6.622   2.532   5.658
 2398WAT     H110312   6.658   2.514   5.735
 2398WAT     H210313   6.579   2.459   5.638
 2398WAT    EPW10314   6.621   2.519   5.666
 2399WAT      O10315   6.720   1.607   4.922
 2399WAT     H110316   6.768   1.677   4.942
 2399WAT     H210317   6.757   1.542   4.967
 2399WAT    EPW10318   6.732   1.608   4.931
 2400WAT      O10319   6.938   1.924   4.149
 2400WAT     H110320   6.938   1.996   4.100
 2400WAT     H210321   6.875   1.937   4.207
 2400WAT    EPW10322   6.929   1.937   4.150
 2401WAT      O10323   7.436   2.311   4.547
 2401WAT     H110324   7.471   2.276   4.619
 2401WAT     H210325   7.435   2.245   4.490
 2401WAT    EPW10326   7.441   2.296   4.549
 2402WAT      O10327   7.040   2.617   4.931
 2402WAT     H110328   6.980   2.588   4.876
 2402WAT     H210329   7.095   2.663   4.881
 2402WAT    EPW10330   7.039   2.620   4.916
 2403WAT      O10331   7.041   2.303   4.871
 2403WAT     H110332   6.962   2.325   4.899
 2403WAT     H210333   7.067   2.243   4.930
 2403WAT    EPW10334   7.033   2.297   4.884
 2404WAT      O10335   6.431   2.784   4.316
 2404WAT     H110336   6.416   2.706   4.353
 2404WAT     H210337   6.500   2.769   4.265
 2404WAT    EPW10338   6.439   2.770   4.314
 2405WAT      O10339   6.398   1.158   4.115
 2405WAT     H110340   6.407   1.147   4.201
 2405WAT     H210341   6.327   1.209   4.109
 2405WAT    EPW10342   6.389   1.164   4.127
 2406WAT      O10343   6.660   2.735   4.156
 2406WAT     H110344   6.722   2.752   4.215
 2406WAT     H210345   6.663   2.804   4.103
 2406WAT    EPW10346   6.670   2.748   4.157
 2407WAT      O10347   7.367   2.102   5.356
 2407WAT     H110348   7.373   2.115   5.270
 2407WAT     H210349   7.443   2.134   5.386
 2407WAT    EPW10350   7.379   2.109   5.348
 2408WAT      O10351   6.987   2.637   5.784
 2408WAT     H110352   7.003   2.666   5.865
 2408WAT     H210353   7.013   2.703   5.733
 2408WAT    EPW10354   6.993   2.651   5.788
 2409WAT      O10355   7.471   1.132   5.655
 2409WAT     H110356   7.407   1.092   5.611
 2409WAT     H210357   7.473   1.089   5.731
 2409WAT    EPW10358   7.462   1.120   5.659
 2410WAT      O10359   6.110   1.989   4.239
 2410WAT     H110360   6.142   1.911   4.217
 2410WAT     H210361   6.175   2.026   4.285
 2410WAT    EPW10362   6.124   1.983   4.243
 2411WAT      O10363   6.941   2.083   5.316
 2411WAT     H110364   6.925   2.144   5.376
 2411WAT     H210365   6.994   2.027   5.357
 2411WAT    EPW10366   6.946   2.084   5.331
 2412WAT      O10367   5.810   1.155   4.336
 2412WAT     H110368   5.823   1.084   4.287
 2412WAT     H210369   5.773   1.123   4.409
 2412WAT    EPW10370   5.806   1.140   4.340
 2413WAT      O10371   6.779   1.923   4.382
 2413WAT     H110372   6.785   1.988   4.440
 2413WAT     H210373   6.760   1.853   4.431
 2413WAT    EPW10374   6.777   1.922   4.398
 2414WAT      O10375   7.302   2.356   4.969
 2414WAT     H110376   7.254   2.386   4.902
 2414WAT     H210377   7.266   2.278   4.987
 2414WAT    EPW10378   7.289   2.349   4.962
 2415WAT      O10379   6.229   1.375   4.033
 2415WAT     H110380   6.177   1.380   3.962
 2415WAT     H210381   6.307   1.399   4.003
 2415WAT    EPW10382   6.233   1.379   4.018
 2416WAT      O10383   6.701   2.128   4.825
 2416WAT     H110384   6.617   2.108   4.833
 2416WAT     H210385   6.734   2.111   4.904
 2416WAT    EPW10386   6.693   2.122   4.838
 2417WAT      O10387   6.376   2.801   3.914
 2417WAT     H110388   6.420   2.731   3.942
 2417WAT     H210389   6.397   2.863   3.971
 2417WAT    EPW10390   6.386   2.800   3.926
 2418WAT      O10391   6.086   2.097   5.057
 2418WAT     H110392   6.158   2.146   5.053
 2418WAT     H210393   6.059   2.094   4.974
 2418WAT    EPW10394   6.093   2.104   5.044
 2419WAT      O10395   6.409   1.614   4.730
 2419WAT     H110396   6.494   1.595   4.740
 2419WAT     H210397   6.372   1.536   4.716
 2419WAT    EPW10398   6.416   1.600   4.729
 2420WAT      O10399   5.891   1.748   4.396
 2420WAT     H110400   5.940   1.719   4.462
 2420WAT     H210401   5.904   1.689   4.333
 2420WAT    EPW10402   5.900   1.735   4.396
 2421WAT      O10403   7.395   2.050   5.081
 2421WAT     H110404   7.394   1.972   5.120
 2421WAT     H210405   7.311   2.073   5.080
 2421WAT    EPW10406   7.382   2.042   5.086
 2422WAT      O10407   6.344   1.891   3.944
 2422WAT     H110408   6.283   1.851   3.992
 2422WAT     H210409   6.305   1.903   3.867
 2422WAT    EPW10410   6.329   1.887   3.940
 2423WAT      O10411   6.026   2.202   5.484
 2423WAT     H110412   5.983   2.150   5.428
 2423WAT     H210413   5.990   2.281   5.470
 2423WAT    EPW10414   6.014   2.206   5.474
 2424WAT      O10415   6.489   1.737   4.215
 2424WAT     H110416   6.516   1.820   4.222
 2424WAT     H210417   6.403   1.745   4.206
 2424WAT    EPW10418   6.480   1.751   4.215
 2425WAT      O10419   7.286   1.450   5.678
 2425WAT     H110420   7.234   1.495   5.731
 2425WAT     H210421   7.250   1.370   5.678
 2425WAT    EPW10422   7.273   1.445   5.686
 2426WAT      O10423   5.837   1.334   4.869
 2426WAT     H110424   5.842   1.369   4.789
 2426WAT     H210425   5.913   1.358   4.905
 2426WAT    EPW10426   5.849   1.343   4.862
 2427WAT      O10427   7.136   1.806   5.686
 2427WAT     H110428   7.143   1.817   5.772
 2427WAT     H210429   7.072   1.862   5.664
 2427WAT    EPW10430   7.127   1.816   5.695
 2428WAT      O10431   7.362   1.838   5.522
 2428WAT     H110432   7.394   1.917   5.543
 2428WAT     H210433   7.325   1.811   5.597
 2428WAT    EPW10434   7.362   1.846   5.536
 2429WAT      O10435   7.294   2.481   4.075
 2429WAT     H110436   7.327   2.400   4.079
 2429WAT     H210437   7.218   2.474   4.118
 2429WAT    EPW10438   7.288   2.468   4.082
 2430WAT      O10439   7.342   1.664   4.641
 2430WAT     H110440   7.268   1.632   4.673
 2430WAT     H210441   7.342   1.747   4.669
 2430WAT    EPW10442   7.331   1.672   4.650
 2431WAT      O10443   7.031   2.268   4.016
 2431WAT     H110444   7.100   2.217   3.999
 2431WAT     H210445   6.990   2.273   3.939
 2431WAT    EPW10446   7.035   2.261   4.002
 2432WAT      O10447   6.499   2.383   5.146
 2432WAT     H110448   6.470   2.442   5.203
 2432WAT     H210449   6.505   2.427   5.071
 2432WAT    EPW10450   6.496   2.399   5.143
 2433WAT      O10451   6.297   2.278   5.486
 2433WAT     H110452   6.217   2.249   5.503
 2433WAT     H210453   6.288   2.365   5.487
 2433WAT    EPW10454   6.284   2.287   5.488
 2434WAT      O10455   7.233   1.297   5.387
 2434WAT     H110456   7.308   1.342   5.381
 2434WAT     H210457   7.177   1.344   5.341
 2434WAT    EPW10458   7.236   1.311   5.380
 2435WAT      O10459   6.751   2.026   5.095
 2435WAT     H110460   6.799   2.063   5.158
 2435WAT     H210461   6.669   2.039   5.121
 2435WAT    EPW10462   6.746   2.033   5.108
 2436WAT      O10463   6.422   1.586   5.369
 2436WAT     H110464   6.438   1.511   5.412
 2436WAT     H210465   6.418   1.561   5.286
 2436WAT    EPW10466   6.424   1.571   5.363
 2437WAT      O10467   6.677   2.765   4.618
 2437WAT     H110468   6.732   2.833   4.623
 2437WAT     H210469   6.642   2.773   4.539
 2437WAT    EPW10470   6.680   2.776   4.607
 2438WAT      O10471   7.362   1.095   5.154
 2438WAT     H110472   7.334   1.178   5.150
 2438WAT     H210473   7.433   1.100   5.204
 2438WAT    EPW10474   7.368   1.108   5.161
 2439WAT      O10475   6.597   1.167   5.357
 2439WAT     H110476   6.668   1.199   5.317
 2439WAT     H210477   6.621   1.086   5.380
 2439WAT    EPW10478   6.611   1.159   5.355
 2440WAT      O10479   6.496   2.588   4.957
 2440WAT     H110480   6.433   2.646   4.939
 2440WAT     H210481   6.521   2.559   4.878
 2440WAT    EPW10482   6.490   2.592   4.943
 2441WAT      O10483   6.927   2.251   5.656
 2441WAT     H110484   7.002   2.280   5.623
 2441WAT     H210485   6.872   2.256   5.588
 2441WAT    EPW10486   6.930   2.256   5.641
 2442WAT      O10487   7.318   2.506   5.506
 2442WAT     H110488   7.352   2.533   5.582
 2442WAT     H210489   7.347   2.564   5.448
 2442WAT    EPW10490   7.327   2.519   5.509
 2443WAT      O10491   7.504   1.721   4.040
 2443WAT     H110492   7.542   1.788   4.000
 2443WAT     H210493   7.420   1.743   4.043
 2443WAT    EPW10494   7.497   1.734   4.035
 2444WAT      O10495   6.655   2.065   3.948
 2444WAT     H110496   6.575   2.048   3.920
 2444WAT     H210497   6.652   2.150   3.968
 2444WAT    EPW10498   6.643   2.075   3.947
 2445WAT      O10499   6.248   1.672   4.963
 2445WAT     H110500   6.292   1.662   4.889
 2445WAT     H210501   6.303   1.641   5.024
 2445WAT    EPW10502   6.263   1.666   4.961
 2446WAT      O10503   7.050   1.582   5.523
 2446WAT     H110504   6.985   1.629   5.557
 2446WAT     H210505   7.106   1.573   5.589
 2446WAT    EPW10506   7.049   1.588   5.538
 2447WAT      O10507   7.019   1.736   5.152
 2447WAT     H110508   7.049   1.778   5.223
 2447WAT     H210509   7.022   1.652   5.176
 2447WAT    EPW10510   7.024   1.730   5.166
 2448WAT      O10511   6.761   2.753   5.545
 2448WAT     H110512   6.809   2.693   5.503
 2448WAT     H210513   6.726   2.708   5.611
 2448WAT    EPW10514   6.763   2.737   5.549
 2449WAT      O10515   7.273   1.681   4.378
 2449WAT     H110516   7.294   1.660   4.460
 2449WAT     H210517   7.349   1.707   4.343
 2449WAT    EPW10518   7.288   1.682   4.385
 2450WAT      O10519   6.603   1.170   4.968
 2450WAT     H110520   6.520   1.156   4.992
 2450WAT     H210521   6.599   1.174   4.881
 2450WAT    EPW10522   6.590   1.169   4.959
 2451WAT      O10523   7.376   1.289   4.525
 2451WAT     H110524   7.304   1.242   4.542
 2451WAT     H210525   7.359   1.323   4.446
 2451WAT    EPW10526   7.363   1.287   4.516
 2452WAT      O10527   7.420   2.083   4.363
 2452WAT     H110528   7.467   2.010   4.358
 2452WAT     H210529   7.338   2.055   4.355
 2452WAT    EPW10530   7.415   2.068   4.361
 2453WAT      O10531   6.767   2.274   5.447
 2453WAT     H110532   6.687   2.268   5.482
 2453WAT     H210533   6.774   2.359   5.427
 2453WAT    EPW10534   6.756   2.286   5.449
 2454WAT      O10535   5.859   1.210   5.572
 2454WAT     H110536   5.845   1.290   5.539
 2454WAT     H210537   5.781   1.186   5.601
 2454WAT    EPW10538   5.846   1.218   5.571
 2455WAT      O10539   6.350   2.895   4.979
 2455WAT     H110540   6.351   2.901   5.066
 2455WAT     H210541   6.307   2.820   4.964
 2455WAT    EPW10542   6.344   2.885   4.989
 2456WAT      O10543   6.166   1.485   4.294
 2456WAT     H110544   6.178   1.452   4.214
 2456WAT     H210545   6.085   1.460   4.314
 2456WAT    EPW10546   6.156   1.476   4.285
 2457WAT      O10547   7.041   2.200   4.599
 2457WAT     H110548   7.049   2.234   4.678
 2457WAT     H210549   7.058   2.115   4.611
 2457WAT    EPW10550   7.045   2.192   4.612
 2458WAT      O10551   6.794   2.127   4.555
 2458WAT     H110552   6.764   2.096   4.631
 2458WAT     H210553   6.863   2.175   4.579
 2458WAT    EPW10554   6.800   2.130   4.570
 2459WAT      O10555   6.816   2.539   5.358
 2459WAT     H110556   6.885   2.528   5.410
 2459WAT     H210557   6.829   2.618   5.323
 2459WAT    EPW10558   6.828   2.549   5.360
 2460WAT      O10559   7.085   1.867   5.396
 2460WAT     H110560   7.059   1.795   5.439
 2460WAT     H210561   7.167   1.878   5.423
 2460WAT    EPW10562   7.093   1.858   5.407
 2461WAT      O10563   6.026   2.845   5.523
 2461WAT     H110564   5.961   2.788   5.533
 2461WAT     H210565   5.989   2.922   5.538
 2461WAT    EPW10566   6.011   2.848   5.527
 2462WAT      O10567   6.878   1.986   5.715
 2462WAT     H110568   6.910   2.054   5.672
 2462WAT     H210569   6.808   2.018   5.755
 2462WAT    EPW10570   6.872   2.000   5.715
 2463WAT      O10571   7.187   2.823   4.808
 2463WAT     H110572   7.141   2.887   4.846
 2463WAT     H210573   7.257   2.815   4.859
 2463WAT    EPW10574   7.190   2.831   4.821
 2464WAT      O10575   6.857   2.332   5.101
 2464WAT     H110576   6.787   2.372   5.135
 2464WAT     H210577   6.924   2.375   5.135
 2464WAT    EPW10578   6.856   2.344   5.111
 2465WAT      O10579   7.394   2.591   5.759
 2465WAT     H110580   7.472   2.552   5.767
 2465WAT     H210581   7.347   2.558   5.825
 2465WAT    EPW10582   7.399   2.581   5.770
 2466WAT      O10583   6.163   1.686   5.336
 2466WAT     H110584   6.201   1.748   5.287
 2466WAT     H210585   6.231   1.638   5.364
 2466WAT    EPW10586   6.179   1.688   5.333
 2467WAT      O10587   5.941   1.531   5.263
 2467WAT     H110588   5.949   1.514   5.178
 2467WAT     H210589   6.016   1.571   5.283
 2467WAT    EPW10590   5.953   1.534   5.254
 2468WAT      O10591   7.497   1.795   4.307
 2468WAT     H110592   7.507   1.789   4.221
 2468WAT     H210593   7.571   1.761   4.339
 2468WAT    EPW10594   7.509   1.789   4.299
 2469WAT      O10595   6.196   1.272   5.504
 2469WAT     H110596   6.188   1.187   5.525
 2469WAT     H210597   6.165   1.276   5.423
 2469WAT    EPW10598   6.191   1.260   5.495
 2470WAT      O10599   6.889   2.491   4.418
 2470WAT     H110600   6.868   2.574   4.402
 2470WAT     H210601   6.811   2.453   4.430
 2470WAT    EPW10602   6.874   2.498   4.417
 2471WAT      O10603   7.407   1.809   5.243
 2471WAT     H110604   7.407   1.723   5.255
 2471WAT     H210605   7.414   1.842   5.324
 2471WAT    EPW10606   7.408   1.801   5.257
 2472WAT      O10607   5.881   2.053   5.286
 2472WAT     H110608   5.913   2.075   5.208
 2472WAT     H210609   5.871   1.967   5.280
 2472WAT    EPW10610   5.884   2.044   5.273
 2473WAT      O10611   6.026   1.647   3.947
 2473WAT     H110612   5.959   1.648   4.003
 2473WAT     H210613   6.036   1.562   3.929
 2473WAT    EPW10614   6.018   1.634   3.953
 2474WAT      O10615   6.995   1.289   5.621
 2474WAT     H110616   7.004   1.360   5.670
 2474WAT     H210617   6.931   1.245   5.661
 2474WAT    EPW10618   6.987   1.293   5.634
 2475WAT      O10619   6.894   1.308   4.706
 2475WAT     H110620   6.824   1.360   4.701
 2475WAT     H210621   6.898   1.270   4.628
 2475WAT    EPW10622   6.885   1.310   4.694
 2476WAT      O10623   6.425   2.517   4.059
 2476WAT     H110624   6.469   2.525   4.134
 2476WAT     H210625   6.345   2.496   4.085
 2476WAT    EPW10626   6.420   2.515   4.074
 2477WAT      O10627   7.254   1.360   4.986
 2477WAT     H110628   7.340   1.370   5.001
 2477WAT     H210629   7.217   1.415   5.043
 2477WAT    EPW10630   7.261   1.369   4.997
 2478WAT      O10631   6.357   1.982   5.424
 2478WAT     H110632   6.317   2.060   5.432
 2478WAT     H210633   6.316   1.945   5.357
 2478WAT    EPW10634   6.345   1.988   5.415
 2479WAT      O10635   7.285   1.888   4.836
 2479WAT     H110636   7.351   1.942   4.852
 2479WAT     H210637   7.250   1.919   4.762
 2479WAT    EPW10638   7.289   1.900   4.827
 2480WAT      O10639   7.316   2.694   4.416
 2480WAT     H110640   7.298   2.629   4.471
 2480WAT     H210641   7.387   2.667   4.374
 2480WAT    EPW10642   7.324   2.681   4.418
 2481WAT      O10643   6.158   2.424   4.119
 2481WAT     H110644   6.134   2.394   4.197
 2481WAT     H210645   6.155   2.354   4.067
 2481WAT    EPW10646   6.154   2.409   4.123
 2482WAT      O10647   6.440   2.249   3.993
 2482WAT     H110648   6.358   2.222   4.007
 2482WAT     H210649   6.437   2.334   4.012
 2482WAT    EPW10650   6.427   2.257   3.998
 2483WAT      O10651   6.400   1.280   5.169
 2483WAT     H110652   6.313   1.288   5.177
 2483WAT     H210653   6.422   1.229   5.236
 2483WAT    EPW10654   6.390   1.274   5.180
 2484WAT      O10655   6.810   1.355   5.007
 2484WAT     H110656   6.736   1.309   5.018
 2484WAT     H210657   6.867   1.315   5.059
 2484WAT    EPW10658   6.808   1.342   5.016
 2485WAT      O10659   7.083   2.440   5.185
 2485WAT     H110660   7.104   2.470   5.265
 2485WAT     H210661   7.077   2.512   5.137
 2485WAT    EPW10662   7.085   2.455   5.190
 2486WAT      O10663   7.037   2.861   5.610
 2486WAT     H110664   6.961   2.859   5.566
 2486WAT     H210665   7.054   2.946   5.618
 2486WAT    EPW10666   7.028   2.873   5.605
 2487WAT      O10667   6.560   1.788   5.527
 2487WAT     H110668   6.528   1.730   5.470
 2487WAT     H210669   6.525   1.863   5.502
 2487WAT    EPW10670   6.550   1.790   5.515
 2488WAT      O10671   6.640   1.113   3.990
 2488WAT     H110672   6.648   1.138   3.906
 2488WAT     H210673   6.566   1.151   4.015
 2488WAT    EPW10674   6.630   1.122   3.981
 2489WAT      O10675   7.565   2.304   5.131
 2489WAT     H110676   7.561   2.217   5.118
 2489WAT     H210677   7.495   2.334   5.088
 2489WAT    EPW10678   7.554   2.295   5.123
 2490WAT      O10679   6.404   2.823   5.552
 2490WAT     H110680   6.408   2.836   5.638
 2490WAT     H210681   6.469   2.767   5.536
 2490WAT    EPW10682   6.414   2.817   5.562
 2491WAT      O10683   7.375   2.630   5.011
 2491WAT     H110684   7.428   2.621   4.942
 2491WAT     H210685   7.336   2.552   5.016
 2491WAT    EPW10686   7.377   2.617   5.001
 2492WAT      O10687   6.122   1.288   5.234
 2492WAT     H110688   6.088   1.212   5.211
 2492WAT     H210689   6.052   1.341   5.240
 2492WAT    EPW10690   6.107   1.285   5.231
 2493WAT      O10691   7.026   1.174   4.932
 2493WAT     H110692   7.093   1.228   4.944
 2493WAT     H210693   6.976   1.216   4.874
 2493WAT    EPW10694   7.029   1.188   4.925
 2494WAT      O10695   6.163   2.662   5.688
 2494WAT     H110696   6.223   2.705   5.735
 2494WAT     H210697   6.127   2.724   5.639
 2494WAT    EPW10698   6.167   2.677   5.687
 2495WAT      O10699   6.962   1.755   4.681
 2495WAT     H110700   7.017   1.694   4.711
 2495WAT     H210701   6.920   1.781   4.752
 2495WAT    EPW10702   6.964   1.750   4.696
 2496WAT      O10703   5.987   1.620   4.630
 2496WAT     H110704   5.950   1.650   4.703
 2496WAT     H210705   6.041   1.557   4.658
 2496WAT    EPW10706   5.990   1.615   4.645
 2497WAT      O10707   5.956   2.461   5.381
 2497WAT     H110708   5.899   2.502   5.432
 2497WAT     H210709   6.029   2.507   5.390
 2497WAT    EPW10710   5.958   2.474   5.390
 2498WAT      O10711   7.159   1.938   4.337
 2498WAT     H110712   7.166   1.853   4.355
 2498WAT     H210713   7.077   1.946   4.309
 2498WAT    EPW10714   7.148   1.927   4.336
 2499WAT      O10715   6.135   2.787   4.258
 2499WAT     H110716   6.120   2.803   4.174
 2499WAT     H210717   6.221   2.795   4.266
 2499WAT    EPW10718   6.145   2.791   4.247
 2500WAT      O10719   6.551   2.027   4.231
 2500WAT     H110720   6.561   2.041   4.145
 2500WAT     H210721   6.633   2.021   4.261
 2500WAT    EPW10722   6.565   2.028   4.223
 2501WAT      O10723   7.467   2.833   3.979
 2501WAT     H110724   7.531   2.820   4.037
 2501WAT     H210725   7.433   2.754   3.967
 2501WAT    EPW10726   7.472   2.820   3.986
 2502WAT      O10727   7.487   2.075   5.652
 2502WAT     H110728   7.550   2.058   5.710
 2502WAT     H210729   7.528   2.115   5.587
 2502WAT    EPW10730   7.502   2.079   5.651
 2503WAT      O10731   7.075   2.460   4.211
 2503WAT     H110732   7.050   2.447   4.294
 2503WAT     H210733   7.043   2.390   4.169
 2503WAT    EPW10734   7.066   2.448   4.217
 2504WAT      O10735   7.549   1.532   5.726
 2504WAT     H110736   7.530   1.596   5.782
 2504WAT     H210737   7.477   1.483   5.725
 2504WAT    EPW10738   7.536   1.534   5.734
 2505WAT      O10739   7.539   1.626   5.023
 2505WAT     H110740   7.456   1.651   5.016
 2505WAT     H210741   7.534   1.542   5.046
 2505WAT    EPW10742   7.526   1.617   5.025
 2506WAT      O10743   6.465   1.324   5.543
 2506WAT     H110744   6.489   1.267   5.481
 2506WAT     H210745   6.381   1.306   5.557
 2506WAT    EPW10746   6.456   1.313   5.536
 2507WAT      O10747   7.228   2.086   5.788
 2507WAT     H110748   7.315   2.083   5.784
 2507WAT     H210749   7.206   2.128   5.715
 2507WAT    EPW10750   7.238   2.092   5.776
 2508WAT      O10751   6.203   2.669   4.906
 2508WAT     H110752   6.195   2.588   4.874
 2508WAT     H210753   6.159   2.717   4.849
 2508WAT    EPW10754   6.196   2.664   4.893
 2509WAT      O10755   6.763   2.281   4.154
 2509WAT     H110756   6.835   2.246   4.119
 2509WAT     H210757   6.760   2.361   4.119
 2509WAT    EPW10758   6.773   2.287   4.144
 2510WAT      O10759   5.960   2.893   5.264
 2510WAT     H110760   6.010   2.888   5.336
 2510WAT     H210761   5.979   2.820   5.220
 2510WAT    EPW10762   5.971   2.881   5.268
 2511WAT      O10763   6.904   1.145   2.578
 2511WAT     H110764   6.880   1.194   2.510
 2511WAT     H210765   6.991   1.137   2.568
 2511WAT    EPW10766   6.913   1.151   2.567
 2512WAT      O10767   6.885   1.836   3.045
 2512WAT     H110768   6.833   1.896   3.081
 2512WAT     H210769   6.925   1.800   3.114
 2512WAT    EPW10770   6.883   1.840   3.061
 2513WAT      O10771   5.872   2.250   2.591
 2513WAT     H110772   5.828   2.262   2.665
 2513WAT     H210773   5.844   2.173   2.562
 2513WAT    EPW10774   5.861   2.241   2.598
 2514WAT      O10775   7.500   2.580   2.342
 2514WAT     H110776   7.570   2.529   2.342
 2514WAT     H210777   7.441   2.536   2.295
 2514WAT    EPW10778   7.501   2.566   2.335
 2515WAT      O10779   5.846   1.630   2.241
 2515WAT     H110780   5.769   1.646   2.205
 2515WAT     H210781   5.850   1.542   2.244
 2515WAT    EPW10782   5.835   1.619   2.236
 2516WAT      O10783   6.160   2.156   2.109
 2516WAT     H110784   6.121   2.119   2.040
 2516WAT     H210785   6.152   2.096   2.172
 2516WAT    EPW10786   6.153   2.142   2.108
 2517WAT      O10787   7.152   1.943   2.713
 2517WAT     H110788   7.160   1.943   2.626
 2517WAT     H210789   7.094   1.880   2.728
 2517WAT    EPW10790   7.145   1.934   2.702
 2518WAT      O10791   6.123   2.320   2.499
 2518WAT     H110792   6.184   2.303   2.559
 2518WAT     H210793   6.048   2.306   2.541
 2518WAT    EPW10794   6.121   2.315   2.514
 2519WAT      O10795   6.551   1.253   2.494
 2519WAT     H110796   6.544   1.321   2.439
 2519WAT     H210797   6.625   1.215   2.469
 2519WAT    EPW10798   6.561   1.258   2.482
 2520WAT      O10799   6.012   2.629   2.106
 2520WAT     H110800   6.059   2.637   2.033
 2520WAT     H210801   6.058   2.571   2.153
 2520WAT    EPW10802   6.026   2.622   2.102
 2521WAT      O10803   5.866   2.524   3.216
 2521WAT     H110804   5.879   2.496   3.298
 2521WAT     H210805   5.805   2.470   3.185
 2521WAT    EPW10806   5.859   2.512   3.224
 2522WAT      O10807   6.523   2.276   3.723
 2522WAT     H110808   6.500   2.276   3.807
 2522WAT     H210809   6.449   2.262   3.681
 2522WAT    EPW10810   6.509   2.274   3.729
 2523WAT      O10811   6.011   1.976   2.636
 2523WAT     H110812   5.964   1.937   2.574
 2523WAT     H210813   6.081   1.925   2.646
 2523WAT    EPW10814   6.014   1.963   2.629
 2524WAT      O10815   6.461   1.537   3.171
 2524WAT     H110816   6.529   1.539   3.116
 2524WAT     H210817   6.457   1.453   3.196
 2524WAT    EPW10818   6.471   1.525   3.167
 2525WAT      O10819   6.522   2.596   3.449
 2525WAT     H110820   6.535   2.672   3.409
 2525WAT     H210821   6.601   2.559   3.452
 2525WAT    EPW10822   6.535   2.601   3.444
 2526WAT      O10823   6.211   1.786   2.639
 2526WAT     H110824   6.292   1.767   2.663
 2526WAT     H210825   6.163   1.725   2.678
 2526WAT    EPW10826   6.216   1.774   2.648
 2527WAT      O10827   6.631   2.384   2.900
 2527WAT     H110828   6.666   2.304   2.903
 2527WAT     H210829   6.698   2.434   2.874
 2527WAT    EPW10830   6.646   2.380   2.896
 2528WAT      O10831   6.637   2.329   2.521
 2528WAT     H110832   6.670   2.265   2.569
 2528WAT     H210833   6.661   2.308   2.440
 2528WAT    EPW10834   6.645   2.316   2.516
 2529WAT      O10835   6.834   1.742   3.655
 2529WAT     H110836   6.749   1.732   3.637
 2529WAT     H210837   6.837   1.817   3.700
 2529WAT    EPW10838   6.822   1.752   3.659
 2530WAT      O10839   6.270   1.295   2.565
 2530WAT     H110840   6.241   1.345   2.500
 2530WAT     H210841   6.357   1.303   2.560
 2530WAT    EPW10842   6.279   1.304   2.555
 2531WAT      O10843   7.289   1.038   3.566
 2531WAT     H110844   7.274   1.115   3.528
 2531WAT     H210845   7.212   1.016   3.601
 2531WAT    EPW10846   7.276   1.046   3.566
 2532WAT      O10847   6.568   1.210   2.788
 2532WAT     H110848   6.576   1.296   2.801
 2532WAT     H210849   6.565   1.202   2.701
 2532WAT    EPW10850   6.569   1.221   2.777
 2533WAT      O10851   7.036   1.502   2.018
 2533WAT     H110852   6.991   1.570   2.048
 2533WAT     H210853   7.047   1.452   2.088
 2533WAT    EPW10854   7.031   1.505   2.032
 2534WAT      O10855   5.856   1.752   2.938
 2534WAT     H110856   5.831   1.835   2.930
 2534WAT     H210857   5.790   1.714   2.979
 2534WAT    EPW10858   5.843   1.759   2.943
 2535WAT      O10859   5.847   2.723   2.728
 2535WAT     H110860   5.788   2.779   2.696
 2535WAT     H210861   5.890   2.696   2.657
 2535WAT    EPW10862   5.845   2.727   2.713
 2536WAT      O10863   6.431   2.507   2.476
 2536WAT     H110864   6.373   2.480   2.535
 2536WAT     H210865   6.494   2.447   2.478
 2536WAT    EPW10866   6.432   2.494   2.485
 2537WAT      O10867   7.046   2.736   2.228
 2537WAT     H110868   7.118   2.783   2.238
 2537WAT     H210869   7.068   2.657   2.256
 2537WAT    EPW10870   7.060   2.732   2.234
 2538WAT      O10871   6.862   2.775   2.427
 2538WAT     H110872   6.884   2.828   2.493
 2538WAT     H210873   6.939   2.758   2.389
 2538WAT    EPW10874   6.877   2.781   2.431
 2539WAT      O10875   6.159   1.234   2.987
 2539WAT     H110876   6.107   1.171   2.956
 2539WAT     H210877   6.218   1.190   3.034
 2539WAT    EPW10878   6.160   1.218   2.989
 2540WAT      O10879   6.490   1.447   3.917
 2540WAT     H110880   6.501   1.402   3.843
 2540WAT     H210881   6.519   1.527   3.896
 2540WAT    EPW10882   6.496   1.452   3.903
 2541WAT      O10883   6.002   2.590   2.521
 2541WAT     H110884   6.067   2.533   2.522
 2541WAT     H210885   6.041   2.665   2.499
 2541WAT    EPW10886   6.017   2.593   2.518
 2542WAT      O10887   7.575   1.499   2.647
 2542WAT     H110888   7.540   1.567   2.690
 2542WAT     H210889   7.511   1.440   2.649
 2542WAT    EPW10890   7.561   1.501   2.654
 2543WAT      O10891   7.106   2.776   3.257
 2543WAT     H110892   7.181   2.822   3.256
 2543WAT     H210893   7.094   2.755   3.174
 2543WAT    EPW10894   7.115   2.780   3.245
 2544WAT      O10895   6.063   1.407   3.815
 2544WAT     H110896   5.985   1.368   3.808
 2544WAT     H210897   6.112   1.366   3.756
 2544WAT    EPW10898   6.059   1.395   3.805
 2545WAT      O10899   6.084   2.439   2.871
 2545WAT     H110900   6.126   2.403   2.803
 2545WAT     H210901   6.116   2.397   2.940
 2545WAT    EPW10902   6.095   2.427   2.871
 2546WAT      O10903   6.407   2.724   2.800
 2546WAT     H110904   6.491   2.734   2.781
 2546WAT     H210905   6.377   2.806   2.807
 2546WAT    EPW10906   6.415   2.738   2.799
 2547WAT      O10907   6.728   1.171   3.732
 2547WAT     H110908   6.746   1.090   3.704
 2547WAT     H210909   6.714   1.215   3.658
 2547WAT    EPW10910   6.728   1.166   3.717
 2548WAT      O10911   6.787   1.664   2.609
 2548WAT     H110912   6.816   1.640   2.530
 2548WAT     H210913   6.861   1.672   2.656
 2548WAT    EPW10914   6.802   1.661   2.604
 2549WAT      O10915   6.860   1.698   2.121
 2549WAT     H110916   6.888   1.776   2.146
 2549WAT     H210917   6.782   1.714   2.085
 2549WAT    EPW10918   6.852   1.712   2.120
 2550WAT      O10919   7.264   2.895   2.268
 2550WAT     H110920   7.330   2.880   2.213
 2550WAT     H210921   7.300   2.887   2.347
 2550WAT    EPW10922   7.279   2.892   2.272
 2551WAT      O10923   6.306   2.846   3.374
 2551WAT     H110924   6.336   2.839   3.456
 2551WAT     H210925   6.244   2.785   3.370
 2551WAT    EPW10926   6.302   2.836   3.386
 2552WAT      O10927   5.798   1.462   3.574
 2552WAT     H110928   5.797   1.520   3.638
 2552WAT     H210929   5.857   1.493   3.518
 2552WAT    EPW10930   5.807   1.475   3.575
 2553WAT      O10931   7.032   2.495   3.628
 2553WAT     H110932   7.028   2.533   3.706
 2553WAT     H210933   7.117   2.491   3.611
 2553WAT    EPW10934   7.044   2.500   3.637
 2554WAT      O10935   6.745   2.515   2.103
 2554WAT     H110936   6.727   2.569   2.169
 2554WAT     H210937   6.822   2.544   2.073
 2554WAT    EPW10938   6.754   2.527   2.108
 2555WAT      O10939   7.096   1.304   2.208
 2555WAT     H110940   7.150   1.236   2.216
 2555WAT     H210941   7.102   1.344   2.286
 2555WAT    EPW10942   7.105   1.300   2.221
 2556WAT      O10943   5.892   1.421   2.465
 2556WAT     H110944   5.880   1.335   2.468
 2556WAT     H210945   5.844   1.450   2.532
 2556WAT    EPW10946   5.883   1.413   2.475
 2557WAT      O10947   6.106   2.662   3.287
 2557WAT     H110948   6.036   2.611   3.299
 2557WAT     H210949   6.132   2.642   3.206
 2557WAT    EPW10950   6.099   2.652   3.277
 2558WAT      O10951   6.822   1.542   2.340
 2558WAT     H110952   6.771   1.476   2.314
 2558WAT     H210953   6.827   1.592   2.269
 2558WAT    EPW10954   6.815   1.540   2.325
 2559WAT      O10955   6.877   2.811   3.378
 2559WAT     H110956   6.954   2.803   3.337
 2559WAT     H210957   6.819   2.799   3.314
 2559WAT    EPW10958   6.880   2.808   3.362
 2560WAT      O10959   6.822   1.236   2.329
 2560WAT     H110960   6.776   1.196   2.266
 2560WAT     H210961   6.899   1.251   2.291
 2560WAT    EPW10962   6.827   1.232   2.314
 2561WAT      O10963   7.505   2.872   2.668
 2561WAT     H110964   7.459   2.943   2.688
 2561WAT     H210965   7.443   2.815   2.644
 2561WAT    EPW10966   7.489   2.874   2.667
 2562WAT      O10967   6.682   1.473   2.781
 2562WAT     H110968   6.689   1.529   2.715
 2562WAT     H210969   6.694   1.522   2.852
 2562WAT    EPW10970   6.685   1.488   2.782
 2563WAT      O10971   7.204   2.456   2.622
 2563WAT     H110972   7.274   2.408   2.641
 2563WAT     H210973   7.138   2.399   2.627
 2563WAT    EPW10974   7.205   2.441   2.626
 2564WAT      O10975   6.242   2.547   3.543
 2564WAT     H110976   6.326   2.553   3.521
 2564WAT     H210977   6.238   2.587   3.621
 2564WAT    EPW10978   6.254   2.554   3.552
 2565WAT      O10979   6.143   1.055   2.616
 2565WAT     H110980   6.196   1.124   2.615
 2565WAT     H210981   6.143   1.028   2.533
 2565WAT    EPW10982   6.150   1.061   2.603
 2566WAT      O10983   6.438   2.098   3.018
 2566WAT     H110984   6.455   2.077   3.101
 2566WAT     H210985   6.373   2.045   2.997
 2566WAT    EPW10986   6.431   2.087   3.027
 2567WAT      O10987   7.061   1.490   3.370
 2567WAT     H110988   7.051   1.522   3.450
 2567WAT     H210989   7.002   1.426   3.366
 2567WAT    EPW10990   7.051   1.485   3.381
 2568WAT      O10991   6.513   2.092   3.277
 2568WAT     H110992   6.518   2.177   3.297
 2568WAT     H210993   6.485   2.055   3.351
 2568WAT    EPW10994   6.510   2.099   3.291
 2569WAT      O10995   7.131   2.162   3.190
 2569WAT     H110996   7.079   2.120   3.247
 2569WAT     H210997   7.118   2.246   3.208
 2569WAT    EPW10998   7.121   2.168   3.201
 2570WAT      O10999   7.187   1.084   2.653
 2570WAT     H111000   7.191   1.052   2.734
 2570WAT     H211001   7.219   1.020   2.604
 2570WAT    EPW11002   7.192   1.070   2.658
 2571WAT      O11003   5.795   2.529   3.898
 2571WAT     H111004   5.871   2.564   3.924
 2571WAT     H211005   5.813   2.444   3.893
 2571WAT    EPW11006   5.809   2.522   3.901
 2572WAT      O11007   7.433   1.508   3.484
 2572WAT     H111008   7.510   1.485   3.518
 2572WAT     H211009   7.385   1.529   3.554
 2572WAT    EPW11010   7.437   1.508   3.499
 2573WAT      O11011   6.187   1.436   2.781
 2573WAT     H111012   6.215   1.393   2.710
 2573WAT     H211013   6.170   1.372   2.838
 2573WAT    EPW11014   6.189   1.420   2.779
 2574WAT      O11015   7.456   2.205   2.203
 2574WAT     H111016   7.468   2.177   2.284
 2574WAT     H211017   7.537   2.208   2.170
 2574WAT    EPW11018   7.470   2.202   2.210
 2575WAT      O11019   6.170   2.179   2.736
 2575WAT     H111020   6.255   2.171   2.719
 2575WAT     H211021   6.134   2.110   2.695
 2575WAT    EPW11022   6.177   2.167   2.727
 2576WAT      O11023   6.046   2.851   2.860
 2576WAT     H111024   5.979   2.801   2.835
 2576WAT     H211025   6.087   2.870   2.785
 2576WAT    EPW11026   6.042   2.847   2.845
 2577WAT      O11027   6.001   1.546   3.089
 2577WAT     H111028   6.086   1.568   3.085
 2577WAT     H211029   5.963   1.603   3.036
 2577WAT    EPW11030   6.008   1.558   3.081
 2578WAT      O11031   7.246   1.859   2.161
 2578WAT     H111032   7.224   1.932   2.119
 2578WAT     H211033   7.201   1.864   2.236
 2578WAT    EPW11034   7.236   1.871   2.166
 2579WAT      O11035   6.407   2.179   2.560
 2579WAT     H111036   6.478   2.229   2.569
 2579WAT     H211037   6.429   2.123   2.497
 2579WAT    EPW11038   6.420   2.178   2.552
 2580WAT      O11039   5.822   2.344   2.892
 2580WAT     H111040   5.755   2.392   2.919
 2580WAT     H211041   5.890   2.398   2.894
 2580WAT    EPW11042   5.822   2.359   2.896
 2581WAT      O11043   6.587   1.715   3.901
 2581WAT     H111044   6.538   1.772   3.945
 2581WAT     H211045   6.584   1.744   3.819
 2581WAT    EPW11046   6.579   1.728   3.896
 2582WAT      O11047   5.829   2.012   2.402
 2582WAT     H111048   5.810   1.928   2.417
 2582WAT     H211049   5.895   2.008   2.345
 2582WAT    EPW11050   5.836   1.999   2.396
 2583WAT      O11051   7.465   1.301   2.335
 2583WAT     H111052   7.539   1.260   2.355
 2583WAT     H211053   7.491   1.373   2.292
 2583WAT    EPW11054   7.479   1.306   2.331
 2584WAT      O11055   6.859   2.550   2.792
 2584WAT     H111056   6.807   2.613   2.763
 2584WAT     H211057   6.890   2.513   2.719
 2584WAT    EPW11058   6.856   2.554   2.777
 2585WAT      O11059   5.846   2.428   2.359
 2585WAT     H111060   5.901   2.485   2.396
 2585WAT     H211061   5.823   2.377   2.426
 2585WAT    EPW11062   5.851   2.429   2.375
 2586WAT      O11063   6.266   2.328   3.068
 2586WAT     H111064   6.313   2.357   3.136
 2586WAT     H211065   6.324   2.281   3.023
 2586WAT    EPW11066   6.282   2.326   3.072
 2587WAT      O11067   7.110   1.530   2.842
 2587WAT     H111068   7.144   1.545   2.921
 2587WAT     H211069   7.065   1.456   2.853
 2587WAT    EPW11070   7.108   1.521   2.855
 2588WAT      O11071   5.829   2.273   2.122
 2588WAT     H111072   5.905   2.230   2.128
 2588WAT     H211073   5.830   2.327   2.191
 2588WAT    EPW11074   5.840   2.275   2.133
 2589WAT      O11075   5.923   2.095   2.923
 2589WAT     H111076   5.966   2.083   2.848
 2589WAT     H211077   5.902   2.180   2.920
 2589WAT    EPW11078   5.926   2.106   2.911
 2590WAT      O11079   6.558   1.452   2.288
 2590WAT     H111080   6.557   1.440   2.201
 2590WAT     H211081   6.539   1.537   2.297
 2590WAT    EPW11082   6.555   1.463   2.276
 2591WAT      O11083   7.463   2.695   3.437
 2591WAT     H111084   7.396   2.746   3.459
 2591WAT     H211085   7.469   2.705   3.351
 2591WAT    EPW11086   7.454   2.704   3.428
 2592WAT      O11087   6.331   2.447   2.751
 2592WAT     H111088   6.344   2.531   2.770
 2592WAT     H211089   6.398   2.407   2.790
 2592WAT    EPW11090   6.343   2.454   2.759
 2593WAT      O11091   6.144   1.795   3.737
 2593WAT     H111092   6.091   1.745   3.784
 2593WAT     H211093   6.146   1.756   3.659
 2593WAT    EPW11094   6.137   1.782   3.732
 2594WAT      O11095   6.193   1.735   2.251
 2594WAT     H111096   6.180   1.690   2.325
 2594WAT     H211097   6.135   1.701   2.196
 2594WAT    EPW11098   6.182   1.723   2.254
 2595WAT      O11099   6.210   1.918   2.911
 2595WAT     H111100   6.131   1.912   2.873
 2595WAT     H211101   6.217   1.843   2.955
 2595WAT    EPW11102   6.199   1.906   2.912
 2596WAT      O11103   6.253   1.892   3.258
 2596WAT     H111104   6.255   1.824   3.203
 2596WAT     H211105   6.188   1.941   3.227
 2596WAT    EPW11106   6.243   1.889   3.245
 2597WAT      O11107   7.242   1.663   3.097
 2597WAT     H111108   7.176   1.696   3.144
 2597WAT     H211109   7.261   1.726   3.040
 2597WAT    EPW11110   7.235   1.677   3.096
 2598WAT      O11111   6.663   2.769   3.197
 2598WAT     H111112   6.635   2.705   3.145
 2598WAT     H211113   6.642   2.842   3.153
 2598WAT    EPW11114   6.655   2.771   3.183
 2599WAT      O11115   6.907   1.254   3.440
 2599WAT     H111116   6.921   1.171   3.416
 2599WAT     H211117   6.944   1.259   3.519
 2599WAT    EPW11118   6.914   1.242   3.448
 2600WAT      O11119   7.061   1.460   2.448
 2600WAT     H111120   7.110   1.532   2.441
 2600WAT     H211121   6.982   1.486   2.422
 2600WAT    EPW11122   7.057   1.474   2.443
 2601WAT      O11123   6.032   2.027   3.814
 2601WAT     H111124   6.029   2.077   3.742
 2601WAT     H211125   6.066   1.952   3.784
 2601WAT    EPW11126   6.037   2.023   3.799
 2602WAT      O11127   7.193   2.248   3.639
 2602WAT     H111128   7.241   2.320   3.649
 2602WAT     H211129   7.232   2.205   3.574
 2602WAT    EPW11130   7.206   2.252   3.631
 2603WAT      O11131   6.622   2.532   3.757
 2603WAT     H111132   6.658   2.514   3.835
 2603WAT     H211133   6.579   2.459   3.737
 2603WAT    EPW11134   6.621   2.519   3.766
 2604WAT      O11135   6.720   1.607   3.021
 2604WAT     H111136   6.768   1.677   3.042
 2604WAT     H211137   6.757   1.542   3.066
 2604WAT    EPW11138   6.732   1.608   3.031
 2605WAT      O11139   6.938   1.924   2.248
 2605WAT     H111140   6.938   1.996   2.199
 2605WAT     H211141   6.875   1.937   2.306
 2605WAT    EPW11142   6.929   1.937   2.250
 2606WAT      O11143   7.436   2.311   2.646
 2606WAT     H111144   7.471   2.276   2.718
 2606WAT     H211145   7.435   2.245   2.589
 2606WAT    EPW11146   7.441   2.296   2.649
 2607WAT      O11147   7.040   2.617   3.031
 2607WAT     H111148   6.980   2.588   2.975
 2607WAT     H211149   7.095   2.663   2.980
 2607WAT    EPW11150   7.039   2.620   3.015
 2608WAT      O11151   7.041   2.303   2.971
 2608WAT     H111152   6.962   2.325   2.998
 2608WAT     H211153   7.067   2.243   3.029
 2608WAT    EPW11154   7.033   2.297   2.984
 2609WAT      O11155   6.431   2.784   2.416
 2609WAT     H111156   6.416   2.706   2.453
 2609WAT     H211157   6.500   2.769   2.364
 2609WAT    EPW11158   6.439   2.770   2.414
 2610WAT      O11159   6.398   1.158   2.214
 2610WAT     H111160   6.407   1.147   2.301
 2610WAT     H211161   6.327   1.209   2.208
 2610WAT    EPW11162   6.389   1.164   2.226
 2611WAT      O11163   6.660   2.735   2.256
 2611WAT     H111164   6.722   2.752   2.315
 2611WAT     H211165   6.663   2.804   2.203
 2611WAT    EPW11166   6.670   2.748   2.257
 2612WAT      O11167   7.367   2.102   3.455
 2612WAT     H111168   7.373   2.115   3.369
 2612WAT     H211169   7.443   2.134   3.486
 2612WAT    EPW11170   7.379   2.109   3.447
 2613WAT      O11171   6.987   2.637   3.883
 2613WAT     H111172   7.003   2.666   3.964
 2613WAT     H211173   7.013   2.703   3.833
 2613WAT    EPW11174   6.993   2.651   3.888
 2614WAT      O11175   7.471   1.132   3.754
 2614WAT     H111176   7.407   1.092   3.710
 2614WAT     H211177   7.473   1.089   3.830
 2614WAT    EPW11178   7.462   1.120   3.759
 2615WAT      O11179   6.110   1.989   2.339
 2615WAT     H111180   6.142   1.911   2.317
 2615WAT     H211181   6.175   2.026   2.384
 2615WAT    EPW11182   6.124   1.983   2.342
 2616WAT      O11183   6.941   2.083   3.415
 2616WAT     H111184   6.925   2.144   3.476
 2616WAT     H211185   6.994   2.027   3.456
 2616WAT    EPW11186   6.946   2.084   3.430
 2617WAT      O11187   5.810   1.155   2.436
 2617WAT     H111188   5.823   1.084   2.386
 2617WAT     H211189   5.773   1.123   2.508
 2617WAT    EPW11190   5.806   1.140   2.439
 2618WAT      O11191   6.779   1.923   2.481
 2618WAT     H111192   6.785   1.988   2.539
 2618WAT     H211193   6.760   1.853   2.530
 2618WAT    EPW11194   6.777   1.922   2.497
 2619WAT      O11195   7.302   2.356   3.068
 2619WAT     H111196   7.254   2.386   3.002
 2619WAT     H211197   7.266   2.278   3.086
 2619WAT    EPW11198   7.289   2.349   3.061
 2620WAT      O11199   6.229   1.375   2.132
 2620WAT     H111200   6.177   1.380   2.062
 2620WAT     H211201   6.307   1.399   2.103
 2620WAT    EPW11202   6.233   1.379   2.118
 2621WAT      O11203   6.701   2.128   2.924
 2621WAT     H111204   6.617   2.108   2.932
 2621WAT     H211205   6.734   2.111   3.004
 2621WAT    EPW11206   6.693   2.122   2.937
 2622WAT      O11207   6.376   2.801   2.013
 2622WAT     H111208   6.420   2.731   2.042
 2622WAT     H211209   6.397   2.863   2.070
 2622WAT    EPW11210   6.386   2.800   2.026
 2623WAT      O11211   6.409   1.614   2.829
 2623WAT     H111212   6.494   1.595   2.839
 2623WAT     H211213   6.372   1.536   2.816
 2623WAT    EPW11214   6.416   1.600   2.829
 2624WAT      O11215   5.891   1.748   2.495
 2624WAT     H111216   5.940   1.719   2.561
 2624WAT     H211217   5.904   1.689   2.432
 2624WAT    EPW11218   5.900   1.735   2.495
 2625WAT      O11219   7.395   2.050   3.180
 2625WAT     H111220   7.394   1.972   3.220
 2625WAT     H211221   7.311   2.073   3.179
 2625WAT    EPW11222   7.382   2.042   3.186
 2626WAT      O11223   6.344   1.891   2.044
 2626WAT     H111224   6.283   1.851   2.091
 2626WAT     H211225   6.305   1.903   1.966
 2626WAT    EPW11226   6.329   1.887   2.039
 2627WAT      O11227   6.026   2.202   3.584
 2627WAT     H111228   5.983   2.150   3.528
 2627WAT     H211229   5.990   2.281   3.569
 2627WAT    EPW11230   6.014   2.206   3.573
 2628WAT      O11231   6.489   1.737   2.315
 2628WAT     H111232   6.516   1.820   2.321
 2628WAT     H211233   6.403   1.745   2.305
 2628WAT    EPW11234   6.480   1.751   2.314
 2629WAT      O11235   7.286   1.450   3.778
 2629WAT     H111236   7.234   1.495   3.830
 2629WAT     H211237   7.250   1.370   3.777
 2629WAT    EPW11238   7.273   1.445   3.785
 2630WAT      O11239   5.837   1.334   2.968
 2630WAT     H111240   5.842   1.369   2.888
 2630WAT     H211241   5.913   1.358   3.005
 2630WAT    EPW11242   5.849   1.343   2.962
 2631WAT      O11243   7.136   1.806   3.785
 2631WAT     H111244   7.143   1.817   3.872
 2631WAT     H211245   7.072   1.862   3.763
 2631WAT    EPW11246   7.127   1.816   3.795
 2632WAT      O11247   7.362   1.838   3.622
 2632WAT     H111248   7.394   1.917   3.642
 2632WAT     H211249   7.325   1.811   3.696
 2632WAT    EPW11250   7.362   1.846   3.636
 2633WAT      O11251   7.294   2.481   2.175
 2633WAT     H111252   7.327   2.400   2.178
 2633WAT     H211253   7.218   2.474   2.218
 2633WAT    EPW11254   7.288   2.468   2.182
 2634WAT      O11255   7.342   1.664   2.741
 2634WAT     H111256   7.268   1.632   2.773
 2634WAT     H211257   7.342   1.747   2.769
 2634WAT    EPW11258   7.331   1.672   2.750
 2635WAT      O11259   7.031   2.268   2.115
 2635WAT     H111260   7.100   2.217   2.098
 2635WAT     H211261   6.990   2.273   2.039
 2635WAT    EPW11262   7.035   2.261   2.101
 2636WAT      O11263   6.499   2.383   3.246
 2636WAT     H111264   6.470   2.442   3.302
 2636WAT     H211265   6.505   2.427   3.171
 2636WAT    EPW11266   6.496   2.399   3.243
 2637WAT      O11267   6.297   2.278   3.585
 2637WAT     H111268   6.217   2.249   3.602
 2637WAT     H211269   6.288   2.365   3.586
 2637WAT    EPW11270   6.284   2.287   3.588
 2638WAT      O11271   7.233   1.297   3.487
 2638WAT     H111272   7.308   1.342   3.481
 2638WAT     H211273   7.177   1.344   3.440
 2638WAT    EPW11274   7.236   1.311   3.479
 2639WAT      O11275   6.751   2.026   3.195
 2639WAT     H111276   6.799   2.063   3.257
 2639WAT     H211277   6.669   2.039   3.221
 2639WAT    EPW11278   6.746   2.033   3.208
 2640WAT      O11279   6.422   1.586   3.469
 2640WAT     H111280   6.438   1.511   3.511
 2640WAT     H211281   6.418   1.561   3.385
 2640WAT    EPW11282   6.424   1.571   3.463
 2641WAT      O11283   6.677   2.765   2.717
 2641WAT     H111284   6.732   2.833   2.723
 2641WAT     H211285   6.642   2.773   2.638
 2641WAT    EPW11286   6.680   2.776   2.706
 2642WAT      O11287   7.362   1.095   3.254
 2642WAT     H111288   7.334   1.178   3.249
 2642WAT     H211289   7.433   1.100   3.303
 2642WAT    EPW11290   7.368   1.108   3.261
 2643WAT      O11291   6.597   1.167   3.457
 2643WAT     H111292   6.668   1.199   3.417
 2643WAT     H211293   6.621   1.086   3.479
 2643WAT    EPW11294   6.611   1.159   3.454
 2644WAT      O11295   6.496   2.588   3.056
 2644WAT     H111296   6.433   2.646   3.038
 2644WAT     H211297   6.521   2.559   2.978
 2644WAT    EPW11298   6.490   2.592   3.042
 2645WAT      O11299   6.927   2.251   3.755
 2645WAT     H111300   7.002   2.280   3.723
 2645WAT     H211301   6.872   2.256   3.687
 2645WAT    EPW11302   6.930   2.256   3.740
 2646WAT      O11303   7.318   2.506   3.606
 2646WAT     H111304   7.352   2.533   3.681
 2646WAT     H211305   7.347   2.564   3.548
 2646WAT    EPW11306   7.327   2.519   3.608
 2647WAT      O11307   7.504   1.721   2.140
 2647WAT     H111308   7.542   1.788   2.100
 2647WAT     H211309   7.420   1.743   2.143
 2647WAT    EPW11310   7.497   1.734   2.134
 2648WAT      O11311   6.655   2.065   2.048
 2648WAT     H111312   6.575   2.048   2.019
 2648WAT     H211313   6.652   2.150   2.067
 2648WAT    EPW11314   6.643   2.075   2.047
 2649WAT      O11315   6.248   1.672   3.063
 2649WAT     H111316   6.292   1.662   2.988
 2649WAT     H211317   6.303   1.641   3.123
 2649WAT    EPW11318   6.263   1.666   3.061
 2650WAT      O11319   7.050   1.582   3.622
 2650WAT     H111320   6.985   1.629   3.657
 2650WAT     H211321   7.106   1.573   3.688
 2650WAT    EPW11322   7.049   1.588   3.637
 2651WAT      O11323   7.019   1.736   3.252
 2651WAT     H111324   7.049   1.778   3.322
 2651WAT     H211325   7.022   1.652   3.275
 2651WAT    EPW11326   7.024   1.730   3.266
 2652WAT      O11327   6.761   2.753   3.644
 2652WAT     H111328   6.809   2.693   3.603
 2652WAT     H211329   6.726   2.708   3.711
 2652WAT    EPW11330   6.763   2.737   3.648
 2653WAT      O11331   7.273   1.681   2.477
 2653WAT     H111332   7.294   1.660   2.559
 2653WAT     H211333   7.349   1.707   2.443
 2653WAT    EPW11334   7.288   1.682   2.484
 2654WAT      O11335   6.603   1.170   3.068
 2654WAT     H111336   6.520   1.156   3.091
 2654WAT     H211337   6.599   1.174   2.980
 2654WAT    EPW11338   6.590   1.169   3.058
 2655WAT      O11339   7.376   1.289   2.624
 2655WAT     H111340   7.304   1.242   2.642
 2655WAT     H211341   7.359   1.323   2.546
 2655WAT    EPW11342   7.363   1.287   2.615
 2656WAT      O11343   7.420   2.083   2.462
 2656WAT     H111344   7.467   2.010   2.458
 2656WAT     H211345   7.338   2.055   2.455
 2656WAT    EPW11346   7.415   2.068   2.461
 2657WAT      O11347   6.767   2.274   3.546
 2657WAT     H111348   6.687   2.268   3.581
 2657WAT     H211349   6.774   2.359   3.527
 2657WAT    EPW11350   6.756   2.286   3.549
 2658WAT      O11351   5.859   1.210   3.671
 2658WAT     H111352   5.845   1.290   3.638
 2658WAT     H211353   5.781   1.186   3.700
 2658WAT    EPW11354   5.846   1.218   3.670
 2659WAT      O11355   6.350   2.895   3.078
 2659WAT     H111356   6.351   2.901   3.165
 2659WAT     H211357   6.307   2.820   3.063
 2659WAT    EPW11358   6.344   2.885   3.089
 2660WAT      O11359   6.166   1.485   2.394
 2660WAT     H111360   6.178   1.452   2.314
 2660WAT     H211361   6.085   1.460   2.413
 2660WAT    EPW11362   6.156   1.476   2.385
 2661WAT      O11363   7.041   2.200   2.698
 2661WAT     H111364   7.049   2.234   2.778
 2661WAT     H211365   7.058   2.115   2.710
 2661WAT    EPW11366   7.045   2.192   2.712
 2662WAT      O11367   6.794   2.127   2.654
 2662WAT     H111368   6.764   2.096   2.730
 2662WAT     H211369   6.863   2.175   2.678
 2662WAT    EPW11370   6.800   2.130   2.669
 2663WAT      O11371   6.816   2.539   3.457
 2663WAT     H111372   6.885   2.528   3.510
 2663WAT     H211373   6.829   2.618   3.423
 2663WAT    EPW11374   6.828   2.549   3.460
 2664WAT      O11375   7.085   1.867   3.496
 2664WAT     H111376   7.059   1.795   3.538
 2664WAT     H211377   7.167   1.878   3.523
 2664WAT    EPW11378   7.093   1.858   3.506
 2665WAT      O11379   6.026   2.845   3.622
 2665WAT     H111380   5.961   2.788   3.632
 2665WAT     H211381   5.989   2.922   3.637
 2665WAT    EPW11382   6.011   2.848   3.626
 2666WAT      O11383   6.878   1.986   3.815
 2666WAT     H111384   6.910   2.054   3.771
 2666WAT     H211385   6.808   2.018   3.855
 2666WAT    EPW11386   6.872   2.000   3.814
 2667WAT      O11387   7.187   2.823   2.907
 2667WAT     H111388   7.141   2.887   2.945
 2667WAT     H211389   7.257   2.815   2.958
 2667WAT    EPW11390   7.190   2.831   2.921
 2668WAT      O11391   6.857   2.332   3.200
 2668WAT     H111392   6.787   2.372   3.235
 2668WAT     H211393   6.924   2.375   3.234
 2668WAT    EPW11394   6.856   2.344   3.211
 2669WAT      O11395   7.394   2.591   3.858
 2669WAT     H111396   7.472   2.552   3.867
 2669WAT     H211397   7.347   2.558   3.924
 2669WAT    EPW11398   7.399   2.581   3.869
 2670WAT      O11399   6.163   1.686   3.435
 2670WAT     H111400   6.201   1.748   3.386
 2670WAT     H211401   6.231   1.638   3.464
 2670WAT    EPW11402   6.179   1.688   3.432
 2671WAT      O11403   5.941   1.531   3.363
 2671WAT     H111404   5.949   1.514   3.277
 2671WAT     H211405   6.016   1.571   3.382
 2671WAT    EPW11406   5.953   1.534   3.353
 2672WAT      O11407   7.497   1.795   2.407
 2672WAT     H111408   7.507   1.789   2.320
 2672WAT     H211409   7.571   1.761   2.438
 2672WAT    EPW11410   7.509   1.789   2.399
 2673WAT      O11411   6.196   1.272   3.604
 2673WAT     H111412   6.188   1.187   3.624
 2673WAT     H211413   6.165   1.276   3.522
 2673WAT    EPW11414   6.191   1.260   3.595
 2674WAT      O11415   6.889   2.491   2.517
 2674WAT     H111416   6.868   2.574   2.501
 2674WAT     H211417   6.811   2.453   2.530
 2674WAT    EPW11418   6.874   2.498   2.517
 2675WAT      O11419   7.407   1.809   3.342
 2675WAT     H111420   7.407   1.723   3.355
 2675WAT     H211421   7.414   1.842   3.423
 2675WAT    EPW11422   7.408   1.801   3.356
 2676WAT      O11423   5.881   2.053   3.385
 2676WAT     H111424   5.913   2.075   3.307
 2676WAT     H211425   5.871   1.967   3.380
 2676WAT    EPW11426   5.884   2.044   3.373
 2677WAT      O11427   6.026   1.647   2.047
 2677WAT     H111428   5.959   1.648   2.102
 2677WAT     H211429   6.036   1.562   2.028
 2677WAT    EPW11430   6.018   1.634   2.052
 2678WAT      O11431   6.995   1.289   3.720
 2678WAT     H111432   7.004   1.360   3.770
 2678WAT     H211433   6.931   1.245   3.760
 2678WAT    EPW11434   6.987   1.293   3.734
 2679WAT      O11435   6.894   1.308   2.806
 2679WAT     H111436   6.824   1.360   2.800
 2679WAT     H211437   6.898   1.270   2.727
 2679WAT    EPW11438   6.885   1.310   2.793
 2680WAT      O11439   6.425   2.517   2.158
 2680WAT     H111440   6.469   2.525   2.233
 2680WAT     H211441   6.345   2.496   2.184
 2680WAT    EPW11442   6.420   2.515   2.173
 2681WAT      O11443   7.254   1.360   3.086
 2681WAT     H111444   7.340   1.370   3.100
 2681WAT     H211445   7.217   1.415   3.142
 2681WAT    EPW11446   7.261   1.369   3.096
 2682WAT      O11447   6.357   1.982   3.524
 2682WAT     H111448   6.317   2.060   3.531
 2682WAT     H211449   6.316   1.945   3.456
 2682WAT    EPW11450   6.345   1.988   3.515
 2683WAT      O11451   7.285   1.888   2.935
 2683WAT     H111452   7.351   1.942   2.951
 2683WAT     H211453   7.250   1.919   2.861
 2683WAT    EPW11454   7.289   1.900   2.926
 2684WAT      O11455   7.316   2.694   2.516
 2684WAT     H111456   7.298   2.629   2.571
 2684WAT     H211457   7.387   2.667   2.473
 2684WAT    EPW11458   7.324   2.681   2.518
 2685WAT      O11459   6.158   2.424   2.218
 2685WAT     H111460   6.134   2.394   2.296
 2685WAT     H211461   6.155   2.354   2.167
 2685WAT    EPW11462   6.154   2.409   2.222
 2686WAT      O11463   6.440   2.249   2.093
 2686WAT     H111464   6.358   2.222   2.107
 2686WAT     H211465   6.437   2.334   2.111
 2686WAT    EPW11466   6.427   2.257   2.097
 2687WAT      O11467   6.400   1.280   3.269
 2687WAT     H111468   6.313   1.288   3.277
 2687WAT     H211469   6.422   1.229   3.335
 2687WAT    EPW11470   6.390   1.274   3.280
 2688WAT      O11471   6.810   1.355   3.106
 2688WAT     H111472   6.736   1.309   3.117
 2688WAT     H211473   6.867   1.315   3.158
 2688WAT    EPW11474   6.808   1.342   3.115
 2689WAT      O11475   7.083   2.440   3.285
 2689WAT     H111476   7.104   2.470   3.364
 2689WAT     H211477   7.077   2.512   3.236
 2689WAT    EPW11478   7.085   2.455   3.289
 2690WAT      O11479   7.037   2.861   3.709
 2690WAT     H111480   6.961   2.859   3.665
 2690WAT     H211481   7.054   2.946   3.718
 2690WAT    EPW11482   7.028   2.873   3.704
 2691WAT      O11483   6.560   1.788   3.626
 2691WAT     H111484   6.528   1.730   3.569
 2691WAT     H211485   6.525   1.863   3.602
 2691WAT    EPW11486   6.550   1.790   3.614
 2692WAT      O11487   6.640   1.113   2.089
 2692WAT     H111488   6.648   1.138   2.006
 2692WAT     H211489   6.566   1.151   2.115
 2692WAT    EPW11490   6.630   1.122   2.081
 2693WAT      O11491   7.565   2.304   3.231
 2693WAT     H111492   7.561   2.217   3.217
 2693WAT     H211493   7.495   2.334   3.187
 2693WAT    EPW11494   7.554   2.295   3.222
 2694WAT      O11495   6.404   2.823   3.651
 2694WAT     H111496   6.408   2.836   3.737
 2694WAT     H211497   6.469   2.767   3.636
 2694WAT    EPW11498   6.414   2.817   3.662
 2695WAT      O11499   7.375   2.630   3.110
 2695WAT     H111500   7.428   2.621   3.041
 2695WAT     H211501   7.336   2.552   3.116
 2695WAT    EPW11502   7.377   2.617   3.101
 2696WAT      O11503   6.122   1.288   3.333
 2696WAT     H111504   6.088   1.212   3.310
 2696WAT     H211505   6.052   1.341   3.340
 2696WAT    EPW11506   6.107   1.285   3.331
 2697WAT      O11507   7.026   1.174   3.031
 2697WAT     H111508   7.093   1.228   3.044
 2697WAT     H211509   6.976   1.216   2.974
 2697WAT    EPW11510   7.029   1.188   3.024
 2698WAT      O11511   6.163   2.662   3.787
 2698WAT     H111512   6.223   2.705   3.834
 2698WAT     H211513   6.127   2.724   3.738
 2698WAT    EPW11514   6.167   2.677   3.787
 2699WAT      O11515   6.962   1.755   2.780
 2699WAT     H111516   7.017   1.694   2.810
 2699WAT     H211517   6.920   1.781   2.852
 2699WAT    EPW11518   6.964   1.750   2.795
 2700WAT      O11519   5.987   1.620   2.729
 2700WAT     H111520   5.950   1.650   2.802
 2700WAT     H211521   6.041   1.557   2.757
 2700WAT    EPW11522   5.990   1.615   2.744
 2701WAT      O11523   5.956   2.461   3.480
 2701WAT     H111524   5.899   2.502   3.531
 2701WAT     H211525   6.029   2.507   3.490
 2701WAT    EPW11526   5.958   2.474   3.489
 2702WAT      O11527   7.159   1.938   2.437
 2702WAT     H111528   7.166   1.853   2.455
 2702WAT     H211529   7.077   1.946   2.409
 2702WAT    EPW11530   7.148   1.927   2.435
 2703WAT      O11531   6.135   2.787   2.358
 2703WAT     H111532   6.120   2.803   2.273
 2703WAT     H211533   6.221   2.795   2.365
 2703WAT    EPW11534   6.145   2.791   2.346
 2704WAT      O11535   6.551   2.027   2.330
 2704WAT     H111536   6.561   2.041   2.245
 2704WAT     H211537   6.633   2.021   2.360
 2704WAT    EPW11538   6.565   2.028   2.322
 2705WAT      O11539   7.467   2.833   2.078
 2705WAT     H111540   7.531   2.820   2.136
 2705WAT     H211541   7.433   2.754   2.067
 2705WAT    EPW11542   7.472   2.820   2.085
 2706WAT      O11543   7.487   2.075   3.752
 2706WAT     H111544   7.550   2.058   3.809
 2706WAT     H211545   7.528   2.115   3.686
 2706WAT    EPW11546   7.502   2.079   3.751
 2707WAT      O11547   7.075   2.460   2.311
 2707WAT     H111548   7.050   2.447   2.393
 2707WAT     H211549   7.043   2.390   2.268
 2707WAT    EPW11550   7.066   2.448   2.317
 2708WAT      O11551   7.549   1.532   3.825
 2708WAT     H111552   7.530   1.596   3.881
 2708WAT     H211553   7.477   1.483   3.825
 2708WAT    EPW11554   7.536   1.534   3.834
 2709WAT      O11555   7.539   1.626   3.123
 2709WAT     H111556   7.456   1.651   3.115
 2709WAT     H211557   7.534   1.542   3.145
 2709WAT    EPW11558   7.526   1.617   3.125
 2710WAT      O11559   6.465   1.324   3.642
 2710WAT     H111560   6.489   1.267   3.581
 2710WAT     H211561   6.381   1.306   3.656
 2710WAT    EPW11562   6.456   1.313   3.635
 2711WAT      O11563   7.228   2.086   3.887
 2711WAT     H111564   7.315   2.083   3.884
 2711WAT     H211565   7.206   2.128   3.814
 2711WAT    EPW11566   7.238   2.092   3.876
 2712WAT      O11567   6.203   2.669   3.005
 2712WAT     H111568   6.195   2.588   2.974
 2712WAT     H211569   6.159   2.717   2.948
 2712WAT    EPW11570   6.196   2.664   2.992
 2713WAT      O11571   6.763   2.281   2.254
 2713WAT     H111572   6.835   2.246   2.218
 2713WAT     H211573   6.760   2.361   2.219
 2713WAT    EPW11574   6.773   2.287   2.243
 2714WAT      O11575   5.960   2.893   3.363
 2714WAT     H111576   6.010   2.888   3.435
 2714WAT     H211577   5.979   2.820   3.320
 2714WAT    EPW11578   5.971   2.881   3.368
 2715WAT      O11579   6.904   1.145   0.677
 2715WAT     H111580   6.880   1.194   0.609
 2715WAT     H211581   6.991   1.137   0.667
 2715WAT    EPW11582   6.913   1.151   0.666
 2716WAT      O11583   6.885   1.836   1.145
 2716WAT     H111584   6.833   1.896   1.181
 2716WAT     H211585   6.925   1.800   1.213
 2716WAT    EPW11586   6.883   1.840   1.160
 2717WAT      O11587   5.872   2.250   0.690
 2717WAT     H111588   5.828   2.262   0.764
 2717WAT     H211589   5.844   2.173   0.662
 2717WAT    EPW11590   5.861   2.241   0.697
 2718WAT      O11591   7.500   2.580   0.442
 2718WAT     H111592   7.570   2.529   0.441
 2718WAT     H211593   7.441   2.536   0.395
 2718WAT    EPW11594   7.501   2.566   0.435
 2719WAT      O11595   5.846   1.630   0.341
 2719WAT     H111596   5.769   1.646   0.305
 2719WAT     H211597   5.850   1.542   0.343
 2719WAT    EPW11598   5.835   1.619   0.336
 2720WAT      O11599   6.160   2.156   0.208
 2720WAT     H111600   6.121   2.119   0.139
 2720WAT     H211601   6.152   2.096   0.271
 2720WAT    EPW11602   6.153   2.142   0.207
 2721WAT      O11603   7.152   1.943   0.812
 2721WAT     H111604   7.160   1.943   0.725
 2721WAT     H211605   7.094   1.880   0.827
 2721WAT    EPW11606   7.145   1.934   0.802
 2722WAT      O11607   6.123   2.320   0.598
 2722WAT     H111608   6.184   2.303   0.658
 2722WAT     H211609   6.048   2.306   0.640
 2722WAT    EPW11610   6.121   2.315   0.613
 2723WAT      O11611   6.551   1.253   0.593
 2723WAT     H111612   6.544   1.321   0.538
 2723WAT     H211613   6.625   1.215   0.568
 2723WAT    EPW11614   6.561   1.258   0.581
 2724WAT      O11615   6.012   2.629   0.206
 2724WAT     H111616   6.059   2.637   0.133
 2724WAT     H211617   6.058   2.571   0.253
 2724WAT    EPW11618   6.026   2.622   0.202
 2725WAT      O11619   5.866   2.524   1.316
 2725WAT     H111620   5.879   2.496   1.397
 2725WAT     H211621   5.805   2.470   1.285
 2725WAT    EPW11622   5.859   2.512   1.323
 2726WAT      O11623   6.523   2.276   1.822
 2726WAT     H111624   6.500   2.276   1.906
 2726WAT     H211625   6.449   2.262   1.780
 2726WAT    EPW11626   6.509   2.274   1.828
 2727WAT      O11627   6.011   1.976   0.736
 2727WAT     H111628   5.964   1.937   0.673
 2727WAT     H211629   6.081   1.925   0.745
 2727WAT    EPW11630   6.014   1.963   0.728
 2728WAT      O11631   6.461   1.537   1.271
 2728WAT     H111632   6.529   1.539   1.216
 2728WAT     H211633   6.457   1.453   1.295
 2728WAT    EPW11634   6.471   1.525   1.266
 2729WAT      O11635   6.522   2.596   1.549
 2729WAT     H111636   6.535   2.672   1.508
 2729WAT     H211637   6.601   2.559   1.551
 2729WAT    EPW11638   6.535   2.601   1.543
 2730WAT      O11639   6.211   1.786   0.738
 2730WAT     H111640   6.292   1.767   0.762
 2730WAT     H211641   6.163   1.725   0.778
 2730WAT    EPW11642   6.216   1.774   0.748
 2731WAT      O11643   6.631   2.384   0.999
 2731WAT     H111644   6.666   2.304   1.002
 2731WAT     H211645   6.698   2.434   0.974
 2731WAT    EPW11646   6.646   2.380   0.996
 2732WAT      O11647   6.637   2.329   0.620
 2732WAT     H111648   6.670   2.265   0.669
 2732WAT     H211649   6.661   2.308   0.539
 2732WAT    EPW11650   6.645   2.316   0.615
 2733WAT      O11651   6.834   1.742   1.754
 2733WAT     H111652   6.749   1.732   1.736
 2733WAT     H211653   6.837   1.817   1.800
 2733WAT    EPW11654   6.822   1.752   1.758
 2734WAT      O11655   6.270   1.295   0.665
 2734WAT     H111656   6.241   1.345   0.600
 2734WAT     H211657   6.357   1.303   0.659
 2734WAT    EPW11658   6.279   1.304   0.654
 2735WAT      O11659   7.289   1.038   1.666
 2735WAT     H111660   7.274   1.115   1.627
 2735WAT     H211661   7.212   1.016   1.700
 2735WAT    EPW11662   7.276   1.046   1.665
 2736WAT      O11663   6.568   1.210   0.887
 2736WAT     H111664   6.576   1.296   0.900
 2736WAT     H211665   6.565   1.202   0.800
 2736WAT    EPW11666   6.569   1.221   0.876
 2737WAT      O11667   5.856   1.752   1.037
 2737WAT     H111668   5.831   1.835   1.030
 2737WAT     H211669   5.790   1.714   1.079
 2737WAT    EPW11670   5.843   1.759   1.042
 2738WAT      O11671   5.847   2.723   0.827
 2738WAT     H111672   5.788   2.779   0.796
 2738WAT     H211673   5.890   2.696   0.756
 2738WAT    EPW11674   5.845   2.727   0.812
 2739WAT      O11675   6.431   2.507   0.575
 2739WAT     H111676   6.373   2.480   0.634
 2739WAT     H211677   6.494   2.447   0.578
 2739WAT    EPW11678   6.432   2.494   0.584
 2740WAT      O11679   7.046   2.736   0.327
 2740WAT     H111680   7.118   2.783   0.338
 2740WAT     H211681   7.068   2.657   0.355
 2740WAT    EPW11682   7.060   2.732   0.333
 2741WAT      O11683   6.862   2.775   0.526
 2741WAT     H111684   6.884   2.828   0.593
 2741WAT     H211685   6.939   2.758   0.488
 2741WAT    EPW11686   6.877   2.781   0.531
 2742WAT      O11687   6.159   1.234   1.086
 2742WAT     H111688   6.107   1.171   1.055
 2742WAT     H211689   6.218   1.190   1.133
 2742WAT    EPW11690   6.160   1.218   1.089
 2743WAT      O11691   6.490   1.447   2.016
 2743WAT     H111692   6.501   1.402   1.942
 2743WAT     H211693   6.519   1.527   1.996
 2743WAT    EPW11694   6.496   1.452   2.002
 2744WAT      O11695   6.002   2.590   0.620
 2744WAT     H111696   6.067   2.533   0.622
 2744WAT     H211697   6.041   2.665   0.598
 2744WAT    EPW11698   6.017   2.593   0.617
 2745WAT      O11699   7.575   1.499   0.746
 2745WAT     H111700   7.540   1.567   0.789
 2745WAT     H211701   7.511   1.440   0.748
 2745WAT    EPW11702   7.561   1.501   0.753
 2746WAT      O11703   7.106   2.776   1.357
 2746WAT     H111704   7.181   2.822   1.356
 2746WAT     H211705   7.094   2.755   1.273
 2746WAT    EPW11706   7.115   2.780   1.344
 2747WAT      O11707   6.063   1.407   1.914
 2747WAT     H111708   5.985   1.368   1.907
 2747WAT     H211709   6.112   1.366   1.855
 2747WAT    EPW11710   6.059   1.395   1.905
 2748WAT      O11711   6.084   2.439   0.970
 2748WAT     H111712   6.126   2.403   0.903
 2748WAT     H211713   6.116   2.397   1.039
 2748WAT    EPW11714   6.095   2.427   0.971
 2749WAT      O11715   6.407   2.724   0.900
 2749WAT     H111716   6.491   2.734   0.880
 2749WAT     H211717   6.377   2.806   0.907
 2749WAT    EPW11718   6.415   2.738   0.898
 2750WAT      O11719   6.728   1.171   1.831
 2750WAT     H111720   6.746   1.090   1.804
 2750WAT     H211721   6.714   1.215   1.757
 2750WAT    EPW11722   6.728   1.166   1.816
 2751WAT      O11723   6.787   1.664   0.709
 2751WAT     H111724   6.816   1.640   0.630
 2751WAT     H211725   6.861   1.672   0.755
 2751WAT    EPW11726   6.802   1.661   0.704
 2752WAT      O11727   6.860   1.698   0.221
 2752WAT     H111728   6.888   1.776   0.246
 2752WAT     H211729   6.782   1.714   0.184
 2752WAT    EPW11730   6.852   1.712   0.219
 2753WAT      O11731   7.264   2.895   0.367
 2753WAT     H111732   7.330   2.880   0.313
 2753WAT     H211733   7.300   2.887   0.446
 2753WAT    EPW11734   7.279   2.892   0.371
 2754WAT      O11735   6.306   2.846   1.474
 2754WAT     H111736   6.336   2.839   1.556
 2754WAT     H211737   6.244   2.785   1.469
 2754WAT    EPW11738   6.302   2.836   1.485
 2755WAT      O11739   5.798   1.462   1.673
 2755WAT     H111740   5.797   1.520   1.738
 2755WAT     H211741   5.857   1.493   1.617
 2755WAT    EPW11742   5.807   1.475   1.674
 2756WAT      O11743   7.032   2.495   1.727
 2756WAT     H111744   7.028   2.533   1.806
 2756WAT     H211745   7.117   2.491   1.710
 2756WAT    EPW11746   7.044   2.500   1.736
 2757WAT      O11747   6.745   2.515   0.202
 2757WAT     H111748   6.727   2.569   0.268
 2757WAT     H211749   6.822   2.544   0.172
 2757WAT    EPW11750   6.754   2.527   0.208
 2758WAT      O11751   7.096   1.304   0.308
 2758WAT     H111752   7.150   1.236   0.315
 2758WAT     H211753   7.102   1.344   0.385
 2758WAT    EPW11754   7.105   1.300   0.320
 2759WAT      O11755   5.892   1.421   0.565
 2759WAT     H111756   5.880   1.335   0.568
 2759WAT     H211757   5.844   1.450   0.632
 2759WAT    EPW11758   5.883   1.413   0.575
 2760WAT      O11759   6.106   2.662   1.386
 2760WAT     H111760   6.036   2.611   1.399
 2760WAT     H211761   6.132   2.642   1.305
 2760WAT    EPW11762   6.099   2.652   1.376
 2761WAT      O11763   6.822   1.542   0.439
 2761WAT     H111764   6.771   1.476   0.414
 2761WAT     H211765   6.827   1.592   0.368
 2761WAT    EPW11766   6.815   1.540   0.425
 2762WAT      O11767   6.877   2.811   1.477
 2762WAT     H111768   6.954   2.803   1.436
 2762WAT     H211769   6.819   2.799   1.413
 2762WAT    EPW11770   6.880   2.808   1.462
 2763WAT      O11771   6.822   1.236   0.428
 2763WAT     H111772   6.776   1.196   0.366
 2763WAT     H211773   6.899   1.251   0.391
 2763WAT    EPW11774   6.827   1.232   0.413
 2764WAT      O11775   7.505   2.872   0.767
 2764WAT     H111776   7.459   2.943   0.787
 2764WAT     H211777   7.443   2.815   0.743
 2764WAT    EPW11778   7.489   2.874   0.767
 2765WAT      O11779   6.682   1.473   0.880
 2765WAT     H111780   6.689   1.529   0.815
 2765WAT     H211781   6.694   1.522   0.951
 2765WAT    EPW11782   6.685   1.488   0.881
 2766WAT      O11783   7.204   2.456   0.722
 2766WAT     H111784   7.274   2.408   0.740
 2766WAT     H211785   7.138   2.399   0.726
 2766WAT    EPW11786   7.205   2.441   0.725
 2767WAT      O11787   6.242   2.547   1.643
 2767WAT     H111788   6.326   2.553   1.621
 2767WAT     H211789   6.238   2.587   1.720
 2767WAT    EPW11790   6.254   2.554   1.651
 2768WAT      O11791   6.143   1.055   0.715
 2768WAT     H111792   6.196   1.124   0.714
 2768WAT     H211793   6.143   1.028   0.632
 2768WAT    EPW11794   6.150   1.061   0.703
 2769WAT      O11795   6.438   2.098   1.118
 2769WAT     H111796   6.455   2.077   1.201
 2769WAT     H211797   6.373   2.045   1.096
 2769WAT    EPW11798   6.431   2.087   1.127
 2770WAT      O11799   7.061   1.490   1.469
 2770WAT     H111800   7.051   1.522   1.550
 2770WAT     H211801   7.002   1.426   1.465
 2770WAT    EPW11802   7.051   1.485   1.481
 2771WAT      O11803   6.513   2.092   1.377
 2771WAT     H111804   6.518   2.177   1.397
 2771WAT     H211805   6.485   2.055   1.450
 2771WAT    EPW11806   6.510   2.099   1.390
 2772WAT      O11807   7.131   2.162   1.290
 2772WAT     H111808   7.079   2.120   1.347
 2772WAT     H211809   7.118   2.246   1.308
 2772WAT    EPW11810   7.121   2.168   1.301
 2773WAT      O11811   7.187   1.084   0.753
 2773WAT     H111812   7.191   1.052   0.834
 2773WAT     H211813   7.219   1.020   0.703
 2773WAT    EPW11814   7.192   1.070   0.757
 2774WAT      O11815   5.795   2.529   1.998
 2774WAT     H111816   5.871   2.564   2.024
 2774WAT     H211817   5.813   2.444   1.992
 2774WAT    EPW11818   5.809   2.522   2.001
 2775WAT      O11819   7.433   1.508   1.584
 2775WAT     H111820   7.510   1.485   1.617
 2775WAT     H211821   7.385   1.529   1.654
 2775WAT    EPW11822   7.437   1.508   1.599
 2776WAT      O11823   6.187   1.436   0.881
 2776WAT     H111824   6.215   1.393   0.810
 2776WAT     H211825   6.170   1.372   0.938
 2776WAT    EPW11826   6.189   1.420   0.879
 2777WAT      O11827   7.456   2.205   0.302
 2777WAT     H111828   7.468   2.177   0.384
 2777WAT     H211829   7.537   2.208   0.269
 2777WAT    EPW11830   7.470   2.202   0.310
 2778WAT      O11831   6.170   2.179   0.835
 2778WAT     H111832   6.255   2.171   0.818
 2778WAT     H211833   6.134   2.110   0.794
 2778WAT    EPW11834   6.177   2.167   0.827
 2779WAT      O11835   6.046   2.851   0.959
 2779WAT     H111836   5.979   2.801   0.935
 2779WAT     H211837   6.087   2.870   0.884
 2779WAT    EPW11838   6.042   2.847   0.944
 2780WAT      O11839   6.001   1.546   1.189
 2780WAT     H111840   6.086   1.568   1.184
 2780WAT     H211841   5.963   1.603   1.136
 2780WAT    EPW11842   6.008   1.558   1.180
 2781WAT      O11843   7.246   1.859   0.261
 2781WAT     H111844   7.224   1.932   0.219
 2781WAT     H211845   7.201   1.864   0.336
 2781WAT    EPW11846   7.236   1.871   0.266
 2782WAT      O11847   6.407   2.179   0.659
 2782WAT     H111848   6.478   2.229   0.668
 2782WAT     H211849   6.429   2.123   0.596
 2782WAT    EPW11850   6.420   2.178   0.651
 2783WAT      O11851   5.822   2.344   0.991
 2783WAT     H111852   5.755   2.392   1.019
 2783WAT     H211853   5.890   2.398   0.994
 2783WAT    EPW11854   5.822   2.359   0.995
 2784WAT      O11855   6.587   1.715   2.001
 2784WAT     H111856   6.538   1.772   2.045
 2784WAT     H211857   6.584   1.744   1.918
 2784WAT    EPW11858   6.579   1.728   1.995
 2785WAT      O11859   5.829   2.012   0.501
 2785WAT     H111860   5.810   1.928   0.516
 2785WAT     H211861   5.895   2.008   0.444
 2785WAT    EPW11862   5.836   1.999   0.495
 2786WAT      O11863   7.465   1.301   0.434
 2786WAT     H111864   7.539   1.260   0.454
 2786WAT     H211865   7.491   1.373   0.392
 2786WAT    EPW11866   7.479   1.306   0.431
 2787WAT      O11867   6.859   2.550   0.892
 2787WAT     H111868   6.807   2.613   0.862
 2787WAT     H211869   6.890   2.513   0.819
 2787WAT    EPW11870   6.856   2.554   0.877
 2788WAT      O11871   5.846   2.428   0.459
 2788WAT     H111872   5.901   2.485   0.495
 2788WAT     H211873   5.823   2.377   0.525
 2788WAT    EPW11874   5.851   2.429   0.474
 2789WAT      O11875   6.266   2.328   1.168
 2789WAT     H111876   6.313   2.357   1.235
 2789WAT     H211877   6.324   2.281   1.122
 2789WAT    EPW11878   6.282   2.326   1.171
 2790WAT      O11879   7.110   1.530   0.941
 2790WAT     H111880   7.144   1.545   1.020
 2790WAT     H211881   7.065   1.456   0.953
 2790WAT    EPW11882   7.108   1.521   0.955
 2791WAT      O11883   5.829   2.273   0.222
 2791WAT     H111884   5.905   2.230   0.227
 2791WAT     H211885   5.830   2.327   0.291
 2791WAT    EPW11886   5.840   2.275   0.233
 2792WAT      O11887   5.923   2.095   1.022
 2792WAT     H111888   5.966   2.083   0.947
 2792WAT     H211889   5.902   2.180   1.019
 2792WAT    EPW11890   5.926   2.106   1.011
 2793WAT      O11891   6.558   1.452   0.387
 2793WAT     H111892   6.557   1.440   0.301
 2793WAT     H211893   6.539   1.537   0.396
 2793WAT    EPW11894   6.555   1.463   0.376
 2794WAT      O11895   7.463   2.695   1.537
 2794WAT     H111896   7.396   2.746   1.559
 2794WAT     H211897   7.469   2.705   1.450
 2794WAT    EPW11898   7.454   2.704   1.527
 2795WAT      O11899   6.331   2.447   0.850
 2795WAT     H111900   6.344   2.531   0.869
 2795WAT     H211901   6.398   2.407   0.890
 2795WAT    EPW11902   6.343   2.454   0.859
 2796WAT      O11903   6.144   1.795   1.836
 2796WAT     H111904   6.091   1.745   1.883
 2796WAT     H211905   6.146   1.756   1.758
 2796WAT    EPW11906   6.137   1.782   1.832
 2797WAT      O11907   6.193   1.735   0.350
 2797WAT     H111908   6.180   1.690   0.424
 2797WAT     H211909   6.135   1.701   0.295
 2797WAT    EPW11910   6.182   1.723   0.353
 2798WAT      O11911   6.210   1.918   1.010
 2798WAT     H111912   6.131   1.912   0.972
 2798WAT     H211913   6.217   1.843   1.054
 2798WAT    EPW11914   6.199   1.906   1.011
 2799WAT      O11915   6.253   1.892   1.357
 2799WAT     H111916   6.255   1.824   1.302
 2799WAT     H211917   6.188   1.941   1.326
 2799WAT    EPW11918   6.243   1.889   1.344
 2800WAT      O11919   7.242   1.663   1.197
 2800WAT     H111920   7.176   1.696   1.243
 2800WAT     H211921   7.261   1.726   1.140
 2800WAT    EPW11922   7.235   1.677   1.195
 2801WAT      O11923   6.663   2.769   1.296
 2801WAT     H111924   6.635   2.705   1.244
 2801WAT     H211925   6.642   2.842   1.253
 2801WAT    EPW11926   6.655   2.771   1.282
 2802WAT      O11927   6.907   1.254   1.540
 2802WAT     H111928   6.921   1.171   1.515
 2802WAT     H211929   6.944   1.259   1.618
 2802WAT    EPW11930   6.914   1.242   1.548
 2803WAT      O11931   7.061   1.460   0.548
 2803WAT     H111932   7.110   1.532   0.540
 2803WAT     H211933   6.982   1.486   0.522
 2803WAT    EPW11934   7.057   1.474   0.543
 2804WAT      O11935   6.032   2.027   1.913
 2804WAT     H111936   6.029   2.077   1.842
 2804WAT     H211937   6.066   1.952   1.884
 2804WAT    EPW11938   6.037   2.023   1.898
 2805WAT      O11939   7.193   2.248   1.739
 2805WAT     H111940   7.241   2.320   1.749
 2805WAT     H211941   7.232   2.205   1.674
 2805WAT    EPW11942   7.206   2.252   1.731
 2806WAT      O11943   6.622   2.532   1.857
 2806WAT     H111944   6.658   2.514   1.934
 2806WAT     H211945   6.579   2.459   1.837
 2806WAT    EPW11946   6.621   2.519   1.865
 2807WAT      O11947   6.720   1.607   1.120
 2807WAT     H111948   6.768   1.677   1.141
 2807WAT     H211949   6.757   1.542   1.165
 2807WAT    EPW11950   6.732   1.608   1.130
 2808WAT      O11951   6.938   1.924   0.348
 2808WAT     H111952   6.938   1.996   0.299
 2808WAT     H211953   6.875   1.937   0.405
 2808WAT    EPW11954   6.929   1.937   0.349
 2809WAT      O11955   7.436   2.311   0.746
 2809WAT     H111956   7.471   2.276   0.817
 2809WAT     H211957   7.435   2.245   0.689
 2809WAT    EPW11958   7.441   2.296   0.748
 2810WAT      O11959   7.040   2.617   1.130
 2810WAT     H111960   6.980   2.588   1.075
 2810WAT     H211961   7.095   2.663   1.079
 2810WAT    EPW11962   7.039   2.620   1.114
 2811WAT      O11963   7.041   2.303   1.070
 2811WAT     H111964   6.962   2.325   1.098
 2811WAT     H211965   7.067   2.243   1.129
 2811WAT    EPW11966   7.033   2.297   1.083
 2812WAT      O11967   6.431   2.784   0.515
 2812WAT     H111968   6.416   2.706   0.552
 2812WAT     H211969   6.500   2.769   0.464
 2812WAT    EPW11970   6.439   2.770   0.513
 2813WAT      O11971   6.398   1.158   0.314
 2813WAT     H111972   6.407   1.147   0.400
 2813WAT     H211973   6.327   1.209   0.307
 2813WAT    EPW11974   6.389   1.164   0.326
 2814WAT      O11975   6.660   2.735   0.355
 2814WAT     H111976   6.722   2.752   0.414
 2814WAT     H211977   6.663   2.804   0.302
 2814WAT    EPW11978   6.670   2.748   0.356
 2815WAT      O11979   7.367   2.102   1.555
 2815WAT     H111980   7.373   2.115   1.469
 2815WAT     H211981   7.443   2.134   1.585
 2815WAT    EPW11982   7.379   2.109   1.547
 2816WAT      O11983   6.987   2.637   1.983
 2816WAT     H111984   7.003   2.666   2.063
 2816WAT     H211985   7.013   2.703   1.932
 2816WAT    EPW11986   6.993   2.651   1.987
 2817WAT      O11987   7.471   1.132   1.854
 2817WAT     H111988   7.407   1.092   1.809
 2817WAT     H211989   7.473   1.089   1.929
 2817WAT    EPW11990   7.462   1.120   1.858
 2818WAT      O11991   6.110   1.989   0.438
 2818WAT     H111992   6.142   1.911   0.416
 2818WAT     H211993   6.175   2.026   0.484
 2818WAT    EPW11994   6.124   1.983   0.442
 2819WAT      O11995   6.941   2.083   1.515
 2819WAT     H111996   6.925   2.144   1.575
 2819WAT     H211997   6.994   2.027   1.555
 2819WAT    EPW11998   6.946   2.084   1.530
 2820WAT      O11999   5.810   1.155   0.535
 2820WAT     H112000   5.823   1.084   0.486
 2820WAT     H212001   5.773   1.123   0.607
 2820WAT    EPW12002   5.806   1.140   0.538
 2821WAT      O12003   6.779   1.923   0.581
 2821WAT     H112004   6.785   1.988   0.639
 2821WAT     H212005   6.760   1.853   0.630
 2821WAT    EPW12006   6.777   1.922   0.596
 2822WAT      O12007   7.302   2.356   1.168
 2822WAT     H112008   7.254   2.386   1.101
 2822WAT     H212009   7.266   2.278   1.185
 2822WAT    EPW12010   7.289   2.349   1.160
 2823WAT      O12011   6.229   1.375   0.232
 2823WAT     H112012   6.177   1.380   0.161
 2823WAT     H212013   6.307   1.399   0.202
 2823WAT    EPW12014   6.233   1.379   0.217
 2824WAT      O12015   6.701   2.128   1.024
 2824WAT     H112016   6.617   2.108   1.032
 2824WAT     H212017   6.734   2.111   1.103
 2824WAT    EPW12018   6.693   2.122   1.037
 2825WAT      O12019   6.086   2.097   1.255
 2825WAT     H112020   6.158   2.146   1.252
 2825WAT     H212021   6.059   2.094   1.172
 2825WAT    EPW12022   6.093   2.104   1.243
 2826WAT      O12023   6.409   1.614   0.929
 2826WAT     H112024   6.494   1.595   0.939
 2826WAT     H212025   6.372   1.536   0.915
 2826WAT    EPW12026   6.416   1.600   0.928
 2827WAT      O12027   5.891   1.748   0.594
 2827WAT     H112028   5.940   1.719   0.660
 2827WAT     H212029   5.904   1.689   0.532
 2827WAT    EPW12030   5.900   1.735   0.595
 2828WAT      O12031   7.395   2.050   1.279
 2828WAT     H112032   7.394   1.972   1.319
 2828WAT     H212033   7.311   2.073   1.279
 2828WAT    EPW12034   7.382   2.042   1.285
 2829WAT      O12035   6.026   2.202   1.683
 2829WAT     H112036   5.983   2.150   1.627
 2829WAT     H212037   5.990   2.281   1.669
 2829WAT    EPW12038   6.014   2.206   1.673
 2830WAT      O12039   6.489   1.737   0.414
 2830WAT     H112040   6.516   1.820   0.421
 2830WAT     H212041   6.403   1.745   0.404
 2830WAT    EPW12042   6.480   1.751   0.413
 2831WAT      O12043   7.286   1.450   1.877
 2831WAT     H112044   7.234   1.495   1.930
 2831WAT     H212045   7.250   1.370   1.877
 2831WAT    EPW12046   7.273   1.445   1.885
 2832WAT      O12047   5.837   1.334   1.068
 2832WAT     H112048   5.842   1.369   0.987
 2832WAT     H212049   5.913   1.358   1.104
 2832WAT    EPW12050   5.849   1.343   1.061
 2833WAT      O12051   7.136   1.806   1.885
 2833WAT     H112052   7.143   1.817   1.971
 2833WAT     H212053   7.072   1.862   1.863
 2833WAT    EPW12054   7.127   1.816   1.894
 2834WAT      O12055   7.362   1.838   1.721
 2834WAT     H112056   7.394   1.917   1.742
 2834WAT     H212057   7.325   1.811   1.796
 2834WAT    EPW12058   7.362   1.846   1.735
 2835WAT      O12059   7.294   2.481   0.274
 2835WAT     H112060   7.327   2.400   0.278
 2835WAT     H212061   7.218   2.474   0.317
 2835WAT    EPW12062   7.288   2.468   0.281
 2836WAT      O12063   7.342   1.664   0.840
 2836WAT     H112064   7.268   1.632   0.872
 2836WAT     H212065   7.342   1.747   0.868
 2836WAT    EPW12066   7.331   1.672   0.849
 2837WAT      O12067   7.031   2.268   0.215
 2837WAT     H112068   7.100   2.217   0.198
 2837WAT     H212069   6.990   2.273   0.138
 2837WAT    EPW12070   7.035   2.261   0.201
 2838WAT      O12071   6.499   2.383   1.345
 2838WAT     H112072   6.470   2.442   1.402
 2838WAT     H212073   6.505   2.427   1.270
 2838WAT    EPW12074   6.496   2.399   1.342
 2839WAT      O12075   6.297   2.278   1.685
 2839WAT     H112076   6.217   2.249   1.701
 2839WAT     H212077   6.288   2.365   1.685
 2839WAT    EPW12078   6.284   2.287   1.687
 2840WAT      O12079   7.233   1.297   1.586
 2840WAT     H112080   7.308   1.342   1.580
 2840WAT     H212081   7.177   1.344   1.539
 2840WAT    EPW12082   7.236   1.311   1.578
 2841WAT      O12083   6.751   2.026   1.294
 2841WAT     H112084   6.799   2.063   1.357
 2841WAT     H212085   6.669   2.039   1.320
 2841WAT    EPW12086   6.746   2.033   1.307
 2842WAT      O12087   6.422   1.586   1.568
 2842WAT     H112088   6.438   1.511   1.611
 2842WAT     H212089   6.418   1.561   1.485
 2842WAT    EPW12090   6.424   1.571   1.562
 2843WAT      O12091   6.677   2.765   0.817
 2843WAT     H112092   6.732   2.833   0.822
 2843WAT     H212093   6.642   2.773   0.737
 2843WAT    EPW12094   6.680   2.776   0.806
 2844WAT      O12095   7.362   1.095   1.353
 2844WAT     H112096   7.334   1.178   1.349
 2844WAT     H212097   7.433   1.100   1.403
 2844WAT    EPW12098   7.368   1.108   1.360
 2845WAT      O12099   6.597   1.167   1.556
 2845WAT     H112100   6.668   1.199   1.516
 2845WAT     H212101   6.621   1.086   1.579
 2845WAT    EPW12102   6.611   1.159   1.554
 2846WAT      O12103   6.496   2.588   1.156
 2846WAT     H112104   6.433   2.646   1.138
 2846WAT     H212105   6.521   2.559   1.077
 2846WAT    EPW12106   6.490   2.592   1.141
 2847WAT      O12107   6.927   2.251   1.855
 2847WAT     H112108   7.002   2.280   1.822
 2847WAT     H212109   6.872   2.256   1.787
 2847WAT    EPW12110   6.930   2.256   1.840
 2848WAT      O12111   7.318   2.506   1.705
 2848WAT     H112112   7.352   2.533   1.780
 2848WAT     H212113   7.347   2.564   1.647
 2848WAT    EPW12114   7.327   2.519   1.708
 2849WAT      O12115   7.504   1.721   0.239
 2849WAT     H112116   7.542   1.788   0.199
 2849WAT     H212117   7.420   1.743   0.242
 2849WAT    EPW12118   7.497   1.734   0.233
 2850WAT      O12119   6.248   1.672   1.162
 2850WAT     H112120   6.292   1.662   1.088
 2850WAT     H212121   6.303   1.641   1.223
 2850WAT    EPW12122   6.263   1.666   1.160
 2851WAT      O12123   7.050   1.582   1.721
 2851WAT     H112124   6.985   1.629   1.756
 2851WAT     H212125   7.106   1.573   1.787
 2851WAT    EPW12126   7.049   1.588   1.736
 2852WAT      O12127   7.019   1.736   1.351
 2852WAT     H112128   7.049   1.778   1.422
 2852WAT     H212129   7.022   1.652   1.374
 2852WAT    EPW12130   7.024   1.730   1.365
 2853WAT      O12131   6.761   2.753   1.744
 2853WAT     H112132   6.809   2.693   1.702
 2853WAT     H212133   6.726   2.708   1.810
 2853WAT    EPW12134   6.763   2.737   1.747
 2854WAT      O12135   7.273   1.681   0.576
 2854WAT     H112136   7.294   1.660   0.659
 2854WAT     H212137   7.349   1.707   0.542
 2854WAT    EPW12138   7.288   1.682   0.584
 2855WAT      O12139   6.603   1.170   1.167
 2855WAT     H112140   6.520   1.156   1.191
 2855WAT     H212141   6.599   1.174   1.080
 2855WAT    EPW12142   6.590   1.169   1.158
 2856WAT      O12143   7.376   1.289   0.724
 2856WAT     H112144   7.304   1.242   0.741
 2856WAT     H212145   7.359   1.323   0.645
 2856WAT    EPW12146   7.363   1.287   0.715
 2857WAT      O12147   7.420   2.083   0.562
 2857WAT     H112148   7.467   2.010   0.557
 2857WAT     H212149   7.338   2.055   0.554
 2857WAT    EPW12150   7.415   2.068   0.560
 2858WAT      O12151   6.767   2.274   1.646
 2858WAT     H112152   6.687   2.268   1.681
 2858WAT     H212153   6.774   2.359   1.626
 2858WAT    EPW12154   6.756   2.286   1.648
 2859WAT      O12155   5.859   1.210   1.770
 2859WAT     H112156   5.845   1.290   1.737
 2859WAT     H212157   5.781   1.186   1.799
 2859WAT    EPW12158   5.846   1.218   1.770
 2860WAT      O12159   6.350   2.895   1.177
 2860WAT     H112160   6.351   2.901   1.264
 2860WAT     H212161   6.307   2.820   1.162
 2860WAT    EPW12162   6.344   2.885   1.188
 2861WAT      O12163   6.166   1.485   0.493
 2861WAT     H112164   6.178   1.452   0.413
 2861WAT     H212165   6.085   1.460   0.513
 2861WAT    EPW12166   6.156   1.476   0.484
 2862WAT      O12167   7.041   2.200   0.797
 2862WAT     H112168   7.049   2.234   0.877
 2862WAT     H212169   7.058   2.115   0.809
 2862WAT    EPW12170   7.045   2.192   0.811
 2863WAT      O12171   6.794   2.127   0.754
 2863WAT     H112172   6.764   2.096   0.830
 2863WAT     H212173   6.863   2.175   0.777
 2863WAT    EPW12174   6.800   2.130   0.769
 2864WAT      O12175   6.816   2.539   1.557
 2864WAT     H112176   6.885   2.528   1.609
 2864WAT     H212177   6.829   2.618   1.522
 2864WAT    EPW12178   6.828   2.549   1.559
 2865WAT      O12179   7.085   1.867   1.595
 2865WAT     H112180   7.059   1.795   1.637
 2865WAT     H212181   7.167   1.878   1.622
 2865WAT    EPW12182   7.093   1.858   1.605
 2866WAT      O12183   6.026   2.845   1.722
 2866WAT     H112184   5.961   2.788   1.731
 2866WAT     H212185   5.989   2.922   1.737
 2866WAT    EPW12186   6.011   2.848   1.725
 2867WAT      O12187   6.878   1.986   1.914
 2867WAT     H112188   6.910   2.054   1.871
 2867WAT     H212189   6.808   2.018   1.954
 2867WAT    EPW12190   6.872   2.000   1.913
 2868WAT      O12191   7.187   2.823   1.007
 2868WAT     H112192   7.141   2.887   1.045
 2868WAT     H212193   7.257   2.815   1.057
 2868WAT    EPW12194   7.190   2.831   1.020
 2869WAT      O12195   6.857   2.332   1.300
 2869WAT     H112196   6.787   2.372   1.334
 2869WAT     H212197   6.924   2.375   1.334
 2869WAT    EPW12198   6.856   2.344   1.310
 2870WAT      O12199   7.394   2.591   1.958
 2870WAT     H112200   7.472   2.552   1.966
 2870WAT     H212201   7.347   2.558   2.023
 2870WAT    EPW12202   7.399   2.581   1.969
 2871WAT      O12203   6.163   1.686   1.535
 2871WAT     H112204   6.201   1.748   1.486
 2871WAT     H212205   6.231   1.638   1.563
 2871WAT    EPW12206   6.179   1.688   1.532
 2872WAT      O12207   5.941   1.531   1.462
 2872WAT     H112208   5.949   1.514   1.377
 2872WAT     H212209   6.016   1.571   1.482
 2872WAT    EPW12210   5.953   1.534   1.452
 2873WAT      O12211   7.497   1.795   0.506
 2873WAT     H112212   7.507   1.789   0.420
 2873WAT     H212213   7.571   1.761   0.538
 2873WAT    EPW12214   7.509   1.789   0.498
 2874WAT      O12215   6.196   1.272   1.703
 2874WAT     H112216   6.188   1.187   1.724
 2874WAT     H212217   6.165   1.276   1.622
 2874WAT    EPW12218   6.191   1.260   1.694
 2875WAT      O12219   6.889   2.491   0.617
 2875WAT     H112220   6.868   2.574   0.601
 2875WAT     H212221   6.811   2.453   0.629
 2875WAT    EPW12222   6.874   2.498   0.616
 2876WAT      O12223   7.407   1.809   1.442
 2876WAT     H112224   7.407   1.723   1.454
 2876WAT     H212225   7.414   1.842   1.522
 2876WAT    EPW12226   7.408   1.801   1.455
 2877WAT      O12227   5.881   2.053   1.484
 2877WAT     H112228   5.913   2.075   1.406
 2877WAT     H212229   5.871   1.967   1.479
 2877WAT    EPW12230   5.884   2.044   1.472
 2878WAT      O12231   6.995   1.289   1.820
 2878WAT     H112232   7.004   1.360   1.869
 2878WAT     H212233   6.931   1.245   1.860
 2878WAT    EPW12234   6.987   1.293   1.833
 2879WAT      O12235   6.894   1.308   0.905
 2879WAT     H112236   6.824   1.360   0.900
 2879WAT     H212237   6.898   1.270   0.827
 2879WAT    EPW12238   6.885   1.310   0.893
 2880WAT      O12239   6.425   2.517   0.258
 2880WAT     H112240   6.469   2.525   0.332
 2880WAT     H212241   6.345   2.496   0.283
 2880WAT    EPW12242   6.420   2.515   0.273
 2881WAT      O12243   7.254   1.360   1.185
 2881WAT     H112244   7.340   1.370   1.200
 2881WAT     H212245   7.217   1.415   1.242
 2881WAT    EPW12246   7.261   1.369   1.196
 2882WAT      O12247   6.357   1.982   1.623
 2882WAT     H112248   6.317   2.060   1.630
 2882WAT     H212249   6.316   1.945   1.555
 2882WAT    EPW12250   6.345   1.988   1.614
 2883WAT      O12251   7.285   1.888   1.034
 2883WAT     H112252   7.351   1.942   1.050
 2883WAT     H212253   7.250   1.919   0.960
 2883WAT    EPW12254   7.289   1.900   1.026
 2884WAT      O12255   7.316   2.694   0.615
 2884WAT     H112256   7.298   2.629   0.670
 2884WAT     H212257   7.387   2.667   0.573
 2884WAT    EPW12258   7.324   2.681   0.617
 2885WAT      O12259   6.158   2.424   0.318
 2885WAT     H112260   6.134   2.394   0.396
 2885WAT     H212261   6.155   2.354   0.266
 2885WAT    EPW12262   6.154   2.409   0.322
 2886WAT      O12263   6.440   2.249   0.192
 2886WAT     H112264   6.358   2.222   0.206
 2886WAT     H212265   6.437   2.334   0.211
 2886WAT    EPW12266   6.427   2.257   0.197
 2887WAT      O12267   6.400   1.280   1.368
 2887WAT     H112268   6.313   1.288   1.376
 2887WAT     H212269   6.422   1.229   1.435
 2887WAT    EPW12270   6.390   1.274   1.379
 2888WAT      O12271   6.810   1.355   1.205
 2888WAT     H112272   6.736   1.309   1.217
 2888WAT     H212273   6.867   1.315   1.258
 2888WAT    EPW12274   6.808   1.342   1.215
 2889WAT      O12275   7.083   2.440   1.384
 2889WAT     H112276   7.104   2.470   1.463
 2889WAT     H212277   7.077   2.512   1.336
 2889WAT    EPW12278   7.085   2.455   1.389
 2890WAT      O12279   7.037   2.861   1.809
 2890WAT     H112280   6.961   2.859   1.765
 2890WAT     H212281   7.054   2.946   1.817
 2890WAT    EPW12282   7.028   2.873   1.803
 2891WAT      O12283   6.560   1.788   1.726
 2891WAT     H112284   6.528   1.730   1.669
 2891WAT     H212285   6.525   1.863   1.701
 2891WAT    EPW12286   6.550   1.790   1.714
 2892WAT      O12287   7.565   2.304   1.330
 2892WAT     H112288   7.561   2.217   1.316
 2892WAT     H212289   7.495   2.334   1.287
 2892WAT    EPW12290   7.554   2.295   1.322
 2893WAT      O12291   6.404   2.823   1.751
 2893WAT     H112292   6.408   2.836   1.837
 2893WAT     H212293   6.469   2.767   1.735
 2893WAT    EPW12294   6.414   2.817   1.761
 2894WAT      O12295   7.375   2.630   1.210
 2894WAT     H112296   7.428   2.621   1.141
 2894WAT     H212297   7.336   2.552   1.215
 2894WAT    EPW12298   7.377   2.617   1.200
 2895WAT      O12299   6.122   1.288   1.433
 2895WAT     H112300   6.088   1.212   1.409
 2895WAT     H212301   6.052   1.341   1.439
 2895WAT    EPW12302   6.107   1.285   1.430
 2896WAT      O12303   7.026   1.174   1.130
 2896WAT     H112304   7.093   1.228   1.143
 2896WAT     H212305   6.976   1.216   1.073
 2896WAT    EPW12306   7.029   1.188   1.124
 2897WAT      O12307   6.163   2.662   1.887
 2897WAT     H112308   6.223   2.705   1.934
 2897WAT     H212309   6.127   2.724   1.838
 2897WAT    EPW12310   6.167   2.677   1.886
 2898WAT      O12311   6.962   1.755   0.880
 2898WAT     H112312   7.017   1.694   0.910
 2898WAT     H212313   6.920   1.781   0.951
 2898WAT    EPW12314   6.964   1.750   0.895
 2899WAT      O12315   5.987   1.620   0.828
 2899WAT     H112316   5.950   1.650   0.901
 2899WAT     H212317   6.041   1.557   0.857
 2899WAT    EPW12318   5.990   1.615   0.843
 2900WAT      O12319   5.956   2.461   1.579
 2900WAT     H112320   5.899   2.502   1.630
 2900WAT     H212321   6.029   2.507   1.589
 2900WAT    EPW12322   5.958   2.474   1.588
 2901WAT      O12323   7.159   1.938   0.536
 2901WAT     H112324   7.166   1.853   0.554
 2901WAT     H212325   7.077   1.946   0.508
 2901WAT    EPW12326   7.148   1.927   0.535
 2902WAT      O12327   6.135   2.787   0.457
 2902WAT     H112328   6.120   2.803   0.372
 2902WAT     H212329   6.221   2.795   0.465
 2902WAT    EPW12330   6.145   2.791   0.446
 2903WAT      O12331   6.551   2.027   0.430
 2903WAT     H112332   6.561   2.041   0.344
 2903WAT     H212333   6.633   2.021   0.459
 2903WAT    EPW12334   6.565   2.028   0.421
 2904WAT      O12335   7.467   2.833   0.178
 2904WAT     H112336   7.531   2.820   0.236
 2904WAT     H212337   7.433   2.754   0.166
 2904WAT    EPW12338   7.472   2.820   0.185
 2905WAT      O12339   7.487   2.075   1.851
 2905WAT     H112340   7.550   2.058   1.908
 2905WAT     H212341   7.528   2.115   1.786
 2905WAT    EPW12342   7.502   2.079   1.850
 2906WAT      O12343   7.075   2.460   0.410
 2906WAT     H112344   7.050   2.447   0.493
 2906WAT     H212345   7.043   2.390   0.368
 2906WAT    EPW12346   7.066   2.448   0.416
 2907WAT      O12347   7.549   1.532   1.925
 2907WAT     H112348   7.530   1.596   1.980
 2907WAT     H212349   7.477   1.483   1.924
 2907WAT    EPW12350   7.536   1.534   1.933
 2908WAT      O12351   7.539   1.626   1.222
 2908WAT     H112352   7.456   1.651   1.215
 2908WAT     H212353   7.534   1.542   1.245
 2908WAT    EPW12354   7.526   1.617   1.224
 2909WAT      O12355   6.465   1.324   1.741
 2909WAT     H112356   6.489   1.267   1.680
 2909WAT     H212357   6.381   1.306   1.755
 2909WAT    EPW12358   6.456   1.313   1.734
 2910WAT      O12359   7.228   2.086   1.987
 2910WAT     H112360   7.315   2.083   1.983
 2910WAT     H212361   7.206   2.128   1.913
 2910WAT    EPW12362   7.238   2.092   1.975
 2911WAT      O12363   6.203   2.669   1.105
 2911WAT     H112364   6.195   2.588   1.073
 2911WAT     H212365   6.159   2.717   1.047
 2911WAT    EPW12366   6.196   2.664   1.092
 2912WAT      O12367   6.763   2.281   0.353
 2912WAT     H112368   6.835   2.246   0.317
 2912WAT     H212369   6.760   2.361   0.318
 2912WAT    EPW12370   6.773   2.287   0.343
 2913WAT      O12371   5.960   2.893   1.463
 2913WAT     H112372   6.010   2.888   1.535
 2913WAT     H212373   5.979   2.820   1.419
 2913WAT    EPW12374   5.971   2.881   1.467
 2914WAT      O12375   5.872   0.403   6.392
 2914WAT     H112376   5.828   0.414   6.466
 2914WAT     H212377   5.844   0.325   6.363
 2914WAT    EPW12378   5.861   0.393   6.399
 2915WAT      O12379   7.500   0.733   6.143
 2915WAT     H112380   7.570   0.681   6.143
 2915WAT     H212381   7.441   0.688   6.097
 2915WAT    EPW12382   7.501   0.718   6.136
 2916WAT      O12383   6.160   0.308   5.910
 2916WAT     H112384   6.121   0.271   5.841
 2916WAT     H212385   6.152   0.248   5.973
 2916WAT    EPW12386   6.153   0.294   5.909
 2917WAT      O12387   6.123   0.472   6.300
 2917WAT     H112388   6.184   0.455   6.360
 2917WAT     H212389   6.048   0.458   6.342
 2917WAT    EPW12390   6.121   0.468   6.315
 2918WAT      O12391   6.012   0.781   5.908
 2918WAT     H112392   6.059   0.790   5.834
 2918WAT     H212393   6.058   0.723   5.954
 2918WAT    EPW12394   6.026   0.774   5.904
 2919WAT      O12395   5.866   0.676   7.017
 2919WAT     H112396   5.879   0.648   7.099
 2919WAT     H212397   5.805   0.622   6.987
 2919WAT    EPW12398   5.859   0.664   7.025
 2920WAT      O12399   6.523   0.429   7.524
 2920WAT     H112400   6.500   0.428   7.608
 2920WAT     H212401   6.449   0.414   7.482
 2920WAT    EPW12402   6.509   0.426   7.530
 2921WAT      O12403   6.522   0.748   7.250
 2921WAT     H112404   6.535   0.824   7.210
 2921WAT     H212405   6.601   0.711   7.253
 2921WAT    EPW12406   6.535   0.754   7.245
 2922WAT      O12407   6.631   0.536   6.701
 2922WAT     H112408   6.666   0.456   6.704
 2922WAT     H212409   6.698   0.587   6.675
 2922WAT    EPW12410   6.646   0.532   6.698
 2923WAT      O12411   6.637   0.481   6.322
 2923WAT     H112412   6.670   0.417   6.371
 2923WAT     H212413   6.661   0.460   6.241
 2923WAT    EPW12414   6.645   0.469   6.317
 2924WAT      O12415   5.847   0.875   6.529
 2924WAT     H112416   5.788   0.931   6.498
 2924WAT     H212417   5.890   0.848   6.458
 2924WAT    EPW12418   5.845   0.879   6.514
 2925WAT      O12419   6.431   0.660   6.277
 2925WAT     H112420   6.373   0.632   6.336
 2925WAT     H212421   6.494   0.599   6.279
 2925WAT    EPW12422   6.432   0.647   6.286
 2926WAT      O12423   7.046   0.888   6.029
 2926WAT     H112424   7.118   0.936   6.039
 2926WAT     H212425   7.068   0.809   6.057
 2926WAT    EPW12426   7.060   0.884   6.035
 2927WAT      O12427   6.862   0.928   6.228
 2927WAT     H112428   6.884   0.980   6.294
 2927WAT     H212429   6.939   0.910   6.190
 2927WAT    EPW12430   6.877   0.933   6.232
 2928WAT      O12431   6.002   0.742   6.322
 2928WAT     H112432   6.067   0.685   6.324
 2928WAT     H212433   6.041   0.817   6.300
 2928WAT    EPW12434   6.017   0.745   6.319
 2929WAT      O12435   7.106   0.929   7.059
 2929WAT     H112436   7.181   0.974   7.058
 2929WAT     H212437   7.094   0.907   6.975
 2929WAT    EPW12438   7.115   0.932   7.046
 2930WAT      O12439   6.084   0.591   6.672
 2930WAT     H112440   6.126   0.555   6.605
 2930WAT     H212441   6.116   0.549   6.741
 2930WAT    EPW12442   6.095   0.579   6.672
 2931WAT      O12443   6.407   0.876   6.602
 2931WAT     H112444   6.491   0.887   6.582
 2931WAT     H212445   6.377   0.958   6.608
 2931WAT    EPW12446   6.415   0.890   6.600
 2932WAT      O12447   7.264   1.047   6.069
 2932WAT     H112448   7.330   1.032   6.015
 2932WAT     H212449   7.300   1.039   6.148
 2932WAT    EPW12450   7.279   1.044   6.073
 2933WAT      O12451   6.306   0.998   7.176
 2933WAT     H112452   6.336   0.991   7.258
 2933WAT     H212453   6.244   0.938   7.171
 2933WAT    EPW12454   6.302   0.988   7.187
 2934WAT      O12455   7.032   0.647   7.429
 2934WAT     H112456   7.028   0.685   7.507
 2934WAT     H212457   7.117   0.643   7.412
 2934WAT    EPW12458   7.044   0.652   7.438
 2935WAT      O12459   6.745   0.667   5.904
 2935WAT     H112460   6.727   0.721   5.970
 2935WAT     H212461   6.822   0.696   5.874
 2935WAT    EPW12462   6.754   0.679   5.909
 2936WAT      O12463   6.106   0.814   7.088
 2936WAT     H112464   6.036   0.763   7.100
 2936WAT     H212465   6.132   0.794   7.007
 2936WAT    EPW12466   6.099   0.804   7.078
 2937WAT      O12467   6.877   0.964   7.179
 2937WAT     H112468   6.954   0.956   7.138
 2937WAT     H212469   6.819   0.951   7.115
 2937WAT    EPW12470   6.880   0.961   7.163
 2938WAT      O12471   7.505   1.024   6.469
 2938WAT     H112472   7.459   1.096   6.489
 2938WAT     H212473   7.443   0.967   6.445
 2938WAT    EPW12474   7.489   1.026   6.468
 2939WAT      O12475   7.204   0.608   6.423
 2939WAT     H112476   7.274   0.560   6.442
 2939WAT     H212477   7.138   0.551   6.428
 2939WAT    EPW12478   7.205   0.593   6.427
 2940WAT      O12479   6.242   0.699   7.345
 2940WAT     H112480   6.326   0.706   7.322
 2940WAT     H212481   6.238   0.739   7.422
 2940WAT    EPW12482   6.254   0.706   7.353
 2941WAT      O12483   6.438   0.250   6.819
 2941WAT     H112484   6.455   0.229   6.902
 2941WAT     H212485   6.373   0.197   6.798
 2941WAT    EPW12486   6.431   0.239   6.829
 2942WAT      O12487   6.513   0.244   7.078
 2942WAT     H112488   6.518   0.329   7.099
 2942WAT     H212489   6.485   0.207   7.152
 2942WAT    EPW12490   6.510   0.251   7.092
 2943WAT      O12491   7.131   0.314   6.991
 2943WAT     H112492   7.079   0.273   7.049
 2943WAT     H212493   7.118   0.398   7.010
 2943WAT    EPW12494   7.121   0.320   7.003
 2944WAT      O12495   7.456   0.358   6.004
 2944WAT     H112496   7.468   0.329   6.086
 2944WAT     H212497   7.537   0.360   5.971
 2944WAT    EPW12498   7.470   0.354   6.011
 2945WAT      O12499   6.170   0.331   6.537
 2945WAT     H112500   6.255   0.323   6.520
 2945WAT     H212501   6.134   0.263   6.496
 2945WAT    EPW12502   6.177   0.320   6.529
 2946WAT      O12503   6.046   1.003   6.661
 2946WAT     H112504   5.979   0.954   6.636
 2946WAT     H212505   6.087   1.022   6.586
 2946WAT    EPW12506   6.042   0.999   6.646
 2947WAT      O12507   6.407   0.332   6.361
 2947WAT     H112508   6.478   0.381   6.370
 2947WAT     H212509   6.429   0.275   6.298
 2947WAT    EPW12510   6.420   0.330   6.353
 2948WAT      O12511   5.822   0.496   6.693
 2948WAT     H112512   5.755   0.545   6.720
 2948WAT     H212513   5.890   0.550   6.696
 2948WAT    EPW12514   5.822   0.511   6.697
 2949WAT      O12515   6.859   0.702   6.593
 2949WAT     H112516   6.807   0.765   6.564
 2949WAT     H212517   6.890   0.665   6.521
 2949WAT    EPW12518   6.856   0.706   6.578
 2950WAT      O12519   5.846   0.581   6.161
 2950WAT     H112520   5.901   0.638   6.197
 2950WAT     H212521   5.823   0.529   6.227
 2950WAT    EPW12522   5.851   0.581   6.176
 2951WAT      O12523   6.266   0.481   6.869
 2951WAT     H112524   6.313   0.510   6.937
 2951WAT     H212525   6.324   0.433   6.824
 2951WAT    EPW12526   6.282   0.478   6.873
 2952WAT      O12527   5.829   0.426   5.923
 2952WAT     H112528   5.905   0.382   5.929
 2952WAT     H212529   5.830   0.479   5.992
 2952WAT    EPW12530   5.840   0.427   5.934
 2953WAT      O12531   5.923   0.248   6.724
 2953WAT     H112532   5.966   0.235   6.649
 2953WAT     H212533   5.902   0.332   6.721
 2953WAT    EPW12534   5.926   0.258   6.712
 2954WAT      O12535   7.463   0.847   7.239
 2954WAT     H112536   7.396   0.898   7.260
 2954WAT     H212537   7.469   0.857   7.152
 2954WAT    EPW12538   7.454   0.856   7.229
 2955WAT      O12539   6.331   0.599   6.552
 2955WAT     H112540   6.344   0.684   6.571
 2955WAT     H212541   6.398   0.559   6.592
 2955WAT    EPW12542   6.343   0.606   6.561
 2956WAT      O12543   6.663   0.922   6.998
 2956WAT     H112544   6.635   0.858   6.946
 2956WAT     H212545   6.642   0.994   6.954
 2956WAT    EPW12546   6.655   0.923   6.984
 2957WAT      O12547   7.193   0.400   7.441
 2957WAT     H112548   7.241   0.472   7.450
 2957WAT     H212549   7.232   0.357   7.376
 2957WAT    EPW12550   7.206   0.404   7.432
 2958WAT      O12551   6.622   0.684   7.558
 2958WAT     H112552   6.658   0.667   7.636
 2958WAT     H212553   6.579   0.612   7.538
 2958WAT    EPW12554   6.621   0.671   7.567
 2959WAT      O12555   7.436   0.463   6.448
 2959WAT     H112556   7.471   0.428   6.519
 2959WAT     H212557   7.435   0.397   6.391
 2959WAT    EPW12558   7.441   0.448   6.450
 2960WAT      O12559   7.040   0.770   6.832
 2960WAT     H112560   6.980   0.740   6.776
 2960WAT     H212561   7.095   0.815   6.781
 2960WAT    EPW12562   7.039   0.772   6.816
 2961WAT      O12563   7.041   0.455   6.772
 2961WAT     H112564   6.962   0.477   6.799
 2961WAT     H212565   7.067   0.395   6.831
 2961WAT    EPW12566   7.033   0.449   6.785
 2962WAT      O12567   6.431   0.936   6.217
 2962WAT     H112568   6.416   0.858   6.254
 2962WAT     H212569   6.500   0.921   6.165
 2962WAT    EPW12570   6.439   0.922   6.215
 2963WAT      O12571   6.660   0.888   6.057
 2963WAT     H112572   6.722   0.904   6.116
 2963WAT     H212573   6.663   0.957   6.004
 2963WAT    EPW12574   6.670   0.900   6.058
 2964WAT      O12575   7.367   0.255   7.257
 2964WAT     H112576   7.373   0.267   7.170
 2964WAT     H212577   7.443   0.287   7.287
 2964WAT    EPW12578   7.379   0.261   7.248
 2965WAT      O12579   6.941   0.235   7.217
 2965WAT     H112580   6.925   0.296   7.277
 2965WAT     H212581   6.994   0.179   7.257
 2965WAT    EPW12582   6.946   0.236   7.232
 2966WAT      O12583   7.302   0.508   6.869
 2966WAT     H112584   7.254   0.538   6.803
 2966WAT     H212585   7.266   0.430   6.887
 2966WAT    EPW12586   7.289   0.501   6.862
 2967WAT      O12587   6.701   0.280   6.726
 2967WAT     H112588   6.617   0.260   6.734
 2967WAT     H212589   6.734   0.263   6.805
 2967WAT    EPW12590   6.693   0.275   6.738
 2968WAT      O12591   6.376   0.953   5.814
 2968WAT     H112592   6.420   0.883   5.843
 2968WAT     H212593   6.397   1.015   5.871
 2968WAT    EPW12594   6.386   0.952   5.827
 2969WAT      O12595   6.086   0.249   6.957
 2969WAT     H112596   6.158   0.298   6.953
 2969WAT     H212597   6.059   0.246   6.874
 2969WAT    EPW12598   6.093   0.256   6.944
 2970WAT      O12599   6.026   0.354   7.385
 2970WAT     H112600   5.983   0.303   7.329
 2970WAT     H212601   5.990   0.433   7.371
 2970WAT    EPW12602   6.014   0.358   7.375
 2971WAT      O12603   7.294   0.633   5.976
 2971WAT     H112604   7.327   0.552   5.980
 2971WAT     H212605   7.218   0.626   6.019
 2971WAT    EPW12606   7.288   0.620   5.983
 2972WAT      O12607   7.031   0.420   5.916
 2972WAT     H112608   7.100   0.369   5.899
 2972WAT     H212609   6.990   0.425   5.840
 2972WAT    EPW12610   7.035   0.414   5.903
 2973WAT      O12611   6.499   0.535   7.047
 2973WAT     H112612   6.470   0.595   7.103
 2973WAT     H212613   6.505   0.580   6.972
 2973WAT    EPW12614   6.496   0.551   7.044
 2974WAT      O12615   6.297   0.430   7.387
 2974WAT     H112616   6.217   0.401   7.403
 2974WAT     H212617   6.288   0.517   7.387
 2974WAT    EPW12618   6.284   0.439   7.389
 2975WAT      O12619   6.751   0.178   6.996
 2975WAT     H112620   6.799   0.215   7.059
 2975WAT     H212621   6.669   0.191   7.022
 2975WAT    EPW12622   6.746   0.185   7.009
 2976WAT      O12623   6.677   0.917   6.519
 2976WAT     H112624   6.732   0.985   6.524
 2976WAT     H212625   6.642   0.925   6.439
 2976WAT    EPW12626   6.680   0.928   6.508
 2977WAT      O12627   6.496   0.740   6.858
 2977WAT     H112628   6.433   0.798   6.839
 2977WAT     H212629   6.521   0.711   6.779
 2977WAT    EPW12630   6.490   0.744   6.843
 2978WAT      O12631   6.927   0.403   7.556
 2978WAT     H112632   7.002   0.432   7.524
 2978WAT     H212633   6.872   0.408   7.489
 2978WAT    EPW12634   6.930   0.408   7.542
 2979WAT      O12635   7.318   0.658   7.407
 2979WAT     H112636   7.352   0.685   7.482
 2979WAT     H212637   7.347   0.716   7.349
 2979WAT    EPW12638   7.327   0.671   7.409
 2980WAT      O12639   6.655   0.217   5.849
 2980WAT     H112640   6.575   0.200   5.821
 2980WAT     H212641   6.652   0.303   5.868
 2980WAT    EPW12642   6.643   0.227   5.848
 2981WAT      O12643   6.761   0.905   7.446
 2981WAT     H112644   6.809   0.845   7.404
 2981WAT     H212645   6.726   0.860   7.512
 2981WAT    EPW12646   6.763   0.889   7.449
 2982WAT      O12647   7.420   0.235   6.264
 2982WAT     H112648   7.467   0.163   6.259
 2982WAT     H212649   7.338   0.207   6.256
 2982WAT    EPW12650   7.415   0.220   6.262
 2983WAT      O12651   6.767   0.427   7.348
 2983WAT     H112652   6.687   0.420   7.383
 2983WAT     H212653   6.774   0.511   7.328
 2983WAT    EPW12654   6.756   0.438   7.350
 2984WAT      O12655   6.350   1.047   6.879
 2984WAT     H112656   6.351   1.053   6.966
 2984WAT     H212657   6.307   0.973   6.864
 2984WAT    EPW12658   6.344   1.037   6.890
 2985WAT      O12659   7.041   0.352   6.499
 2985WAT     H112660   7.049   0.386   6.579
 2985WAT     H212661   7.058   0.267   6.511
 2985WAT    EPW12662   7.045   0.345   6.513
 2986WAT      O12663   6.794   0.280   6.456
 2986WAT     H112664   6.764   0.248   6.531
 2986WAT     H212665   6.863   0.327   6.479
 2986WAT    EPW12666   6.800   0.282   6.470
 2987WAT      O12667   6.816   0.691   7.258
 2987WAT     H112668   6.885   0.680   7.311
 2987WAT     H212669   6.829   0.770   7.224
 2987WAT    EPW12670   6.828   0.701   7.261
 2988WAT      O12671   6.026   0.997   7.423
 2988WAT     H112672   5.961   0.940   7.433
 2988WAT     H212673   5.989   1.074   7.439
 2988WAT    EPW12674   6.011   1.000   7.427
 2989WAT      O12675   7.187   0.975   6.709
 2989WAT     H112676   7.141   1.039   6.747
 2989WAT     H212677   7.257   0.967   6.759
 2989WAT    EPW12678   7.190   0.983   6.722
 2990WAT      O12679   6.857   0.484   7.002
 2990WAT     H112680   6.787   0.524   7.036
 2990WAT     H212681   6.924   0.527   7.036
 2990WAT    EPW12682   6.856   0.496   7.012
 2991WAT      O12683   6.889   0.643   6.319
 2991WAT     H112684   6.868   0.727   6.303
 2991WAT     H212685   6.811   0.605   6.331
 2991WAT    EPW12686   6.874   0.650   6.318
 2992WAT      O12687   6.425   0.669   5.959
 2992WAT     H112688   6.469   0.677   6.034
 2992WAT     H212689   6.345   0.648   5.985
 2992WAT    EPW12690   6.420   0.667   5.974
 2993WAT      O12691   7.316   0.847   6.317
 2993WAT     H112692   7.298   0.781   6.372
 2993WAT     H212693   7.387   0.819   6.275
 2993WAT    EPW12694   7.324   0.833   6.319
 2994WAT      O12695   6.158   0.576   6.020
 2994WAT     H112696   6.134   0.546   6.098
 2994WAT     H212697   6.155   0.506   5.968
 2994WAT    EPW12698   6.154   0.562   6.023
 2995WAT      O12699   6.440   0.401   5.894
 2995WAT     H112700   6.358   0.374   5.908
 2995WAT     H212701   6.437   0.486   5.912
 2995WAT    EPW12702   6.427   0.410   5.899
 2996WAT      O12703   7.083   0.592   7.086
 2996WAT     H112704   7.104   0.622   7.165
 2996WAT     H212705   7.077   0.664   7.037
 2996WAT    EPW12706   7.085   0.607   7.090
 2997WAT      O12707   7.037   1.013   7.511
 2997WAT     H112708   6.961   1.011   7.466
 2997WAT     H212709   7.054   1.098   7.519
 2997WAT    EPW12710   7.028   1.026   7.505
 2998WAT      O12711   7.565   0.456   7.032
 2998WAT     H112712   7.561   0.370   7.018
 2998WAT     H212713   7.495   0.486   6.988
 2998WAT    EPW12714   7.554   0.447   7.023
 2999WAT      O12715   6.404   0.976   7.452
 2999WAT     H112716   6.408   0.988   7.539
 2999WAT     H212717   6.469   0.920   7.437
 2999WAT    EPW12718   6.414   0.969   7.463
 3000WAT      O12719   7.375   0.782   6.911
 3000WAT     H112720   7.428   0.773   6.842
 3000WAT     H212721   7.336   0.704   6.917
 3000WAT    EPW12722   7.377   0.769   6.902
 3001WAT      O12723   6.163   0.814   7.588
 3001WAT     H112724   6.223   0.857   7.636
 3001WAT     H212725   6.127   0.876   7.539
 3001WAT    EPW12726   6.167   0.829   7.588
 3002WAT      O12727   5.956   0.613   7.281
 3002WAT     H112728   5.899   0.654   7.332
 3002WAT     H212729   6.029   0.659   7.291
 3002WAT    EPW12730   5.958   0.626   7.290
 3003WAT      O12731   6.135   0.939   6.159
 3003WAT     H112732   6.120   0.955   6.074
 3003WAT     H212733   6.221   0.947   6.167
 3003WAT    EPW12734   6.145   0.943   6.147
 3004WAT      O12735   6.551   0.179   6.132
 3004WAT     H112736   6.561   0.193   6.046
 3004WAT     H212737   6.633   0.173   6.161
 3004WAT    EPW12738   6.565   0.180   6.123
 3005WAT      O12739   7.467   0.986   5.880
 3005WAT     H112740   7.531   0.972   5.938
 3005WAT     H212741   7.433   0.906   5.868
 3005WAT    EPW12742   7.472   0.972   5.886
 3006WAT      O12743   7.487   0.227   7.553
 3006WAT     H112744   7.550   0.210   7.610
 3006WAT     H212745   7.528   0.268   7.488
 3006WAT    EPW12746   7.502   0.231   7.552
 3007WAT      O12747   7.075   0.612   6.112
 3007WAT     H112748   7.050   0.599   6.194
 3007WAT     H212749   7.043   0.543   6.070
 3007WAT    EPW12750   7.066   0.600   6.118
 3008WAT      O12751   7.228   0.238   7.688
 3008WAT     H112752   7.315   0.235   7.685
 3008WAT     H212753   7.206   0.280   7.615
 3008WAT    EPW12754   7.238   0.244   7.677
 3009WAT      O12755   6.203   0.821   6.806
 3009WAT     H112756   6.195   0.740   6.775
 3009WAT     H212757   6.159   0.870   6.749
 3009WAT    EPW12758   6.196   0.816   6.793
 3010WAT      O12759   6.763   0.433   6.055
 3010WAT     H112760   6.835   0.398   6.019
 3010WAT     H212761   6.760   0.513   6.020
 3010WAT    EPW12762   6.773   0.440   6.044
 3011WAT      O12763   5.960   1.045   7.165
 3011WAT     H112764   6.010   1.040   7.236
 3011WAT     H212765   5.979   0.972   7.121
 3011WAT    EPW12766   5.971   1.034   7.169
 3012WAT      O12767   5.872   0.403   4.491
 3012WAT     H112768   5.828   0.414   4.566
 3012WAT     H212769   5.844   0.325   4.463
 3012WAT    EPW12770   5.861   0.393   4.498
 3013WAT      O12771   7.500   0.733   4.243
 3013WAT     H112772   7.570   0.681   4.242
 3013WAT     H212773   7.441   0.688   4.196
 3013WAT    EPW12774   7.501   0.718   4.236
 3014WAT      O12775   6.160   0.308   4.009
 3014WAT     H112776   6.121   0.271   3.941
 3014WAT     H212777   6.152   0.248   4.072
 3014WAT    EPW12778   6.153   0.294   4.008
 3015WAT      O12779   6.123   0.472   4.399
 3015WAT     H112780   6.184   0.455   4.460
 3015WAT     H212781   6.048   0.458   4.441
 3015WAT    EPW12782   6.121   0.468   4.414
 3016WAT      O12783   6.012   0.781   4.007
 3016WAT     H112784   6.059   0.790   3.934
 3016WAT     H212785   6.058   0.723   4.054
 3016WAT    EPW12786   6.026   0.774   4.003
 3017WAT      O12787   5.866   0.676   5.117
 3017WAT     H112788   5.879   0.648   5.198
 3017WAT     H212789   5.805   0.622   5.086
 3017WAT    EPW12790   5.859   0.664   5.124
 3018WAT      O12791   6.523   0.429   5.624
 3018WAT     H112792   6.500   0.428   5.708
 3018WAT     H212793   6.449   0.414   5.581
 3018WAT    EPW12794   6.509   0.426   5.630
 3019WAT      O12795   6.522   0.748   5.350
 3019WAT     H112796   6.535   0.824   5.309
 3019WAT     H212797   6.601   0.711   5.353
 3019WAT    EPW12798   6.535   0.754   5.344
 3020WAT      O12799   6.631   0.536   4.800
 3020WAT     H112800   6.666   0.456   4.803
 3020WAT     H212801   6.698   0.587   4.775
 3020WAT    EPW12802   6.646   0.532   4.797
 3021WAT      O12803   6.637   0.481   4.421
 3021WAT     H112804   6.670   0.417   4.470
 3021WAT     H212805   6.661   0.460   4.340
 3021WAT    EPW12806   6.645   0.469   4.417
 3022WAT      O12807   5.847   0.875   4.628
 3022WAT     H112808   5.788   0.931   4.597
 3022WAT     H212809   5.890   0.848   4.557
 3022WAT    EPW12810   5.845   0.879   4.613
 3023WAT      O12811   6.431   0.660   4.376
 3023WAT     H112812   6.373   0.632   4.436
 3023WAT     H212813   6.494   0.599   4.379
 3023WAT    EPW12814   6.432   0.647   4.385
 3024WAT      O12815   7.046   0.888   4.129
 3024WAT     H112816   7.118   0.936   4.139
 3024WAT     H212817   7.068   0.809   4.157
 3024WAT    EPW12818   7.060   0.884   4.134
 3025WAT      O12819   6.862   0.928   4.328
 3025WAT     H112820   6.884   0.980   4.394
 3025WAT     H212821   6.939   0.910   4.290
 3025WAT    EPW12822   6.877   0.933   4.332
 3026WAT      O12823   6.002   0.742   4.421
 3026WAT     H112824   6.067   0.685   4.423
 3026WAT     H212825   6.041   0.817   4.399
 3026WAT    EPW12826   6.017   0.745   4.418
 3027WAT      O12827   7.106   0.929   5.158
 3027WAT     H112828   7.181   0.974   5.157
 3027WAT     H212829   7.094   0.907   5.074
 3027WAT    EPW12830   7.115   0.932   5.146
 3028WAT      O12831   6.084   0.591   4.771
 3028WAT     H112832   6.126   0.555   4.704
 3028WAT     H212833   6.116   0.549   4.841
 3028WAT    EPW12834   6.095   0.579   4.772
 3029WAT      O12835   6.407   0.876   4.701
 3029WAT     H112836   6.491   0.887   4.682
 3029WAT     H212837   6.377   0.958   4.708
 3029WAT    EPW12838   6.415   0.890   4.699
 3030WAT      O12839   7.264   1.047   4.169
 3030WAT     H112840   7.330   1.032   4.114
 3030WAT     H212841   7.300   1.039   4.248
 3030WAT    EPW12842   7.279   1.044   4.172
 3031WAT      O12843   6.306   0.998   5.275
 3031WAT     H112844   6.336   0.991   5.357
 3031WAT     H212845   6.244   0.938   5.271
 3031WAT    EPW12846   6.302   0.988   5.287
 3032WAT      O12847   7.032   0.647   5.528
 3032WAT     H112848   7.028   0.685   5.607
 3032WAT     H212849   7.117   0.643   5.511
 3032WAT    EPW12850   7.044   0.652   5.538
 3033WAT      O12851   6.745   0.667   4.003
 3033WAT     H112852   6.727   0.721   4.069
 3033WAT     H212853   6.822   0.696   3.973
 3033WAT    EPW12854   6.754   0.679   4.009
 3034WAT      O12855   6.106   0.814   5.187
 3034WAT     H112856   6.036   0.763   5.200
 3034WAT     H212857   6.132   0.794   5.106
 3034WAT    EPW12858   6.099   0.804   5.177
 3035WAT      O12859   6.877   0.964   5.278
 3035WAT     H112860   6.954   0.956   5.238
 3035WAT     H212861   6.819   0.951   5.214
 3035WAT    EPW12862   6.880   0.961   5.263
 3036WAT      O12863   7.505   1.024   4.568
 3036WAT     H112864   7.459   1.096   4.588
 3036WAT     H212865   7.443   0.967   4.544
 3036WAT    EPW12866   7.489   1.026   4.568
 3037WAT      O12867   7.204   0.608   4.523
 3037WAT     H112868   7.274   0.560   4.542
 3037WAT     H212869   7.138   0.551   4.527
 3037WAT    EPW12870   7.205   0.593   4.526
 3038WAT      O12871   6.242   0.699   5.444
 3038WAT     H112872   6.326   0.706   5.422
 3038WAT     H212873   6.238   0.739   5.522
 3038WAT    EPW12874   6.254   0.706   5.452
 3039WAT      O12875   6.438   0.250   4.919
 3039WAT     H112876   6.455   0.229   5.002
 3039WAT     H212877   6.373   0.197   4.897
 3039WAT    EPW12878   6.431   0.239   4.928
 3040WAT      O12879   6.513   0.244   5.178
 3040WAT     H112880   6.518   0.329   5.198
 3040WAT     H212881   6.485   0.207   5.252
 3040WAT    EPW12882   6.510   0.251   5.192
 3041WAT      O12883   7.131   0.314   5.091
 3041WAT     H112884   7.079   0.273   5.148
 3041WAT     H212885   7.118   0.398   5.109
 3041WAT    EPW12886   7.121   0.320   5.102
 3042WAT      O12887   5.795   0.681   5.799
 3042WAT     H112888   5.871   0.716   5.825
 3042WAT     H212889   5.813   0.596   5.793
 3042WAT    EPW12890   5.809   0.674   5.802
 3043WAT      O12891   7.456   0.358   4.104
 3043WAT     H112892   7.468   0.329   4.185
 3043WAT     H212893   7.537   0.360   4.071
 3043WAT    EPW12894   7.470   0.354   4.111
 3044WAT      O12895   6.170   0.331   4.637
 3044WAT     H112896   6.255   0.323   4.619
 3044WAT     H212897   6.134   0.263   4.595
 3044WAT    EPW12898   6.177   0.320   4.628
 3045WAT      O12899   6.046   1.003   4.760
 3045WAT     H112900   5.979   0.954   4.736
 3045WAT     H212901   6.087   1.022   4.685
 3045WAT    EPW12902   6.042   0.999   4.746
 3046WAT      O12903   6.407   0.332   4.460
 3046WAT     H112904   6.478   0.381   4.469
 3046WAT     H212905   6.429   0.275   4.398
 3046WAT    EPW12906   6.420   0.330   4.452
 3047WAT      O12907   5.822   0.496   4.792
 3047WAT     H112908   5.755   0.545   4.820
 3047WAT     H212909   5.890   0.550   4.795
 3047WAT    EPW12910   5.822   0.511   4.797
 3048WAT      O12911   6.859   0.702   4.693
 3048WAT     H112912   6.807   0.765   4.664
 3048WAT     H212913   6.890   0.665   4.620
 3048WAT    EPW12914   6.856   0.706   4.678
 3049WAT      O12915   5.846   0.581   4.260
 3049WAT     H112916   5.901   0.638   4.296
 3049WAT     H212917   5.823   0.529   4.326
 3049WAT    EPW12918   5.851   0.581   4.275
 3050WAT      O12919   6.266   0.481   4.969
 3050WAT     H112920   6.313   0.510   5.037
 3050WAT     H212921   6.324   0.433   4.923
 3050WAT    EPW12922   6.282   0.478   4.972
 3051WAT      O12923   5.829   0.426   4.023
 3051WAT     H112924   5.905   0.382   4.029
 3051WAT     H212925   5.830   0.479   4.092
 3051WAT    EPW12926   5.840   0.427   4.034
 3052WAT      O12927   5.923   0.248   4.823
 3052WAT     H112928   5.966   0.235   4.749
 3052WAT     H212929   5.902   0.332   4.821
 3052WAT    EPW12930   5.926   0.258   4.812
 3053WAT      O12931   7.463   0.847   5.338
 3053WAT     H112932   7.396   0.898   5.360
 3053WAT     H212933   7.469   0.857   5.252
 3053WAT    EPW12934   7.454   0.856   5.328
 3054WAT      O12935   6.331   0.599   4.651
 3054WAT     H112936   6.344   0.684   4.670
 3054WAT     H212937   6.398   0.559   4.691
 3054WAT    EPW12938   6.343   0.606   4.660
 3055WAT      O12939   6.663   0.922   5.098
 3055WAT     H112940   6.635   0.858   5.045
 3055WAT     H212941   6.642   0.994   5.054
 3055WAT    EPW12942   6.655   0.923   5.083
 3056WAT      O12943   7.193   0.400   5.540
 3056WAT     H112944   7.241   0.472   5.550
 3056WAT     H212945   7.232   0.357   5.475
 3056WAT    EPW12946   7.206   0.404   5.532
 3057WAT      O12947   6.622   0.684   5.658
 3057WAT     H112948   6.658   0.667   5.735
 3057WAT     H212949   6.579   0.612   5.638
 3057WAT    EPW12950   6.621   0.671   5.666
 3058WAT      O12951   7.436   0.463   4.547
 3058WAT     H112952   7.471   0.428   4.619
 3058WAT     H212953   7.435   0.397   4.490
 3058WAT    EPW12954   7.441   0.448   4.549
 3059WAT      O12955   7.040   0.770   4.931
 3059WAT     H112956   6.980   0.740   4.876
 3059WAT     H212957   7.095   0.815   4.881
 3059WAT    EPW12958   7.039   0.772   4.916
 3060WAT      O12959   7.041   0.455   4.871
 3060WAT     H112960   6.962   0.477   4.899
 3060WAT     H212961   7.067   0.395   4.930
 3060WAT    EPW12962   7.033   0.449   4.884
 3061WAT      O12963   6.431   0.936   4.316
 3061WAT     H112964   6.416   0.858   4.353
 3061WAT     H212965   6.500   0.921   4.265
 3061WAT    EPW12966   6.439   0.922   4.314
 3062WAT      O12967   6.660   0.888   4.156
 3062WAT     H112968   6.722   0.904   4.215
 3062WAT     H212969   6.663   0.957   4.103
 3062WAT    EPW12970   6.670   0.900   4.157
 3063WAT      O12971   7.367   0.255   5.356
 3063WAT     H112972   7.373   0.267   5.270
 3063WAT     H212973   7.443   0.287   5.386
 3063WAT    EPW12974   7.379   0.261   5.348
 3064WAT      O12975   6.987   0.789   5.784
 3064WAT     H112976   7.003   0.818   5.865
 3064WAT     H212977   7.013   0.856   5.733
 3064WAT    EPW12978   6.993   0.803   5.788
 3065WAT      O12979   6.941   0.235   5.316
 3065WAT     H112980   6.925   0.296   5.376
 3065WAT     H212981   6.994   0.179   5.357
 3065WAT    EPW12982   6.946   0.236   5.331
 3066WAT      O12983   7.302   0.508   4.969
 3066WAT     H112984   7.254   0.538   4.902
 3066WAT     H212985   7.266   0.430   4.987
 3066WAT    EPW12986   7.289   0.501   4.962
 3067WAT      O12987   6.701   0.280   4.825
 3067WAT     H112988   6.617   0.260   4.833
 3067WAT     H212989   6.734   0.263   4.904
 3067WAT    EPW12990   6.693   0.275   4.838
 3068WAT      O12991   6.376   0.953   3.914
 3068WAT     H112992   6.420   0.883   3.942
 3068WAT     H212993   6.397   1.015   3.971
 3068WAT    EPW12994   6.386   0.952   3.926
 3069WAT      O12995   6.086   0.249   5.057
 3069WAT     H112996   6.158   0.298   5.053
 3069WAT     H212997   6.059   0.246   4.974
 3069WAT    EPW12998   6.093   0.256   5.044
 3070WAT      O12999   6.026   0.354   5.484
 3070WAT     H113000   5.983   0.303   5.428
 3070WAT     H213001   5.990   0.433   5.470
 3070WAT    EPW13002   6.014   0.358   5.474
 3071WAT      O13003   7.294   0.633   4.075
 3071WAT     H113004   7.327   0.552   4.079
 3071WAT     H213005   7.218   0.626   4.118
 3071WAT    EPW13006   7.288   0.620   4.082
 3072WAT      O13007   7.031   0.420   4.016
 3072WAT     H113008   7.100   0.369   3.999
 3072WAT     H213009   6.990   0.425   3.939
 3072WAT    EPW13010   7.035   0.414   4.002
 3073WAT      O13011   6.499   0.535   5.146
 3073WAT     H113012   6.470   0.595   5.203
 3073WAT     H213013   6.505   0.580   5.071
 3073WAT    EPW13014   6.496   0.551   5.143
 3074WAT      O13015   6.297   0.430   5.486
 3074WAT     H113016   6.217   0.401   5.503
 3074WAT     H213017   6.288   0.517   5.487
 3074WAT    EPW13018   6.284   0.439   5.488
 3075WAT      O13019   6.751   0.178   5.095
 3075WAT     H113020   6.799   0.215   5.158
 3075WAT     H213021   6.669   0.191   5.121
 3075WAT    EPW13022   6.746   0.185   5.108
 3076WAT      O13023   6.677   0.917   4.618
 3076WAT     H113024   6.732   0.985   4.623
 3076WAT     H213025   6.642   0.925   4.539
 3076WAT    EPW13026   6.680   0.928   4.607
 3077WAT      O13027   6.496   0.740   4.957
 3077WAT     H113028   6.433   0.798   4.939
 3077WAT     H213029   6.521   0.711   4.878
 3077WAT    EPW13030   6.490   0.744   4.943
 3078WAT      O13031   6.927   0.403   5.656
 3078WAT     H113032   7.002   0.432   5.623
 3078WAT     H213033   6.872   0.408   5.588
 3078WAT    EPW13034   6.930   0.408   5.641
 3079WAT      O13035   7.318   0.658   5.506
 3079WAT     H113036   7.352   0.685   5.582
 3079WAT     H213037   7.347   0.716   5.448
 3079WAT    EPW13038   7.327   0.671   5.509
 3080WAT      O13039   6.655   0.217   3.948
 3080WAT     H113040   6.575   0.200   3.920
 3080WAT     H213041   6.652   0.303   3.968
 3080WAT    EPW13042   6.643   0.227   3.947
 3081WAT      O13043   6.761   0.905   5.545
 3081WAT     H113044   6.809   0.845   5.503
 3081WAT     H213045   6.726   0.860   5.611
 3081WAT    EPW13046   6.763   0.889   5.549
 3082WAT      O13047   7.420   0.235   4.363
 3082WAT     H113048   7.467   0.163   4.358
 3082WAT     H213049   7.338   0.207   4.355
 3082WAT    EPW13050   7.415   0.220   4.361
 3083WAT      O13051   6.767   0.427   5.447
 3083WAT     H113052   6.687   0.420   5.482
 3083WAT     H213053   6.774   0.511   5.427
 3083WAT    EPW13054   6.756   0.438   5.449
 3084WAT      O13055   6.350   1.047   4.979
 3084WAT     H113056   6.351   1.053   5.066
 3084WAT     H213057   6.307   0.973   4.964
 3084WAT    EPW13058   6.344   1.037   4.989
 3085WAT      O13059   7.041   0.352   4.599
 3085WAT     H113060   7.049   0.386   4.678
 3085WAT     H213061   7.058   0.267   4.611
 3085WAT    EPW13062   7.045   0.345   4.612
 3086WAT      O13063   6.794   0.280   4.555
 3086WAT     H113064   6.764   0.248   4.631
 3086WAT     H213065   6.863   0.327   4.579
 3086WAT    EPW13066   6.800   0.282   4.570
 3087WAT      O13067   6.816   0.691   5.358
 3087WAT     H113068   6.885   0.680   5.410
 3087WAT     H213069   6.829   0.770   5.323
 3087WAT    EPW13070   6.828   0.701   5.360
 3088WAT      O13071   6.026   0.997   5.523
 3088WAT     H113072   5.961   0.940   5.533
 3088WAT     H213073   5.989   1.074   5.538
 3088WAT    EPW13074   6.011   1.000   5.527
 3089WAT      O13075   7.187   0.975   4.808
 3089WAT     H113076   7.141   1.039   4.846
 3089WAT     H213077   7.257   0.967   4.859
 3089WAT    EPW13078   7.190   0.983   4.821
 3090WAT      O13079   6.857   0.484   5.101
 3090WAT     H113080   6.787   0.524   5.135
 3090WAT     H213081   6.924   0.527   5.135
 3090WAT    EPW13082   6.856   0.496   5.111
 3091WAT      O13083   7.394   0.743   5.759
 3091WAT     H113084   7.472   0.704   5.767
 3091WAT     H213085   7.347   0.710   5.825
 3091WAT    EPW13086   7.399   0.733   5.770
 3092WAT      O13087   6.889   0.643   4.418
 3092WAT     H113088   6.868   0.727   4.402
 3092WAT     H213089   6.811   0.605   4.430
 3092WAT    EPW13090   6.874   0.650   4.417
 3093WAT      O13091   6.425   0.669   4.059
 3093WAT     H113092   6.469   0.677   4.134
 3093WAT     H213093   6.345   0.648   4.085
 3093WAT    EPW13094   6.420   0.667   4.074
 3094WAT      O13095   7.316   0.847   4.416
 3094WAT     H113096   7.298   0.781   4.471
 3094WAT     H213097   7.387   0.819   4.374
 3094WAT    EPW13098   7.324   0.833   4.418
 3095WAT      O13099   6.158   0.576   4.119
 3095WAT     H113100   6.134   0.546   4.197
 3095WAT     H213101   6.155   0.506   4.067
 3095WAT    EPW13102   6.154   0.562   4.123
 3096WAT      O13103   6.440   0.401   3.993
 3096WAT     H113104   6.358   0.374   4.007
 3096WAT     H213105   6.437   0.486   4.012
 3096WAT    EPW13106   6.427   0.410   3.998
 3097WAT      O13107   7.083   0.592   5.185
 3097WAT     H113108   7.104   0.622   5.265
 3097WAT     H213109   7.077   0.664   5.137
 3097WAT    EPW13110   7.085   0.607   5.190
 3098WAT      O13111   7.037   1.013   5.610
 3098WAT     H113112   6.961   1.011   5.566
 3098WAT     H213113   7.054   1.098   5.618
 3098WAT    EPW13114   7.028   1.026   5.605
 3099WAT      O13115   7.565   0.456   5.131
 3099WAT     H113116   7.561   0.370   5.118
 3099WAT     H213117   7.495   0.486   5.088
 3099WAT    EPW13118   7.554   0.447   5.123
 3100WAT      O13119   6.404   0.976   5.552
 3100WAT     H113120   6.408   0.988   5.638
 3100WAT     H213121   6.469   0.920   5.536
 3100WAT    EPW13122   6.414   0.969   5.562
 3101WAT      O13123   7.375   0.782   5.011
 3101WAT     H113124   7.428   0.773   4.942
 3101WAT     H213125   7.336   0.704   5.016
 3101WAT    EPW13126   7.377   0.769   5.001
 3102WAT      O13127   6.163   0.814   5.688
 3102WAT     H113128   6.223   0.857   5.735
 3102WAT     H213129   6.127   0.876   5.639
 3102WAT    EPW13130   6.167   0.829   5.687
 3103WAT      O13131   5.956   0.613   5.381
 3103WAT     H113132   5.899   0.654   5.432
 3103WAT     H213133   6.029   0.659   5.390
 3103WAT    EPW13134   5.958   0.626   5.390
 3104WAT      O13135   6.135   0.939   4.258
 3104WAT     H113136   6.120   0.955   4.174
 3104WAT     H213137   6.221   0.947   4.266
 3104WAT    EPW13138   6.145   0.943   4.247
 3105WAT      O13139   6.551   0.179   4.231
 3105WAT     H113140   6.561   0.193   4.145
 3105WAT     H213141   6.633   0.173   4.261
 3105WAT    EPW13142   6.565   0.180   4.223
 3106WAT      O13143   7.467   0.986   3.979
 3106WAT     H113144   7.531   0.972   4.037
 3106WAT     H213145   7.433   0.906   3.967
 3106WAT    EPW13146   7.472   0.972   3.986
 3107WAT      O13147   7.487   0.227   5.652
 3107WAT     H113148   7.550   0.210   5.710
 3107WAT     H213149   7.528   0.268   5.587
 3107WAT    EPW13150   7.502   0.231   5.651
 3108WAT      O13151   7.075   0.612   4.211
 3108WAT     H113152   7.050   0.599   4.294
 3108WAT     H213153   7.043   0.543   4.169
 3108WAT    EPW13154   7.066   0.600   4.217
 3109WAT      O13155   7.228   0.238   5.788
 3109WAT     H113156   7.315   0.235   5.784
 3109WAT     H213157   7.206   0.280   5.715
 3109WAT    EPW13158   7.238   0.244   5.776
 3110WAT      O13159   6.203   0.821   4.906
 3110WAT     H113160   6.195   0.740   4.874
 3110WAT     H213161   6.159   0.870   4.849
 3110WAT    EPW13162   6.196   0.816   4.893
 3111WAT      O13163   6.763   0.433   4.154
 3111WAT     H113164   6.835   0.398   4.119
 3111WAT     H213165   6.760   0.513   4.119
 3111WAT    EPW13166   6.773   0.440   4.144
 3112WAT      O13167   5.960   1.045   5.264
 3112WAT     H113168   6.010   1.040   5.336
 3112WAT     H213169   5.979   0.972   5.220
 3112WAT    EPW13170   5.971   1.034   5.268
 3113WAT      O13171   5.872   0.403   2.591
 3113WAT     H113172   5.828   0.414   2.665
 3113WAT     H213173   5.844   0.325   2.562
 3113WAT    EPW13174   5.861   0.393   2.598
 3114WAT      O13175   7.500   0.733   2.342
 3114WAT     H113176   7.570   0.681   2.342
 3114WAT     H213177   7.441   0.688   2.295
 3114WAT    EPW13178   7.501   0.718   2.335
 3115WAT      O13179   6.160   0.308   2.109
 3115WAT     H113180   6.121   0.271   2.040
 3115WAT     H213181   6.152   0.248   2.172
 3115WAT    EPW13182   6.153   0.294   2.108
 3116WAT      O13183   6.123   0.472   2.499
 3116WAT     H113184   6.184   0.455   2.559
 3116WAT     H213185   6.048   0.458   2.541
 3116WAT    EPW13186   6.121   0.468   2.514
 3117WAT      O13187   6.012   0.781   2.106
 3117WAT     H113188   6.059   0.790   2.033
 3117WAT     H213189   6.058   0.723   2.153
 3117WAT    EPW13190   6.026   0.774   2.102
 3118WAT      O13191   5.866   0.676   3.216
 3118WAT     H113192   5.879   0.648   3.298
 3118WAT     H213193   5.805   0.622   3.185
 3118WAT    EPW13194   5.859   0.664   3.224
 3119WAT      O13195   6.523   0.429   3.723
 3119WAT     H113196   6.500   0.428   3.807
 3119WAT     H213197   6.449   0.414   3.681
 3119WAT    EPW13198   6.509   0.426   3.729
 3120WAT      O13199   6.522   0.748   3.449
 3120WAT     H113200   6.535   0.824   3.409
 3120WAT     H213201   6.601   0.711   3.452
 3120WAT    EPW13202   6.535   0.754   3.444
 3121WAT      O13203   6.631   0.536   2.900
 3121WAT     H113204   6.666   0.456   2.903
 3121WAT     H213205   6.698   0.587   2.874
 3121WAT    EPW13206   6.646   0.532   2.896
 3122WAT      O13207   6.637   0.481   2.521
 3122WAT     H113208   6.670   0.417   2.569
 3122WAT     H213209   6.661   0.460   2.440
 3122WAT    EPW13210   6.645   0.469   2.516
 3123WAT      O13211   5.847   0.875   2.728
 3123WAT     H113212   5.788   0.931   2.696
 3123WAT     H213213   5.890   0.848   2.657
 3123WAT    EPW13214   5.845   0.879   2.713
 3124WAT      O13215   6.431   0.660   2.476
 3124WAT     H113216   6.373   0.632   2.535
 3124WAT     H213217   6.494   0.599   2.478
 3124WAT    EPW13218   6.432   0.647   2.485
 3125WAT      O13219   7.046   0.888   2.228
 3125WAT     H113220   7.118   0.936   2.238
 3125WAT     H213221   7.068   0.809   2.256
 3125WAT    EPW13222   7.060   0.884   2.234
 3126WAT      O13223   6.862   0.928   2.427
 3126WAT     H113224   6.884   0.980   2.493
 3126WAT     H213225   6.939   0.910   2.389
 3126WAT    EPW13226   6.877   0.933   2.431
 3127WAT      O13227   6.002   0.742   2.521
 3127WAT     H113228   6.067   0.685   2.522
 3127WAT     H213229   6.041   0.817   2.499
 3127WAT    EPW13230   6.017   0.745   2.518
 3128WAT      O13231   7.106   0.929   3.257
 3128WAT     H113232   7.181   0.974   3.256
 3128WAT     H213233   7.094   0.907   3.174
 3128WAT    EPW13234   7.115   0.932   3.245
 3129WAT      O13235   6.084   0.591   2.871
 3129WAT     H113236   6.126   0.555   2.803
 3129WAT     H213237   6.116   0.549   2.940
 3129WAT    EPW13238   6.095   0.579   2.871
 3130WAT      O13239   6.407   0.876   2.800
 3130WAT     H113240   6.491   0.887   2.781
 3130WAT     H213241   6.377   0.958   2.807
 3130WAT    EPW13242   6.415   0.890   2.799
 3131WAT      O13243   7.264   1.047   2.268
 3131WAT     H113244   7.330   1.032   2.213
 3131WAT     H213245   7.300   1.039   2.347
 3131WAT    EPW13246   7.279   1.044   2.272
 3132WAT      O13247   6.306   0.998   3.374
 3132WAT     H113248   6.336   0.991   3.456
 3132WAT     H213249   6.244   0.938   3.370
 3132WAT    EPW13250   6.302   0.988   3.386
 3133WAT      O13251   7.032   0.647   3.628
 3133WAT     H113252   7.028   0.685   3.706
 3133WAT     H213253   7.117   0.643   3.611
 3133WAT    EPW13254   7.044   0.652   3.637
 3134WAT      O13255   6.745   0.667   2.103
 3134WAT     H113256   6.727   0.721   2.169
 3134WAT     H213257   6.822   0.696   2.073
 3134WAT    EPW13258   6.754   0.679   2.108
 3135WAT      O13259   6.106   0.814   3.287
 3135WAT     H113260   6.036   0.763   3.299
 3135WAT     H213261   6.132   0.794   3.206
 3135WAT    EPW13262   6.099   0.804   3.277
 3136WAT      O13263   6.877   0.964   3.378
 3136WAT     H113264   6.954   0.956   3.337
 3136WAT     H213265   6.819   0.951   3.314
 3136WAT    EPW13266   6.880   0.961   3.362
 3137WAT      O13267   7.505   1.024   2.668
 3137WAT     H113268   7.459   1.096   2.688
 3137WAT     H213269   7.443   0.967   2.644
 3137WAT    EPW13270   7.489   1.026   2.667
 3138WAT      O13271   7.204   0.608   2.622
 3138WAT     H113272   7.274   0.560   2.641
 3138WAT     H213273   7.138   0.551   2.627
 3138WAT    EPW13274   7.205   0.593   2.626
 3139WAT      O13275   6.242   0.699   3.543
 3139WAT     H113276   6.326   0.706   3.521
 3139WAT     H213277   6.238   0.739   3.621
 3139WAT    EPW13278   6.254   0.706   3.552
 3140WAT      O13279   6.438   0.250   3.018
 3140WAT     H113280   6.455   0.229   3.101
 3140WAT     H213281   6.373   0.197   2.997
 3140WAT    EPW13282   6.431   0.239   3.027
 3141WAT      O13283   6.513   0.244   3.277
 3141WAT     H113284   6.518   0.329   3.297
 3141WAT     H213285   6.485   0.207   3.351
 3141WAT    EPW13286   6.510   0.251   3.291
 3142WAT      O13287   7.131   0.314   3.190
 3142WAT     H113288   7.079   0.273   3.247
 3142WAT     H213289   7.118   0.398   3.208
 3142WAT    EPW13290   7.121   0.320   3.201
 3143WAT      O13291   5.795   0.681   3.898
 3143WAT     H113292   5.871   0.716   3.924
 3143WAT     H213293   5.813   0.596   3.893
 3143WAT    EPW13294   5.809   0.674   3.901
 3144WAT      O13295   7.456   0.358   2.203
 3144WAT     H113296   7.468   0.329   2.284
 3144WAT     H213297   7.537   0.360   2.170
 3144WAT    EPW13298   7.470   0.354   2.210
 3145WAT      O13299   6.170   0.331   2.736
 3145WAT     H113300   6.255   0.323   2.719
 3145WAT     H213301   6.134   0.263   2.695
 3145WAT    EPW13302   6.177   0.320   2.727
 3146WAT      O13303   6.046   1.003   2.860
 3146WAT     H113304   5.979   0.954   2.835
 3146WAT     H213305   6.087   1.022   2.785
 3146WAT    EPW13306   6.042   0.999   2.845
 3147WAT      O13307   6.407   0.332   2.560
 3147WAT     H113308   6.478   0.381   2.569
 3147WAT     H213309   6.429   0.275   2.497
 3147WAT    EPW13310   6.420   0.330   2.552
 3148WAT      O13311   5.822   0.496   2.892
 3148WAT     H113312   5.755   0.545   2.919
 3148WAT     H213313   5.890   0.550   2.894
 3148WAT    EPW13314   5.822   0.511   2.896
 3149WAT      O13315   6.859   0.702   2.792
 3149WAT     H113316   6.807   0.765   2.763
 3149WAT     H213317   6.890   0.665   2.719
 3149WAT    EPW13318   6.856   0.706   2.777
 3150WAT      O13319   5.846   0.581   2.359
 3150WAT     H113320   5.901   0.638   2.396
 3150WAT     H213321   5.823   0.529   2.426
 3150WAT    EPW13322   5.851   0.581   2.375
 3151WAT      O13323   6.266   0.481   3.068
 3151WAT     H113324   6.313   0.510   3.136
 3151WAT     H213325   6.324   0.433   3.023
 3151WAT    EPW13326   6.282   0.478   3.072
 3152WAT      O13327   5.829   0.426   2.122
 3152WAT     H113328   5.905   0.382   2.128
 3152WAT     H213329   5.830   0.479   2.191
 3152WAT    EPW13330   5.840   0.427   2.133
 3153WAT      O13331   5.923   0.248   2.923
 3153WAT     H113332   5.966   0.235   2.848
 3153WAT     H213333   5.902   0.332   2.920
 3153WAT    EPW13334   5.926   0.258   2.911
 3154WAT      O13335   7.463   0.847   3.437
 3154WAT     H113336   7.396   0.898   3.459
 3154WAT     H213337   7.469   0.857   3.351
 3154WAT    EPW13338   7.454   0.856   3.428
 3155WAT      O13339   6.331   0.599   2.751
 3155WAT     H113340   6.344   0.684   2.770
 3155WAT     H213341   6.398   0.559   2.790
 3155WAT    EPW13342   6.343   0.606   2.759
 3156WAT      O13343   6.663   0.922   3.197
 3156WAT     H113344   6.635   0.858   3.145
 3156WAT     H213345   6.642   0.994   3.153
 3156WAT    EPW13346   6.655   0.923   3.183
 3157WAT      O13347   7.193   0.400   3.639
 3157WAT     H113348   7.241   0.472   3.649
 3157WAT     H213349   7.232   0.357   3.574
 3157WAT    EPW13350   7.206   0.404   3.631
 3158WAT      O13351   6.622   0.684   3.757
 3158WAT     H113352   6.658   0.667   3.835
 3158WAT     H213353   6.579   0.612   3.737
 3158WAT    EPW13354   6.621   0.671   3.766
 3159WAT      O13355   7.436   0.463   2.646
 3159WAT     H113356   7.471   0.428   2.718
 3159WAT     H213357   7.435   0.397   2.589
 3159WAT    EPW13358   7.441   0.448   2.649
 3160WAT      O13359   7.040   0.770   3.031
 3160WAT     H113360   6.980   0.740   2.975
 3160WAT     H213361   7.095   0.815   2.980
 3160WAT    EPW13362   7.039   0.772   3.015
 3161WAT      O13363   7.041   0.455   2.971
 3161WAT     H113364   6.962   0.477   2.998
 3161WAT     H213365   7.067   0.395   3.029
 3161WAT    EPW13366   7.033   0.449   2.984
 3162WAT      O13367   6.431   0.936   2.416
 3162WAT     H113368   6.416   0.858   2.453
 3162WAT     H213369   6.500   0.921   2.364
 3162WAT    EPW13370   6.439   0.922   2.414
 3163WAT      O13371   6.660   0.888   2.256
 3163WAT     H113372   6.722   0.904   2.315
 3163WAT     H213373   6.663   0.957   2.203
 3163WAT    EPW13374   6.670   0.900   2.257
 3164WAT      O13375   7.367   0.255   3.455
 3164WAT     H113376   7.373   0.267   3.369
 3164WAT     H213377   7.443   0.287   3.486
 3164WAT    EPW13378   7.379   0.261   3.447
 3165WAT      O13379   6.987   0.789   3.883
 3165WAT     H113380   7.003   0.818   3.964
 3165WAT     H213381   7.013   0.856   3.833
 3165WAT    EPW13382   6.993   0.803   3.888
 3166WAT      O13383   6.941   0.235   3.415
 3166WAT     H113384   6.925   0.296   3.476
 3166WAT     H213385   6.994   0.179   3.456
 3166WAT    EPW13386   6.946   0.236   3.430
 3167WAT      O13387   7.302   0.508   3.068
 3167WAT     H113388   7.254   0.538   3.002
 3167WAT     H213389   7.266   0.430   3.086
 3167WAT    EPW13390   7.289   0.501   3.061
 3168WAT      O13391   6.701   0.280   2.924
 3168WAT     H113392   6.617   0.260   2.932
 3168WAT     H213393   6.734   0.263   3.004
 3168WAT    EPW13394   6.693   0.275   2.937
 3169WAT      O13395   6.376   0.953   2.013
 3169WAT     H113396   6.420   0.883   2.042
 3169WAT     H213397   6.397   1.015   2.070
 3169WAT    EPW13398   6.386   0.952   2.026
 3170WAT      O13399   6.086   0.249   3.156
 3170WAT     H113400   6.158   0.298   3.152
 3170WAT     H213401   6.059   0.246   3.073
 3170WAT    EPW13402   6.093   0.256   3.143
 3171WAT      O13403   6.026   0.354   3.584
 3171WAT     H113404   5.983   0.303   3.528
 3171WAT     H213405   5.990   0.433   3.569
 3171WAT    EPW13406   6.014   0.358   3.573
 3172WAT      O13407   7.294   0.633   2.175
 3172WAT     H113408   7.327   0.552   2.178
 3172WAT     H213409   7.218   0.626   2.218
 3172WAT    EPW13410   7.288   0.620   2.182
 3173WAT      O13411   7.031   0.420   2.115
 3173WAT     H113412   7.100   0.369   2.098
 3173WAT     H213413   6.990   0.425   2.039
 3173WAT    EPW13414   7.035   0.414   2.101
 3174WAT      O13415   6.499   0.535   3.246
 3174WAT     H113416   6.470   0.595   3.302
 3174WAT     H213417   6.505   0.580   3.171
 3174WAT    EPW13418   6.496   0.551   3.243
 3175WAT      O13419   6.297   0.430   3.585
 3175WAT     H113420   6.217   0.401   3.602
 3175WAT     H213421   6.288   0.517   3.586
 3175WAT    EPW13422   6.284   0.439   3.588
 3176WAT      O13423   6.751   0.178   3.195
 3176WAT     H113424   6.799   0.215   3.257
 3176WAT     H213425   6.669   0.191   3.221
 3176WAT    EPW13426   6.746   0.185   3.208
 3177WAT      O13427   6.677   0.917   2.717
 3177WAT     H113428   6.732   0.985   2.723
 3177WAT     H213429   6.642   0.925   2.638
 3177WAT    EPW13430   6.680   0.928   2.706
 3178WAT      O13431   6.496   0.740   3.056
 3178WAT     H113432   6.433   0.798   3.038
 3178WAT     H213433   6.521   0.711   2.978
 3178WAT    EPW13434   6.490   0.744   3.042
 3179WAT      O13435   6.927   0.403   3.755
 3179WAT     H113436   7.002   0.432   3.723
 3179WAT     H213437   6.872   0.408   3.687
 3179WAT    EPW13438   6.930   0.408   3.740
 3180WAT      O13439   7.318   0.658   3.606
 3180WAT     H113440   7.352   0.685   3.681
 3180WAT     H213441   7.347   0.716   3.548
 3180WAT    EPW13442   7.327   0.671   3.608
 3181WAT      O13443   6.655   0.217   2.048
 3181WAT     H113444   6.575   0.200   2.019
 3181WAT     H213445   6.652   0.303   2.067
 3181WAT    EPW13446   6.643   0.227   2.047
 3182WAT      O13447   6.761   0.905   3.644
 3182WAT     H113448   6.809   0.845   3.603
 3182WAT     H213449   6.726   0.860   3.711
 3182WAT    EPW13450   6.763   0.889   3.648
 3183WAT      O13451   7.420   0.235   2.462
 3183WAT     H113452   7.467   0.163   2.458
 3183WAT     H213453   7.338   0.207   2.455
 3183WAT    EPW13454   7.415   0.220   2.461
 3184WAT      O13455   6.767   0.427   3.546
 3184WAT     H113456   6.687   0.420   3.581
 3184WAT     H213457   6.774   0.511   3.527
 3184WAT    EPW13458   6.756   0.438   3.549
 3185WAT      O13459   6.350   1.047   3.078
 3185WAT     H113460   6.351   1.053   3.165
 3185WAT     H213461   6.307   0.973   3.063
 3185WAT    EPW13462   6.344   1.037   3.089
 3186WAT      O13463   7.041   0.352   2.698
 3186WAT     H113464   7.049   0.386   2.778
 3186WAT     H213465   7.058   0.267   2.710
 3186WAT    EPW13466   7.045   0.345   2.712
 3187WAT      O13467   6.794   0.280   2.654
 3187WAT     H113468   6.764   0.248   2.730
 3187WAT     H213469   6.863   0.327   2.678
 3187WAT    EPW13470   6.800   0.282   2.669
 3188WAT      O13471   6.816   0.691   3.457
 3188WAT     H113472   6.885   0.680   3.510
 3188WAT     H213473   6.829   0.770   3.423
 3188WAT    EPW13474   6.828   0.701   3.460
 3189WAT      O13475   6.026   0.997   3.622
 3189WAT     H113476   5.961   0.940   3.632
 3189WAT     H213477   5.989   1.074   3.637
 3189WAT    EPW13478   6.011   1.000   3.626
 3190WAT      O13479   7.187   0.975   2.907
 3190WAT     H113480   7.141   1.039   2.945
 3190WAT     H213481   7.257   0.967   2.958
 3190WAT    EPW13482   7.190   0.983   2.921
 3191WAT      O13483   6.857   0.484   3.200
 3191WAT     H113484   6.787   0.524   3.235
 3191WAT     H213485   6.924   0.527   3.234
 3191WAT    EPW13486   6.856   0.496   3.211
 3192WAT      O13487   7.394   0.743   3.858
 3192WAT     H113488   7.472   0.704   3.867
 3192WAT     H213489   7.347   0.710   3.924
 3192WAT    EPW13490   7.399   0.733   3.869
 3193WAT      O13491   6.889   0.643   2.517
 3193WAT     H113492   6.868   0.727   2.501
 3193WAT     H213493   6.811   0.605   2.530
 3193WAT    EPW13494   6.874   0.650   2.517
 3194WAT      O13495   6.425   0.669   2.158
 3194WAT     H113496   6.469   0.677   2.233
 3194WAT     H213497   6.345   0.648   2.184
 3194WAT    EPW13498   6.420   0.667   2.173
 3195WAT      O13499   7.316   0.847   2.516
 3195WAT     H113500   7.298   0.781   2.571
 3195WAT     H213501   7.387   0.819   2.473
 3195WAT    EPW13502   7.324   0.833   2.518
 3196WAT      O13503   6.158   0.576   2.218
 3196WAT     H113504   6.134   0.546   2.296
 3196WAT     H213505   6.155   0.506   2.167
 3196WAT    EPW13506   6.154   0.562   2.222
 3197WAT      O13507   6.440   0.401   2.093
 3197WAT     H113508   6.358   0.374   2.107
 3197WAT     H213509   6.437   0.486   2.111
 3197WAT    EPW13510   6.427   0.410   2.097
 3198WAT      O13511   7.083   0.592   3.285
 3198WAT     H113512   7.104   0.622   3.364
 3198WAT     H213513   7.077   0.664   3.236
 3198WAT    EPW13514   7.085   0.607   3.289
 3199WAT      O13515   7.037   1.013   3.709
 3199WAT     H113516   6.961   1.011   3.665
 3199WAT     H213517   7.054   1.098   3.718
 3199WAT    EPW13518   7.028   1.026   3.704
 3200WAT      O13519   7.565   0.456   3.231
 3200WAT     H113520   7.561   0.370   3.217
 3200WAT     H213521   7.495   0.486   3.187
 3200WAT    EPW13522   7.554   0.447   3.222
 3201WAT      O13523   6.404   0.976   3.651
 3201WAT     H113524   6.408   0.988   3.737
 3201WAT     H213525   6.469   0.920   3.636
 3201WAT    EPW13526   6.414   0.969   3.662
 3202WAT      O13527   7.375   0.782   3.110
 3202WAT     H113528   7.428   0.773   3.041
 3202WAT     H213529   7.336   0.704   3.116
 3202WAT    EPW13530   7.377   0.769   3.101
 3203WAT      O13531   6.163   0.814   3.787
 3203WAT     H113532   6.223   0.857   3.834
 3203WAT     H213533   6.127   0.876   3.738
 3203WAT    EPW13534   6.167   0.829   3.787
 3204WAT      O13535   5.956   0.613   3.480
 3204WAT     H113536   5.899   0.654   3.531
 3204WAT     H213537   6.029   0.659   3.490
 3204WAT    EPW13538   5.958   0.626   3.489
 3205WAT      O13539   6.135   0.939   2.358
 3205WAT     H113540   6.120   0.955   2.273
 3205WAT     H213541   6.221   0.947   2.365
 3205WAT    EPW13542   6.145   0.943   2.346
 3206WAT      O13543   6.551   0.179   2.330
 3206WAT     H113544   6.561   0.193   2.245
 3206WAT     H213545   6.633   0.173   2.360
 3206WAT    EPW13546   6.565   0.180   2.322
 3207WAT      O13547   7.467   0.986   2.078
 3207WAT     H113548   7.531   0.972   2.136
 3207WAT     H213549   7.433   0.906   2.067
 3207WAT    EPW13550   7.472   0.972   2.085
 3208WAT      O13551   7.487   0.227   3.752
 3208WAT     H113552   7.550   0.210   3.809
 3208WAT     H213553   7.528   0.268   3.686
 3208WAT    EPW13554   7.502   0.231   3.751
 3209WAT      O13555   7.075   0.612   2.311
 3209WAT     H113556   7.050   0.599   2.393
 3209WAT     H213557   7.043   0.543   2.268
 3209WAT    EPW13558   7.066   0.600   2.317
 3210WAT      O13559   7.228   0.238   3.887
 3210WAT     H113560   7.315   0.235   3.884
 3210WAT     H213561   7.206   0.280   3.814
 3210WAT    EPW13562   7.238   0.244   3.876
 3211WAT      O13563   6.203   0.821   3.005
 3211WAT     H113564   6.195   0.740   2.974
 3211WAT     H213565   6.159   0.870   2.948
 3211WAT    EPW13566   6.196   0.816   2.992
 3212WAT      O13567   6.763   0.433   2.254
 3212WAT     H113568   6.835   0.398   2.218
 3212WAT     H213569   6.760   0.513   2.219
 3212WAT    EPW13570   6.773   0.440   2.243
 3213WAT      O13571   5.960   1.045   3.363
 3213WAT     H113572   6.010   1.040   3.435
 3213WAT     H213573   5.979   0.972   3.320
 3213WAT    EPW13574   5.971   1.034   3.368
 3214WAT      O13575   5.872   0.403   0.690
 3214WAT     H113576   5.828   0.414   0.764
 3214WAT     H213577   5.844   0.325   0.662
 3214WAT    EPW13578   5.861   0.393   0.697
 3215WAT      O13579   7.500   0.733   0.442
 3215WAT     H113580   7.570   0.681   0.441
 3215WAT     H213581   7.441   0.688   0.395
 3215WAT    EPW13582   7.501   0.718   0.435
 3216WAT      O13583   6.160   0.308   0.208
 3216WAT     H113584   6.121   0.271   0.139
 3216WAT     H213585   6.152   0.248   0.271
 3216WAT    EPW13586   6.153   0.294   0.207
 3217WAT      O13587   6.123   0.472   0.598
 3217WAT     H113588   6.184   0.455   0.658
 3217WAT     H213589   6.048   0.458   0.640
 3217WAT    EPW13590   6.121   0.468   0.613
 3218WAT      O13591   6.012   0.781   0.206
 3218WAT     H113592   6.059   0.790   0.133
 3218WAT     H213593   6.058   0.723   0.253
 3218WAT    EPW13594   6.026   0.774   0.202
 3219WAT      O13595   5.866   0.676   1.316
 3219WAT     H113596   5.879   0.648   1.397
 3219WAT     H213597   5.805   0.622   1.285
 3219WAT    EPW13598   5.859   0.664   1.323
 3220WAT      O13599   6.523   0.429   1.822
 3220WAT     H113600   6.500   0.428   1.906
 3220WAT     H213601   6.449   0.414   1.780
 3220WAT    EPW13602   6.509   0.426   1.828
 3221WAT      O13603   6.522   0.748   1.549
 3221WAT     H113604   6.535   0.824   1.508
 3221WAT     H213605   6.601   0.711   1.551
 3221WAT    EPW13606   6.535   0.754   1.543
 3222WAT      O13607   6.631   0.536   0.999
 3222WAT     H113608   6.666   0.456   1.002
 3222WAT     H213609   6.698   0.587   0.974
 3222WAT    EPW13610   6.646   0.532   0.996
 3223WAT      O13611   6.637   0.481   0.620
 3223WAT     H113612   6.670   0.417   0.669
 3223WAT     H213613   6.661   0.460   0.539
 3223WAT    EPW13614   6.645   0.469   0.615
 3224WAT      O13615   5.847   0.875   0.827
 3224WAT     H113616   5.788   0.931   0.796
 3224WAT     H213617   5.890   0.848   0.756
 3224WAT    EPW13618   5.845   0.879   0.812
 3225WAT      O13619   6.431   0.660   0.575
 3225WAT     H113620   6.373   0.632   0.634
 3225WAT     H213621   6.494   0.599   0.578
 3225WAT    EPW13622   6.432   0.647   0.584
 3226WAT      O13623   7.046   0.888   0.327
 3226WAT     H113624   7.118   0.936   0.338
 3226WAT     H213625   7.068   0.809   0.355
 3226WAT    EPW13626   7.060   0.884   0.333
 3227WAT      O13627   6.862   0.928   0.526
 3227WAT     H113628   6.884   0.980   0.593
 3227WAT     H213629   6.939   0.910   0.488
 3227WAT    EPW13630   6.877   0.933   0.531
 3228WAT      O13631   6.002   0.742   0.620
 3228WAT     H113632   6.067   0.685   0.622
 3228WAT     H213633   6.041   0.817   0.598
 3228WAT    EPW13634   6.017   0.745   0.617
 3229WAT      O13635   7.106   0.929   1.357
 3229WAT     H113636   7.181   0.974   1.356
 3229WAT     H213637   7.094   0.907   1.273
 3229WAT    EPW13638   7.115   0.932   1.344
 3230WAT      O13639   6.084   0.591   0.970
 3230WAT     H113640   6.126   0.555   0.903
 3230WAT     H213641   6.116   0.549   1.039
 3230WAT    EPW13642   6.095   0.579   0.971
 3231WAT      O13643   6.407   0.876   0.900
 3231WAT     H113644   6.491   0.887   0.880
 3231WAT     H213645   6.377   0.958   0.907
 3231WAT    EPW13646   6.415   0.890   0.898
 3232WAT      O13647   7.264   1.047   0.367
 3232WAT     H113648   7.330   1.032   0.313
 3232WAT     H213649   7.300   1.039   0.446
 3232WAT    EPW13650   7.279   1.044   0.371
 3233WAT      O13651   6.306   0.998   1.474
 3233WAT     H113652   6.336   0.991   1.556
 3233WAT     H213653   6.244   0.938   1.469
 3233WAT    EPW13654   6.302   0.988   1.485
 3234WAT      O13655   7.032   0.647   1.727
 3234WAT     H113656   7.028   0.685   1.806
 3234WAT     H213657   7.117   0.643   1.710
 3234WAT    EPW13658   7.044   0.652   1.736
 3235WAT      O13659   6.745   0.667   0.202
 3235WAT     H113660   6.727   0.721   0.268
 3235WAT     H213661   6.822   0.696   0.172
 3235WAT    EPW13662   6.754   0.679   0.208
 3236WAT      O13663   6.106   0.814   1.386
 3236WAT     H113664   6.036   0.763   1.399
 3236WAT     H213665   6.132   0.794   1.305
 3236WAT    EPW13666   6.099   0.804   1.376
 3237WAT      O13667   6.877   0.964   1.477
 3237WAT     H113668   6.954   0.956   1.436
 3237WAT     H213669   6.819   0.951   1.413
 3237WAT    EPW13670   6.880   0.961   1.462
 3238WAT      O13671   7.505   1.024   0.767
 3238WAT     H113672   7.459   1.096   0.787
 3238WAT     H213673   7.443   0.967   0.743
 3238WAT    EPW13674   7.489   1.026   0.767
 3239WAT      O13675   7.204   0.608   0.722
 3239WAT     H113676   7.274   0.560   0.740
 3239WAT     H213677   7.138   0.551   0.726
 3239WAT    EPW13678   7.205   0.593   0.725
 3240WAT      O13679   6.242   0.699   1.643
 3240WAT     H113680   6.326   0.706   1.621
 3240WAT     H213681   6.238   0.739   1.720
 3240WAT    EPW13682   6.254   0.706   1.651
 3241WAT      O13683   6.438   0.250   1.118
 3241WAT     H113684   6.455   0.229   1.201
 3241WAT     H213685   6.373   0.197   1.096
 3241WAT    EPW13686   6.431   0.239   1.127
 3242WAT      O13687   6.513   0.244   1.377
 3242WAT     H113688   6.518   0.329   1.397
 3242WAT     H213689   6.485   0.207   1.450
 3242WAT    EPW13690   6.510   0.251   1.390
 3243WAT      O13691   7.131   0.314   1.290
 3243WAT     H113692   7.079   0.273   1.347
 3243WAT     H213693   7.118   0.398   1.308
 3243WAT    EPW13694   7.121   0.320   1.301
 3244WAT      O13695   5.795   0.681   1.998
 3244WAT     H113696   5.871   0.716   2.024
 3244WAT     H213697   5.813   0.596   1.992
 3244WAT    EPW13698   5.809   0.674   2.001
 3245WAT      O13699   7.456   0.358   0.302
 3245WAT     H113700   7.468   0.329   0.384
 3245WAT     H213701   7.537   0.360   0.269
 3245WAT    EPW13702   7.470   0.354   0.310
 3246WAT      O13703   6.170   0.331   0.835
 3246WAT     H113704   6.255   0.323   0.818
 3246WAT     H213705   6.134   0.263   0.794
 3246WAT    EPW13706   6.177   0.320   0.827
 3247WAT      O13707   6.046   1.003   0.959
 3247WAT     H113708   5.979   0.954   0.935
 3247WAT     H213709   6.087   1.022   0.884
 3247WAT    EPW13710   6.042   0.999   0.944
 3248WAT      O13711   6.407   0.332   0.659
 3248WAT     H113712   6.478   0.381   0.668
 3248WAT     H213713   6.429   0.275   0.596
 3248WAT    EPW13714   6.420   0.330   0.651
 3249WAT      O13715   5.822   0.496   0.991
 3249WAT     H113716   5.755   0.545   1.019
 3249WAT     H213717   5.890   0.550   0.994
 3249WAT    EPW13718   5.822   0.511   0.995
 3250WAT      O13719   6.859   0.702   0.892
 3250WAT     H113720   6.807   0.765   0.862
 3250WAT     H213721   6.890   0.665   0.819
 3250WAT    EPW13722   6.856   0.706   0.877
 3251WAT      O13723   5.846   0.581   0.459
 3251WAT     H113724   5.901   0.638   0.495
 3251WAT     H213725   5.823   0.529   0.525
 3251WAT    EPW13726   5.851   0.581   0.474
 3252WAT      O13727   6.266   0.481   1.168
 3252WAT     H113728   6.313   0.510   1.235
 3252WAT     H213729   6.324   0.433   1.122
 3252WAT    EPW13730   6.282   0.478   1.171
 3253WAT      O13731   5.829   0.426   0.222
 3253WAT     H113732   5.905   0.382   0.227
 3253WAT     H213733   5.830   0.479   0.291
 3253WAT    EPW13734   5.840   0.427   0.233
 3254WAT      O13735   5.923   0.248   1.022
 3254WAT     H113736   5.966   0.235   0.947
 3254WAT     H213737   5.902   0.332   1.019
 3254WAT    EPW13738   5.926   0.258   1.011
 3255WAT      O13739   7.463   0.847   1.537
 3255WAT     H113740   7.396   0.898   1.559
 3255WAT     H213741   7.469   0.857   1.450
 3255WAT    EPW13742   7.454   0.856   1.527
 3256WAT      O13743   6.331   0.599   0.850
 3256WAT     H113744   6.344   0.684   0.869
 3256WAT     H213745   6.398   0.559   0.890
 3256WAT    EPW13746   6.343   0.606   0.859
 3257WAT      O13747   6.663   0.922   1.296
 3257WAT     H113748   6.635   0.858   1.244
 3257WAT     H213749   6.642   0.994   1.253
 3257WAT    EPW13750   6.655   0.923   1.282
 3258WAT      O13751   7.193   0.400   1.739
 3258WAT     H113752   7.241   0.472   1.749
 3258WAT     H213753   7.232   0.357   1.674
 3258WAT    EPW13754   7.206   0.404   1.731
 3259WAT      O13755   6.622   0.684   1.857
 3259WAT     H113756   6.658   0.667   1.934
 3259WAT     H213757   6.579   0.612   1.837
 3259WAT    EPW13758   6.621   0.671   1.865
 3260WAT      O13759   7.436   0.463   0.746
 3260WAT     H113760   7.471   0.428   0.817
 3260WAT     H213761   7.435   0.397   0.689
 3260WAT    EPW13762   7.441   0.448   0.748
 3261WAT      O13763   7.040   0.770   1.130
 3261WAT     H113764   6.980   0.740   1.075
 3261WAT     H213765   7.095   0.815   1.079
 3261WAT    EPW13766   7.039   0.772   1.114
 3262WAT      O13767   7.041   0.455   1.070
 3262WAT     H113768   6.962   0.477   1.098
 3262WAT     H213769   7.067   0.395   1.129
 3262WAT    EPW13770   7.033   0.449   1.083
 3263WAT      O13771   6.431   0.936   0.515
 3263WAT     H113772   6.416   0.858   0.552
 3263WAT     H213773   6.500   0.921   0.464
 3263WAT    EPW13774   6.439   0.922   0.513
 3264WAT      O13775   6.660   0.888   0.355
 3264WAT     H113776   6.722   0.904   0.414
 3264WAT     H213777   6.663   0.957   0.302
 3264WAT    EPW13778   6.670   0.900   0.356
 3265WAT      O13779   7.367   0.255   1.555
 3265WAT     H113780   7.373   0.267   1.469
 3265WAT     H213781   7.443   0.287   1.585
 3265WAT    EPW13782   7.379   0.261   1.547
 3266WAT      O13783   6.987   0.789   1.983
 3266WAT     H113784   7.003   0.818   2.063
 3266WAT     H213785   7.013   0.856   1.932
 3266WAT    EPW13786   6.993   0.803   1.987
 3267WAT      O13787   6.941   0.235   1.515
 3267WAT     H113788   6.925   0.296   1.575
 3267WAT     H213789   6.994   0.179   1.555
 3267WAT    EPW13790   6.946   0.236   1.530
 3268WAT      O13791   7.302   0.508   1.168
 3268WAT     H113792   7.254   0.538   1.101
 3268WAT     H213793   7.266   0.430   1.185
 3268WAT    EPW13794   7.289   0.501   1.160
 3269WAT      O13795   6.701   0.280   1.024
 3269WAT     H113796   6.617   0.260   1.032
 3269WAT     H213797   6.734   0.263   1.103
 3269WAT    EPW13798   6.693   0.275   1.037
 3270WAT      O13799   6.086   0.249   1.255
 3270WAT     H113800   6.158   0.298   1.252
 3270WAT     H213801   6.059   0.246   1.172
 3270WAT    EPW13802   6.093   0.256   1.243
 3271WAT      O13803   6.026   0.354   1.683
 3271WAT     H113804   5.983   0.303   1.627
 3271WAT     H213805   5.990   0.433   1.669
 3271WAT    EPW13806   6.014   0.358   1.673
 3272WAT      O13807   7.294   0.633   0.274
 3272WAT     H113808   7.327   0.552   0.278
 3272WAT     H213809   7.218   0.626   0.317
 3272WAT    EPW13810   7.288   0.620   0.281
 3273WAT      O13811   7.031   0.420   0.215
 3273WAT     H113812   7.100   0.369   0.198
 3273WAT     H213813   6.990   0.425   0.138
 3273WAT    EPW13814   7.035   0.414   0.201
 3274WAT      O13815   6.499   0.535   1.345
 3274WAT     H113816   6.470   0.595   1.402
 3274WAT     H213817   6.505   0.580   1.270
 3274WAT    EPW13818   6.496   0.551   1.342
 3275WAT      O13819   6.297   0.430   1.685
 3275WAT     H113820   6.217   0.401   1.701
 3275WAT     H213821   6.288   0.517   1.685
 3275WAT    EPW13822   6.284   0.439   1.687
 3276WAT      O13823   6.751   0.178   1.294
 3276WAT     H113824   6.799   0.215   1.357
 3276WAT     H213825   6.669   0.191   1.320
 3276WAT    EPW13826   6.746   0.185   1.307
 3277WAT      O13827   6.677   0.917   0.817
 3277WAT     H113828   6.732   0.985   0.822
 3277WAT     H213829   6.642   0.925   0.737
 3277WAT    EPW13830   6.680   0.928   0.806
 3278WAT      O13831   6.496   0.740   1.156
 3278WAT     H113832   6.433   0.798   1.138
 3278WAT     H213833   6.521   0.711   1.077
 3278WAT    EPW13834   6.490   0.744   1.141
 3279WAT      O13835   6.927   0.403   1.855
 3279WAT     H113836   7.002   0.432   1.822
 3279WAT     H213837   6.872   0.408   1.787
 3279WAT    EPW13838   6.930   0.408   1.840
 3280WAT      O13839   7.318   0.658   1.705
 3280WAT     H113840   7.352   0.685   1.780
 3280WAT     H213841   7.347   0.716   1.647
 3280WAT    EPW13842   7.327   0.671   1.708
 3281WAT      O13843   6.761   0.905   1.744
 3281WAT     H113844   6.809   0.845   1.702
 3281WAT     H213845   6.726   0.860   1.810
 3281WAT    EPW13846   6.763   0.889   1.747
 3282WAT      O13847   7.420   0.235   0.562
 3282WAT     H113848   7.467   0.163   0.557
 3282WAT     H213849   7.338   0.207   0.554
 3282WAT    EPW13850   7.415   0.220   0.560
 3283WAT      O13851   6.767   0.427   1.646
 3283WAT     H113852   6.687   0.420   1.681
 3283WAT     H213853   6.774   0.511   1.626
 3283WAT    EPW13854   6.756   0.438   1.648
 3284WAT      O13855   6.350   1.047   1.177
 3284WAT     H113856   6.351   1.053   1.264
 3284WAT     H213857   6.307   0.973   1.162
 3284WAT    EPW13858   6.344   1.037   1.188
 3285WAT      O13859   7.041   0.352   0.797
 3285WAT     H113860   7.049   0.386   0.877
 3285WAT     H213861   7.058   0.267   0.809
 3285WAT    EPW13862   7.045   0.345   0.811
 3286WAT      O13863   6.794   0.280   0.754
 3286WAT     H113864   6.764   0.248   0.830
 3286WAT     H213865   6.863   0.327   0.777
 3286WAT    EPW13866   6.800   0.282   0.769
 3287WAT      O13867   6.816   0.691   1.557
 3287WAT     H113868   6.885   0.680   1.609
 3287WAT     H213869   6.829   0.770   1.522
 3287WAT    EPW13870   6.828   0.701   1.559
 3288WAT      O13871   6.026   0.997   1.722
 3288WAT     H113872   5.961   0.940   1.731
 3288WAT     H213873   5.989   1.074   1.737
 3288WAT    EPW13874   6.011   1.000   1.725
 3289WAT      O13875   7.187   0.975   1.007
 3289WAT     H113876   7.141   1.039   1.045
 3289WAT     H213877   7.257   0.967   1.057
 3289WAT    EPW13878   7.190   0.983   1.020
 3290WAT      O13879   6.857   0.484   1.300
 3290WAT     H113880   6.787   0.524   1.334
 3290WAT     H213881   6.924   0.527   1.334
 3290WAT    EPW13882   6.856   0.496   1.310
 3291WAT      O13883   7.394   0.743   1.958
 3291WAT     H113884   7.472   0.704   1.966
 3291WAT     H213885   7.347   0.710   2.023
 3291WAT    EPW13886   7.399   0.733   1.969
 3292WAT      O13887   6.889   0.643   0.617
 3292WAT     H113888   6.868   0.727   0.601
 3292WAT     H213889   6.811   0.605   0.629
 3292WAT    EPW13890   6.874   0.650   0.616
 3293WAT      O13891   6.425   0.669   0.258
 3293WAT     H113892   6.469   0.677   0.332
 3293WAT     H213893   6.345   0.648   0.283
 3293WAT    EPW13894   6.420   0.667   0.273
 3294WAT      O13895   7.316   0.847   0.615
 3294WAT     H113896   7.298   0.781   0.670
 3294WAT     H213897   7.387   0.819   0.573
 3294WAT    EPW13898   7.324   0.833   0.617
 3295WAT      O13899   6.158   0.576   0.318
 3295WAT     H113900   6.134   0.546   0.396
 3295WAT     H213901   6.155   0.506   0.266
 3295WAT    EPW13902   6.154   0.562   0.322
 3296WAT      O13903   6.440   0.401   0.192
 3296WAT     H113904   6.358   0.374   0.206
 3296WAT     H213905   6.437   0.486   0.211
 3296WAT    EPW13906   6.427   0.410   0.197
 3297WAT      O13907   7.083   0.592   1.384
 3297WAT     H113908   7.104   0.622   1.463
 3297WAT     H213909   7.077   0.664   1.336
 3297WAT    EPW13910   7.085   0.607   1.389
 3298WAT      O13911   7.037   1.013   1.809
 3298WAT     H113912   6.961   1.011   1.765
 3298WAT     H213913   7.054   1.098   1.817
 3298WAT    EPW13914   7.028   1.026   1.803
 3299WAT      O13915   7.565   0.456   1.330
 3299WAT     H113916   7.561   0.370   1.316
 3299WAT     H213917   7.495   0.486   1.287
 3299WAT    EPW13918   7.554   0.447   1.322
 3300WAT      O13919   6.404   0.976   1.751
 3300WAT     H113920   6.408   0.988   1.837
 3300WAT     H213921   6.469   0.920   1.735
 3300WAT    EPW13922   6.414   0.969   1.761
 3301WAT      O13923   7.375   0.782   1.210
 3301WAT     H113924   7.428   0.773   1.141
 3301WAT     H213925   7.336   0.704   1.215
 3301WAT    EPW13926   7.377   0.769   1.200
 3302WAT      O13927   6.163   0.814   1.887
 3302WAT     H113928   6.223   0.857   1.934
 3302WAT     H213929   6.127   0.876   1.838
 3302WAT    EPW13930   6.167   0.829   1.886
 3303WAT      O13931   5.956   0.613   1.579
 3303WAT     H113932   5.899   0.654   1.630
 3303WAT     H213933   6.029   0.659   1.589
 3303WAT    EPW13934   5.958   0.626   1.588
 3304WAT      O13935   6.135   0.939   0.457
 3304WAT     H113936   6.120   0.955   0.372
 3304WAT     H213937   6.221   0.947   0.465
 3304WAT    EPW13938   6.145   0.943   0.446
 3305WAT      O13939   6.551   0.179   0.430
 3305WAT     H113940   6.561   0.193   0.344
 3305WAT     H213941   6.633   0.173   0.459
 3305WAT    EPW13942   6.565   0.180   0.421
 3306WAT      O13943   7.467   0.986   0.178
 3306WAT     H113944   7.531   0.972   0.236
 3306WAT     H213945   7.433   0.906   0.166
 3306WAT    EPW13946   7.472   0.972   0.185
 3307WAT      O13947   7.487   0.227   1.851
 3307WAT     H113948   7.550   0.210   1.908
 3307WAT     H213949   7.528   0.268   1.786
 3307WAT    EPW13950   7.502   0.231   1.850
 3308WAT      O13951   7.075   0.612   0.410
 3308WAT     H113952   7.050   0.599   0.493
 3308WAT     H213953   7.043   0.543   0.368
 3308WAT    EPW13954   7.066   0.600   0.416
 3309WAT      O13955   7.228   0.238   1.987
 3309WAT     H113956   7.315   0.235   1.983
 3309WAT     H213957   7.206   0.280   1.913
 3309WAT    EPW13958   7.238   0.244   1.975
 3310WAT      O13959   6.203   0.821   1.105
 3310WAT     H113960   6.195   0.740   1.073
 3310WAT     H213961   6.159   0.870   1.047
 3310WAT    EPW13962   6.196   0.816   1.092
 3311WAT      O13963   6.763   0.433   0.353
 3311WAT     H113964   6.835   0.398   0.317
 3311WAT     H213965   6.760   0.513   0.318
 3311WAT    EPW13966   6.773   0.440   0.343
 3312WAT      O13967   5.960   1.045   1.463
 3312WAT     H113968   6.010   1.040   1.535
 3312WAT     H213969   5.979   0.972   1.419
 3312WAT    EPW13970   5.971   1.034   1.467
 3313WAT      O13971   5.018   6.688   6.379
 3313WAT     H113972   4.993   6.737   6.311
 3313WAT     H213973   5.104   6.681   6.369
 3313WAT    EPW13974   5.027   6.694   6.368
 3314WAT      O13975   4.999   7.380   6.846
 3314WAT     H113976   4.946   7.439   6.883
 3314WAT     H213977   5.038   7.343   6.915
 3314WAT    EPW13978   4.997   7.383   6.862
 3315WAT      O13979   3.960   7.173   6.043
 3315WAT     H113980   3.882   7.189   6.007
 3315WAT     H213981   3.964   7.086   6.045
 3315WAT    EPW13982   3.949   7.162   6.038
 3316WAT      O13983   5.266   7.486   6.514
 3316WAT     H113984   5.274   7.487   6.427
 3316WAT     H213985   5.207   7.423   6.529
 3316WAT    EPW13986   5.258   7.477   6.503
 3317WAT      O13987   4.665   6.797   6.295
 3317WAT     H113988   4.658   6.865   6.240
 3317WAT     H213989   4.739   6.758   6.270
 3317WAT    EPW13990   4.675   6.801   6.283
 3318WAT      O13991   4.124   7.519   6.438
 3318WAT     H113992   4.078   7.480   6.375
 3318WAT     H213993   4.194   7.468   6.447
 3318WAT    EPW13994   4.128   7.506   6.430
 3319WAT      O13995   4.575   7.080   6.972
 3319WAT     H113996   4.643   7.082   6.917
 3319WAT     H213997   4.570   6.997   6.997
 3319WAT    EPW13998   4.584   7.068   6.968
 3320WAT      O13999   4.324   7.329   6.440
 3320WAT     H114000   4.406   7.311   6.464
 3320WAT     H214001   4.277   7.268   6.480
 3320WAT    EPW14002   4.329   7.318   6.449
 3321WAT      O14003   4.947   7.285   7.456
 3321WAT     H114004   4.862   7.276   7.438
 3321WAT     H214005   4.950   7.360   7.501
 3321WAT    EPW14006   4.935   7.295   7.460
 3322WAT      O14007   4.384   6.839   6.367
 3322WAT     H114008   4.354   6.889   6.302
 3322WAT     H214009   4.471   6.847   6.361
 3322WAT    EPW14010   4.392   6.847   6.356
 3323WAT      O14011   5.403   6.581   7.367
 3323WAT     H114012   5.387   6.658   7.329
 3323WAT     H214013   5.326   6.559   7.402
 3323WAT    EPW14014   5.389   6.590   7.367
 3324WAT      O14015   4.682   6.753   6.589
 3324WAT     H114016   4.689   6.839   6.602
 3324WAT     H214017   4.678   6.745   6.502
 3324WAT    EPW14018   4.682   6.765   6.578
 3325WAT      O14019   5.149   7.046   5.819
 3325WAT     H114020   5.104   7.114   5.849
 3325WAT     H214021   5.161   6.995   5.889
 3325WAT    EPW14022   5.144   7.048   5.834
 3326WAT      O14023   3.970   7.295   6.739
 3326WAT     H114024   3.944   7.379   6.731
 3326WAT     H214025   3.903   7.257   6.781
 3326WAT    EPW14026   3.956   7.302   6.744
 3327WAT      O14027   4.273   6.777   6.788
 3327WAT     H114028   4.221   6.714   6.757
 3327WAT     H214029   4.332   6.733   6.835
 3327WAT    EPW14030   4.274   6.761   6.790
 3328WAT      O14031   5.689   7.043   6.448
 3328WAT     H114032   5.654   7.111   6.491
 3328WAT     H214033   5.625   6.983   6.450
 3328WAT    EPW14034   5.674   7.044   6.455
 3329WAT      O14035   4.177   6.950   7.616
 3329WAT     H114036   4.099   6.911   7.609
 3329WAT     H214037   4.226   6.909   7.557
 3329WAT    EPW14038   4.172   6.938   7.606
 3330WAT      O14039   4.841   6.714   7.533
 3330WAT     H114040   4.859   6.634   7.506
 3330WAT     H214041   4.827   6.759   7.459
 3330WAT    EPW14042   4.842   6.709   7.518
 3331WAT      O14043   4.901   7.207   6.410
 3331WAT     H114044   4.930   7.184   6.331
 3331WAT     H214045   4.974   7.215   6.457
 3331WAT    EPW14046   4.916   7.205   6.406
 3332WAT      O14047   4.973   7.241   5.922
 3332WAT     H114048   5.001   7.320   5.947
 3332WAT     H214049   4.895   7.257   5.886
 3332WAT    EPW14050   4.966   7.255   5.921
 3333WAT      O14051   5.656   6.875   6.985
 3333WAT     H114052   5.732   6.882   6.942
 3333WAT     H214053   5.662   6.798   7.025
 3333WAT    EPW14054   5.668   6.865   6.985
 3334WAT      O14055   3.911   7.005   7.375
 3334WAT     H114056   3.911   7.064   7.439
 3334WAT     H214057   3.971   7.036   7.319
 3334WAT    EPW14058   3.920   7.018   7.376
 3335WAT      O14059   5.210   6.848   6.009
 3335WAT     H114060   5.264   6.779   6.017
 3335WAT     H214061   5.216   6.887   6.087
 3335WAT    EPW14062   5.219   6.843   6.022
 3336WAT      O14063   4.005   6.964   6.266
 3336WAT     H114064   3.994   6.878   6.269
 3336WAT     H214065   3.958   6.994   6.333
 3336WAT    EPW14066   3.996   6.956   6.277
 3337WAT      O14067   4.935   7.085   6.141
 3337WAT     H114068   4.885   7.019   6.115
 3337WAT     H214069   4.941   7.136   6.070
 3337WAT    EPW14070   4.929   7.083   6.127
 3338WAT      O14071   4.935   6.779   6.130
 3338WAT     H114072   4.890   6.739   6.067
 3338WAT     H214073   5.013   6.795   6.092
 3338WAT    EPW14074   4.940   6.776   6.115
 3339WAT      O14075   4.795   7.016   6.582
 3339WAT     H114076   4.803   7.073   6.516
 3339WAT     H214077   4.807   7.065   6.653
 3339WAT    EPW14078   4.798   7.032   6.583
 3340WAT      O14079   4.256   6.598   6.417
 3340WAT     H114080   4.310   6.667   6.416
 3340WAT     H214081   4.256   6.571   6.334
 3340WAT    EPW14082   4.264   6.604   6.405
 3341WAT      O14083   5.174   7.033   7.171
 3341WAT     H114084   5.165   7.065   7.252
 3341WAT     H214085   5.115   6.969   7.167
 3341WAT    EPW14086   5.164   7.028   7.182
 3342WAT      O14087   5.300   6.627   6.455
 3342WAT     H114088   5.305   6.596   6.536
 3342WAT     H214089   5.332   6.563   6.405
 3342WAT    EPW14090   5.306   6.613   6.459
 3343WAT      O14091   5.546   7.051   7.285
 3343WAT     H114092   5.624   7.029   7.319
 3343WAT     H214093   5.499   7.073   7.355
 3343WAT    EPW14094   5.551   7.051   7.301
 3344WAT      O14095   4.301   6.979   6.582
 3344WAT     H114096   4.328   6.936   6.512
 3344WAT     H214097   4.283   6.916   6.639
 3344WAT    EPW14098   4.302   6.964   6.580
 3345WAT      O14099   4.115   7.090   6.891
 3345WAT     H114100   4.199   7.112   6.886
 3345WAT     H214101   4.076   7.147   6.837
 3345WAT    EPW14102   4.122   7.101   6.882
 3346WAT      O14103   5.359   7.403   5.963
 3346WAT     H114104   5.337   7.476   5.920
 3346WAT     H214105   5.314   7.408   6.037
 3346WAT    EPW14106   5.349   7.414   5.967
 3347WAT      O14107   5.778   6.889   5.908
 3347WAT     H114108   5.712   6.832   5.910
 3347WAT     H214109   5.759   6.940   5.840
 3347WAT    EPW14110   5.765   6.888   5.898
 3348WAT      O14111   5.810   7.326   7.164
 3348WAT     H114112   5.832   7.246   7.136
 3348WAT     H214113   5.725   7.332   7.145
 3348WAT    EPW14114   5.801   7.316   7.157
 3349WAT      O14115   5.578   6.844   6.136
 3349WAT     H114116   5.653   6.804   6.156
 3349WAT     H214117   5.604   6.916   6.093
 3349WAT    EPW14118   5.593   6.849   6.133
 3350WAT      O14119   5.223   7.073   6.643
 3350WAT     H114120   5.258   7.088   6.722
 3350WAT     H214121   5.178   6.999   6.654
 3350WAT    EPW14122   5.222   7.065   6.656
 3351WAT      O14123   4.671   6.995   6.089
 3351WAT     H114124   4.671   6.984   6.002
 3351WAT     H214125   4.653   7.080   6.098
 3351WAT    EPW14126   4.668   7.006   6.077
 3352WAT      O14127   4.258   7.339   7.538
 3352WAT     H114128   4.204   7.288   7.585
 3352WAT     H214129   4.260   7.300   7.460
 3352WAT    EPW14130   4.250   7.325   7.534
 3353WAT      O14131   4.306   7.278   6.052
 3353WAT     H114132   4.294   7.234   6.126
 3353WAT     H214133   4.248   7.244   5.997
 3353WAT    EPW14134   4.296   7.267   6.055
 3354WAT      O14135   4.323   7.461   6.712
 3354WAT     H114136   4.245   7.456   6.674
 3354WAT     H214137   4.330   7.386   6.756
 3354WAT    EPW14138   4.313   7.450   6.713
 3355WAT      O14139   4.366   7.435   7.059
 3355WAT     H114140   4.369   7.368   7.004
 3355WAT     H214141   4.301   7.485   7.028
 3355WAT    EPW14142   4.357   7.432   7.046
 3356WAT      O14143   5.356   7.206   6.899
 3356WAT     H114144   5.289   7.239   6.945
 3356WAT     H214145   5.374   7.270   6.842
 3356WAT    EPW14146   5.349   7.221   6.897
 3357WAT      O14147   5.020   6.797   7.241
 3357WAT     H114148   5.035   6.715   7.217
 3357WAT     H214149   5.058   6.803   7.320
 3357WAT    EPW14150   5.028   6.786   7.249
 3358WAT      O14151   5.175   7.003   6.250
 3358WAT     H114152   5.224   7.075   6.242
 3358WAT     H214153   5.096   7.029   6.223
 3358WAT    EPW14154   5.170   7.018   6.245
 3359WAT      O14155   4.833   7.150   6.822
 3359WAT     H114156   4.881   7.220   6.843
 3359WAT     H214157   4.870   7.086   6.867
 3359WAT    EPW14158   4.846   7.151   6.832
 3360WAT      O14159   5.052   7.467   6.050
 3360WAT     H114160   5.051   7.539   6.001
 3360WAT     H214161   4.988   7.481   6.107
 3360WAT    EPW14162   5.042   7.480   6.051
 3361WAT      O14163   4.511   6.701   6.016
 3361WAT     H114164   4.521   6.691   6.102
 3361WAT     H214165   4.440   6.752   6.009
 3361WAT    EPW14166   4.502   6.707   6.027
 3362WAT      O14167   5.584   6.676   7.555
 3362WAT     H114168   5.520   6.636   7.511
 3362WAT     H214169   5.587   6.632   7.631
 3362WAT    EPW14170   5.575   6.663   7.560
 3363WAT      O14171   3.923   6.698   6.237
 3363WAT     H114172   3.936   6.627   6.188
 3363WAT     H214173   3.886   6.666   6.309
 3363WAT    EPW14174   3.920   6.683   6.240
 3364WAT      O14175   4.892   7.466   6.282
 3364WAT     H114176   4.898   7.531   6.340
 3364WAT     H214177   4.874   7.397   6.332
 3364WAT    EPW14178   4.891   7.466   6.298
 3365WAT      O14179   4.342   6.918   5.934
 3365WAT     H114180   4.291   6.923   5.863
 3365WAT     H214181   4.420   6.942   5.904
 3365WAT    EPW14182   4.346   6.922   5.919
 3366WAT      O14183   4.523   7.157   6.631
 3366WAT     H114184   4.607   7.138   6.640
 3366WAT     H214185   4.486   7.080   6.617
 3366WAT    EPW14186   4.530   7.143   6.630
 3367WAT      O14187   4.005   7.291   6.296
 3367WAT     H114188   4.054   7.262   6.362
 3367WAT     H214189   4.018   7.232   6.233
 3367WAT    EPW14190   4.014   7.278   6.297
 3368WAT      O14191   4.457   7.435   5.845
 3368WAT     H114192   4.396   7.394   5.892
 3368WAT     H214193   4.419   7.446   5.767
 3368WAT    EPW14194   4.442   7.430   5.840
 3369WAT      O14195   4.603   7.281   6.116
 3369WAT     H114196   4.630   7.363   6.122
 3369WAT     H214197   4.516   7.288   6.106
 3369WAT    EPW14198   4.594   7.294   6.115
 3370WAT      O14199   5.400   6.993   7.579
 3370WAT     H114200   5.347   7.039   7.631
 3370WAT     H214201   5.364   6.913   7.578
 3370WAT    EPW14202   5.387   6.988   7.587
 3371WAT      O14203   3.951   6.878   6.769
 3371WAT     H114204   3.955   6.912   6.689
 3371WAT     H214205   4.026   6.901   6.806
 3371WAT    EPW14206   3.962   6.886   6.763
 3372WAT      O14207   5.249   7.350   7.587
 3372WAT     H114208   5.256   7.360   7.673
 3372WAT     H214209   5.186   7.406   7.564
 3372WAT    EPW14210   5.241   7.360   7.596
 3373WAT      O14211   5.476   7.382   7.423
 3373WAT     H114212   5.508   7.460   7.443
 3373WAT     H214213   5.439   7.355   7.497
 3373WAT    EPW14214   5.475   7.389   7.437
 3374WAT      O14215   5.456   7.208   6.542
 3374WAT     H114216   5.381   7.175   6.574
 3374WAT     H214217   5.456   7.290   6.570
 3374WAT    EPW14218   5.445   7.215   6.551
 3375WAT      O14219   5.347   6.841   7.288
 3375WAT     H114220   5.421   6.886   7.282
 3375WAT     H214221   5.290   6.888   7.241
 3375WAT    EPW14222   5.349   6.854   7.280
 3376WAT      O14223   4.536   7.129   7.270
 3376WAT     H114224   4.552   7.055   7.313
 3376WAT     H214225   4.531   7.104   7.186
 3376WAT    EPW14226   4.537   7.115   7.264
 3377WAT      O14227   5.475   6.639   7.055
 3377WAT     H114228   5.447   6.721   7.051
 3377WAT     H214229   5.547   6.644   7.105
 3377WAT    EPW14230   5.482   6.652   7.062
 3378WAT      O14231   4.711   6.710   7.258
 3378WAT     H114232   4.781   6.742   7.218
 3378WAT     H214233   4.735   6.629   7.281
 3378WAT    EPW14234   4.725   6.703   7.255
 3379WAT      O14235   5.617   7.264   5.941
 3379WAT     H114236   5.655   7.332   5.901
 3379WAT     H214237   5.533   7.286   5.944
 3379WAT    EPW14238   5.610   7.277   5.935
 3380WAT      O14239   4.362   7.215   6.864
 3380WAT     H114240   4.406   7.205   6.789
 3380WAT     H214241   4.416   7.184   6.925
 3380WAT    EPW14242   4.376   7.209   6.862
 3381WAT      O14243   5.163   7.126   7.423
 3381WAT     H114244   5.098   7.173   7.458
 3381WAT     H214245   5.220   7.117   7.489
 3381WAT    EPW14246   5.162   7.131   7.438
 3382WAT      O14247   5.132   7.279   7.053
 3382WAT     H114248   5.162   7.321   7.123
 3382WAT     H214249   5.136   7.195   7.076
 3382WAT    EPW14250   5.137   7.273   7.067
 3383WAT      O14251   5.387   7.224   6.278
 3383WAT     H114252   5.408   7.204   6.361
 3383WAT     H214253   5.462   7.251   6.244
 3383WAT    EPW14254   5.401   7.225   6.285
 3384WAT      O14255   4.716   6.714   6.869
 3384WAT     H114256   4.634   6.699   6.892
 3384WAT     H214257   4.712   6.717   6.782
 3384WAT    EPW14258   4.704   6.712   6.859
 3385WAT      O14259   5.489   6.832   6.426
 3385WAT     H114260   5.418   6.785   6.443
 3385WAT     H214261   5.473   6.866   6.347
 3385WAT    EPW14262   5.476   6.830   6.417
 3386WAT      O14263   3.973   6.754   7.472
 3386WAT     H114264   3.959   6.833   7.439
 3386WAT     H214265   3.894   6.729   7.501
 3386WAT    EPW14266   3.959   6.762   7.472
 3387WAT      O14267   4.279   7.028   6.195
 3387WAT     H114268   4.292   6.995   6.115
 3387WAT     H214269   4.198   7.003   6.215
 3387WAT    EPW14270   4.269   7.020   6.186
 3388WAT      O14271   5.747   7.343   7.439
 3388WAT     H114272   5.661   7.331   7.452
 3388WAT     H214273   5.762   7.304   7.363
 3388WAT    EPW14274   5.737   7.336   7.430
 3389WAT      O14275   5.198   7.410   7.297
 3389WAT     H114276   5.173   7.338   7.339
 3389WAT     H214277   5.280   7.422   7.324
 3389WAT    EPW14278   5.207   7.401   7.307
 3390WAT      O14279   4.277   7.229   7.236
 3390WAT     H114280   4.314   7.291   7.188
 3390WAT     H214281   4.344   7.182   7.265
 3390WAT    EPW14282   4.292   7.231   7.233
 3391WAT      O14283   4.054   7.074   7.164
 3391WAT     H114284   4.062   7.057   7.079
 3391WAT     H214285   4.129   7.115   7.184
 3391WAT    EPW14286   4.067   7.077   7.154
 3392WAT      O14287   5.610   7.338   6.208
 3392WAT     H114288   5.621   7.332   6.121
 3392WAT     H214289   5.684   7.305   6.240
 3392WAT    EPW14290   5.623   7.332   6.200
 3393WAT      O14291   4.310   6.815   7.405
 3393WAT     H114292   4.302   6.731   7.426
 3393WAT     H214293   4.278   6.819   7.324
 3393WAT    EPW14294   4.304   6.803   7.396
 3394WAT      O14295   5.521   7.353   7.143
 3394WAT     H114296   5.520   7.266   7.156
 3394WAT     H214297   5.527   7.385   7.224
 3394WAT    EPW14298   5.522   7.345   7.157
 3395WAT      O14299   4.140   7.190   5.848
 3395WAT     H114300   4.073   7.192   5.904
 3395WAT     H214301   4.149   7.105   5.830
 3395WAT    EPW14302   4.131   7.178   5.854
 3396WAT      O14303   5.108   6.833   7.522
 3396WAT     H114304   5.118   6.904   7.571
 3396WAT     H214305   5.045   6.788   7.561
 3396WAT    EPW14306   5.100   6.836   7.535
 3397WAT      O14307   5.008   6.852   6.607
 3397WAT     H114308   4.938   6.903   6.601
 3397WAT     H214309   5.012   6.814   6.529
 3397WAT    EPW14310   4.998   6.854   6.595
 3398WAT      O14311   5.368   6.903   6.887
 3398WAT     H114312   5.453   6.913   6.902
 3398WAT     H214313   5.331   6.958   6.944
 3398WAT    EPW14314   5.375   6.913   6.898
 3399WAT      O14315   5.398   7.431   6.736
 3399WAT     H114316   5.465   7.485   6.752
 3399WAT     H214317   5.364   7.462   6.662
 3399WAT    EPW14318   5.403   7.444   6.728
 3400WAT      O14319   4.513   6.823   7.070
 3400WAT     H114320   4.427   6.832   7.078
 3400WAT     H214321   4.535   6.772   7.137
 3400WAT    EPW14322   4.504   6.817   7.081
 3401WAT      O14323   5.715   6.687   7.203
 3401WAT     H114324   5.710   6.683   7.290
 3401WAT     H214325   5.784   6.637   7.184
 3401WAT    EPW14326   5.725   6.679   7.213
 3402WAT      O14327   4.924   6.898   6.907
 3402WAT     H114328   4.850   6.853   6.918
 3402WAT     H214329   4.981   6.858   6.959
 3402WAT    EPW14330   4.921   6.886   6.917
 3403WAT      O14331   4.674   7.331   7.428
 3403WAT     H114332   4.642   7.274   7.371
 3403WAT     H214333   4.638   7.407   7.403
 3403WAT    EPW14334   4.664   7.334   7.416
 3404WAT      O14335   4.754   6.656   5.890
 3404WAT     H114336   4.761   6.681   5.807
 3404WAT     H214337   4.679   6.694   5.916
 3404WAT    EPW14338   4.744   6.666   5.882
 3405WAT      O14339   4.235   6.832   7.135
 3405WAT     H114340   4.201   6.755   7.111
 3405WAT     H214341   4.166   6.884   7.141
 3405WAT    EPW14342   4.220   6.828   7.132
 3406WAT      O14343   5.140   6.717   6.832
 3406WAT     H114344   5.207   6.772   6.845
 3406WAT     H214345   5.090   6.760   6.775
 3406WAT    EPW14346   5.142   6.732   6.826
 3407WAT      O14347   5.076   7.298   6.582
 3407WAT     H114348   5.131   7.237   6.612
 3407WAT     H214349   5.033   7.324   6.653
 3407WAT    EPW14350   5.078   7.293   6.596
 3408WAT      O14351   4.101   7.163   6.530
 3408WAT     H114352   4.064   7.193   6.603
 3408WAT     H214353   4.154   7.100   6.559
 3408WAT    EPW14354   4.103   7.158   6.545
 3409WAT      O14355   5.273   7.481   6.238
 3409WAT     H114356   5.280   7.396   6.256
 3409WAT     H214357   5.191   7.490   6.210
 3409WAT    EPW14358   5.262   7.470   6.236
 3410WAT      O14359   5.663   7.075   7.627
 3410WAT     H114360   5.643   7.139   7.682
 3410WAT     H214361   5.591   7.026   7.626
 3410WAT    EPW14362   5.649   7.077   7.635
 3411WAT      O14363   5.653   7.169   6.924
 3411WAT     H114364   5.569   7.194   6.917
 3411WAT     H214365   5.647   7.085   6.947
 3411WAT    EPW14366   5.640   7.160   6.926
 3412WAT      O14367   4.579   6.868   7.443
 3412WAT     H114368   4.602   6.810   7.382
 3412WAT     H214369   4.494   6.850   7.457
 3412WAT    EPW14370   4.570   6.857   7.436
 3413WAT      O14371   5.018   6.688   4.479
 3413WAT     H114372   4.993   6.737   4.411
 3413WAT     H214373   5.104   6.681   4.469
 3413WAT    EPW14374   5.027   6.694   4.467
 3414WAT      O14375   4.999   7.380   4.946
 3414WAT     H114376   4.946   7.439   4.982
 3414WAT     H214377   5.038   7.343   5.014
 3414WAT    EPW14378   4.997   7.383   4.961
 3415WAT      O14379   3.960   7.173   4.142
 3415WAT     H114380   3.882   7.189   4.106
 3415WAT     H214381   3.964   7.086   4.144
 3415WAT    EPW14382   3.949   7.162   4.137
 3416WAT      O14383   5.266   7.486   4.613
 3416WAT     H114384   5.274   7.487   4.526
 3416WAT     H214385   5.207   7.423   4.628
 3416WAT    EPW14386   5.258   7.477   4.603
 3417WAT      O14387   4.665   6.797   4.394
 3417WAT     H114388   4.658   6.865   4.340
 3417WAT     H214389   4.739   6.758   4.369
 3417WAT    EPW14390   4.675   6.801   4.382
 3418WAT      O14391   4.124   7.519   4.537
 3418WAT     H114392   4.078   7.480   4.474
 3418WAT     H214393   4.194   7.468   4.546
 3418WAT    EPW14394   4.128   7.506   4.529
 3419WAT      O14395   4.575   7.080   5.072
 3419WAT     H114396   4.643   7.082   5.017
 3419WAT     H214397   4.570   6.997   5.096
 3419WAT    EPW14398   4.584   7.068   5.067
 3420WAT      O14399   4.324   7.329   4.539
 3420WAT     H114400   4.406   7.311   4.564
 3420WAT     H214401   4.277   7.268   4.579
 3420WAT    EPW14402   4.329   7.318   4.549
 3421WAT      O14403   4.947   7.285   5.555
 3421WAT     H114404   4.862   7.276   5.538
 3421WAT     H214405   4.950   7.360   5.601
 3421WAT    EPW14406   4.935   7.295   5.559
 3422WAT      O14407   4.384   6.839   4.466
 3422WAT     H114408   4.354   6.889   4.401
 3422WAT     H214409   4.471   6.847   4.460
 3422WAT    EPW14410   4.392   6.847   4.456
 3423WAT      O14411   5.403   6.581   5.467
 3423WAT     H114412   5.387   6.658   5.429
 3423WAT     H214413   5.326   6.559   5.501
 3423WAT    EPW14414   5.389   6.590   5.466
 3424WAT      O14415   5.149   7.046   3.918
 3424WAT     H114416   5.104   7.114   3.949
 3424WAT     H214417   5.161   6.995   3.988
 3424WAT    EPW14418   5.144   7.048   3.933
 3425WAT      O14419   3.970   7.295   4.838
 3425WAT     H114420   3.944   7.379   4.831
 3425WAT     H214421   3.903   7.257   4.880
 3425WAT    EPW14422   3.956   7.302   4.843
 3426WAT      O14423   4.273   6.777   4.887
 3426WAT     H114424   4.221   6.714   4.857
 3426WAT     H214425   4.332   6.733   4.935
 3426WAT    EPW14426   4.274   6.761   4.890
 3427WAT      O14427   4.603   6.990   5.817
 3427WAT     H114428   4.615   6.945   5.744
 3427WAT     H214429   4.632   7.070   5.797
 3427WAT    EPW14430   4.609   6.996   5.803
 3428WAT      O14431   5.689   7.043   4.548
 3428WAT     H114432   5.654   7.111   4.590
 3428WAT     H214433   5.625   6.983   4.549
 3428WAT    EPW14434   5.674   7.044   4.554
 3429WAT      O14435   4.177   6.950   5.716
 3429WAT     H114436   4.099   6.911   5.708
 3429WAT     H214437   4.226   6.909   5.657
 3429WAT    EPW14438   4.172   6.938   5.706
 3430WAT      O14439   4.841   6.714   5.632
 3430WAT     H114440   4.859   6.634   5.605
 3430WAT     H214441   4.827   6.759   5.559
 3430WAT    EPW14442   4.842   6.709   5.617
 3431WAT      O14443   4.901   7.207   4.510
 3431WAT     H114444   4.930   7.184   4.431
 3431WAT     H214445   4.974   7.215   4.557
 3431WAT    EPW14446   4.916   7.205   4.505
 3432WAT      O14447   4.973   7.241   4.022
 3432WAT     H114448   5.001   7.320   4.047
 3432WAT     H214449   4.895   7.257   3.986
 3432WAT    EPW14450   4.966   7.255   4.020
 3433WAT      O14451   5.656   6.875   5.085
 3433WAT     H114452   5.732   6.882   5.042
 3433WAT     H214453   5.662   6.798   5.124
 3433WAT    EPW14454   5.668   6.865   5.084
 3434WAT      O14455   3.911   7.005   5.474
 3434WAT     H114456   3.911   7.064   5.539
 3434WAT     H214457   3.971   7.036   5.419
 3434WAT    EPW14458   3.920   7.018   5.476
 3435WAT      O14459   5.210   6.848   4.109
 3435WAT     H114460   5.264   6.779   4.116
 3435WAT     H214461   5.216   6.887   4.186
 3435WAT    EPW14462   5.219   6.843   4.121
 3436WAT      O14463   4.005   6.964   4.366
 3436WAT     H114464   3.994   6.878   4.369
 3436WAT     H214465   3.958   6.994   4.433
 3436WAT    EPW14466   3.996   6.956   4.376
 3437WAT      O14467   4.935   7.085   4.240
 3437WAT     H114468   4.885   7.019   4.215
 3437WAT     H214469   4.941   7.136   4.169
 3437WAT    EPW14470   4.929   7.083   4.226
 3438WAT      O14471   4.935   6.779   4.229
 3438WAT     H114472   4.890   6.739   4.167
 3438WAT     H214473   5.013   6.795   4.192
 3438WAT    EPW14474   4.940   6.776   4.215
 3439WAT      O14475   4.795   7.016   4.682
 3439WAT     H114476   4.803   7.073   4.616
 3439WAT     H214477   4.807   7.065   4.753
 3439WAT    EPW14478   4.798   7.032   4.682
 3440WAT      O14479   4.256   6.598   4.516
 3440WAT     H114480   4.310   6.667   4.515
 3440WAT     H214481   4.256   6.571   4.434
 3440WAT    EPW14482   4.264   6.604   4.504
 3441WAT      O14483   5.174   7.033   5.270
 3441WAT     H114484   5.165   7.065   5.351
 3441WAT     H214485   5.115   6.969   5.267
 3441WAT    EPW14486   5.164   7.028   5.282
 3442WAT      O14487   5.300   6.627   4.554
 3442WAT     H114488   5.305   6.596   4.635
 3442WAT     H214489   5.332   6.563   4.505
 3442WAT    EPW14490   5.306   6.613   4.559
 3443WAT      O14491   5.546   7.051   5.385
 3443WAT     H114492   5.624   7.029   5.418
 3443WAT     H214493   5.499   7.073   5.455
 3443WAT    EPW14494   5.551   7.051   5.400
 3444WAT      O14495   4.301   6.979   4.682
 3444WAT     H114496   4.328   6.936   4.611
 3444WAT     H214497   4.283   6.916   4.739
 3444WAT    EPW14498   4.302   6.964   4.680
 3445WAT      O14499   4.115   7.090   4.990
 3445WAT     H114500   4.199   7.112   4.986
 3445WAT     H214501   4.076   7.147   4.937
 3445WAT    EPW14502   4.122   7.101   4.981
 3446WAT      O14503   5.359   7.403   4.062
 3446WAT     H114504   5.337   7.476   4.020
 3446WAT     H214505   5.314   7.408   4.137
 3446WAT    EPW14506   5.349   7.414   4.067
 3447WAT      O14507   5.778   6.889   4.007
 3447WAT     H114508   5.712   6.832   4.010
 3447WAT     H214509   5.759   6.940   3.939
 3447WAT    EPW14510   5.765   6.888   3.998
 3448WAT      O14511   4.700   7.258   5.802
 3448WAT     H114512   4.652   7.316   5.846
 3448WAT     H214513   4.698   7.288   5.720
 3448WAT    EPW14514   4.693   7.271   5.796
 3449WAT      O14515   5.810   7.326   5.263
 3449WAT     H114516   5.832   7.246   5.235
 3449WAT     H214517   5.725   7.332   5.244
 3449WAT    EPW14518   5.801   7.316   5.256
 3450WAT      O14519   5.578   6.844   4.235
 3450WAT     H114520   5.653   6.804   4.255
 3450WAT     H214521   5.604   6.916   4.193
 3450WAT    EPW14522   5.593   6.849   4.232
 3451WAT      O14523   5.223   7.073   4.743
 3451WAT     H114524   5.258   7.088   4.821
 3451WAT     H214525   5.178   6.999   4.754
 3451WAT    EPW14526   5.222   7.065   4.756
 3452WAT      O14527   4.671   6.995   4.188
 3452WAT     H114528   4.671   6.984   4.102
 3452WAT     H214529   4.653   7.080   4.197
 3452WAT    EPW14530   4.668   7.006   4.177
 3453WAT      O14531   4.258   7.339   5.638
 3453WAT     H114532   4.204   7.288   5.684
 3453WAT     H214533   4.260   7.300   5.560
 3453WAT    EPW14534   4.250   7.325   5.633
 3454WAT      O14535   4.306   7.278   4.152
 3454WAT     H114536   4.294   7.234   4.225
 3454WAT     H214537   4.248   7.244   4.096
 3454WAT    EPW14538   4.296   7.267   4.154
 3455WAT      O14539   4.323   7.461   4.812
 3455WAT     H114540   4.245   7.456   4.773
 3455WAT     H214541   4.330   7.386   4.855
 3455WAT    EPW14542   4.313   7.450   4.812
 3456WAT      O14543   4.366   7.435   5.158
 3456WAT     H114544   4.369   7.368   5.103
 3456WAT     H214545   4.301   7.485   5.127
 3456WAT    EPW14546   4.357   7.432   5.146
 3457WAT      O14547   5.356   7.206   4.998
 3457WAT     H114548   5.289   7.239   5.044
 3457WAT     H214549   5.374   7.270   4.941
 3457WAT    EPW14550   5.349   7.221   4.996
 3458WAT      O14551   5.020   6.797   5.341
 3458WAT     H114552   5.035   6.715   5.317
 3458WAT     H214553   5.058   6.803   5.419
 3458WAT    EPW14554   5.028   6.786   5.349
 3459WAT      O14555   5.175   7.003   4.349
 3459WAT     H114556   5.224   7.075   4.341
 3459WAT     H214557   5.096   7.029   4.323
 3459WAT    EPW14558   5.170   7.018   4.344
 3460WAT      O14559   4.833   7.150   4.922
 3460WAT     H114560   4.881   7.220   4.942
 3460WAT     H214561   4.870   7.086   4.967
 3460WAT    EPW14562   4.846   7.151   4.931
 3461WAT      O14563   5.052   7.467   4.149
 3461WAT     H114564   5.051   7.539   4.100
 3461WAT     H214565   4.988   7.481   4.207
 3461WAT    EPW14566   5.042   7.480   4.150
 3462WAT      O14567   4.511   6.701   4.115
 3462WAT     H114568   4.521   6.691   4.201
 3462WAT     H214569   4.440   6.752   4.109
 3462WAT    EPW14570   4.502   6.707   4.127
 3463WAT      O14571   5.584   6.676   5.655
 3463WAT     H114572   5.520   6.636   5.611
 3463WAT     H214573   5.587   6.632   5.731
 3463WAT    EPW14574   5.575   6.663   5.659
 3464WAT      O14575   3.923   6.698   4.336
 3464WAT     H114576   3.936   6.627   4.287
 3464WAT     H214577   3.886   6.666   4.409
 3464WAT    EPW14578   3.920   6.683   4.340
 3465WAT      O14579   4.892   7.466   4.382
 3465WAT     H114580   4.898   7.531   4.440
 3465WAT     H214581   4.874   7.397   4.431
 3465WAT    EPW14582   4.891   7.466   4.398
 3466WAT      O14583   4.342   6.918   4.033
 3466WAT     H114584   4.291   6.923   3.962
 3466WAT     H214585   4.420   6.942   4.003
 3466WAT    EPW14586   4.346   6.922   4.018
 3467WAT      O14587   4.523   7.157   4.730
 3467WAT     H114588   4.607   7.138   4.740
 3467WAT     H214589   4.486   7.080   4.716
 3467WAT    EPW14590   4.530   7.143   4.729
 3468WAT      O14591   4.005   7.291   4.396
 3468WAT     H114592   4.054   7.262   4.462
 3468WAT     H214593   4.018   7.232   4.333
 3468WAT    EPW14594   4.014   7.278   4.396
 3469WAT      O14595   4.457   7.435   3.944
 3469WAT     H114596   4.396   7.394   3.992
 3469WAT     H214597   4.419   7.446   3.867
 3469WAT    EPW14598   4.442   7.430   3.940
 3470WAT      O14599   4.603   7.281   4.215
 3470WAT     H114600   4.630   7.363   4.222
 3470WAT     H214601   4.516   7.288   4.206
 3470WAT    EPW14602   4.594   7.294   4.215
 3471WAT      O14603   5.400   6.993   5.678
 3471WAT     H114604   5.347   7.039   5.731
 3471WAT     H214605   5.364   6.913   5.678
 3471WAT    EPW14606   5.387   6.988   5.686
 3472WAT      O14607   3.951   6.878   4.869
 3472WAT     H114608   3.955   6.912   4.789
 3472WAT     H214609   4.026   6.901   4.905
 3472WAT    EPW14610   3.962   6.886   4.862
 3473WAT      O14611   5.249   7.350   5.686
 3473WAT     H114612   5.256   7.360   5.772
 3473WAT     H214613   5.186   7.406   5.664
 3473WAT    EPW14614   5.241   7.360   5.695
 3474WAT      O14615   5.476   7.382   5.522
 3474WAT     H114616   5.508   7.460   5.543
 3474WAT     H214617   5.439   7.355   5.597
 3474WAT    EPW14618   5.475   7.389   5.536
 3475WAT      O14619   5.456   7.208   4.641
 3475WAT     H114620   5.381   7.175   4.673
 3475WAT     H214621   5.456   7.290   4.669
 3475WAT    EPW14622   5.445   7.215   4.650
 3476WAT      O14623   5.746   7.436   5.796
 3476WAT     H114624   5.741   7.402   5.716
 3476WAT     H214625   5.819   7.483   5.794
 3476WAT    EPW14626   5.756   7.438   5.784
 3477WAT      O14627   5.347   6.841   5.387
 3477WAT     H114628   5.421   6.886   5.381
 3477WAT     H214629   5.290   6.888   5.341
 3477WAT    EPW14630   5.349   6.854   5.380
 3478WAT      O14631   4.536   7.129   5.369
 3478WAT     H114632   4.552   7.055   5.412
 3478WAT     H214633   4.531   7.104   5.286
 3478WAT    EPW14634   4.537   7.115   5.363
 3479WAT      O14635   5.475   6.639   5.154
 3479WAT     H114636   5.447   6.721   5.150
 3479WAT     H214637   5.547   6.644   5.204
 3479WAT    EPW14638   5.482   6.652   5.161
 3480WAT      O14639   4.711   6.710   5.357
 3480WAT     H114640   4.781   6.742   5.317
 3480WAT     H214641   4.735   6.629   5.380
 3480WAT    EPW14642   4.725   6.703   5.355
 3481WAT      O14643   5.617   7.264   4.040
 3481WAT     H114644   5.655   7.332   4.000
 3481WAT     H214645   5.533   7.286   4.043
 3481WAT    EPW14646   5.610   7.277   4.035
 3482WAT      O14647   4.362   7.215   4.963
 3482WAT     H114648   4.406   7.205   4.889
 3482WAT     H214649   4.416   7.184   5.024
 3482WAT    EPW14650   4.376   7.209   4.961
 3483WAT      O14651   5.163   7.126   5.523
 3483WAT     H114652   5.098   7.173   5.557
 3483WAT     H214653   5.220   7.117   5.589
 3483WAT    EPW14654   5.162   7.131   5.538
 3484WAT      O14655   5.132   7.279   5.152
 3484WAT     H114656   5.162   7.321   5.223
 3484WAT     H214657   5.136   7.195   5.176
 3484WAT    EPW14658   5.137   7.273   5.166
 3485WAT      O14659   5.387   7.224   4.378
 3485WAT     H114660   5.408   7.204   4.460
 3485WAT     H214661   5.462   7.251   4.343
 3485WAT    EPW14662   5.401   7.225   4.385
 3486WAT      O14663   4.716   6.714   4.968
 3486WAT     H114664   4.634   6.699   4.992
 3486WAT     H214665   4.712   6.717   4.881
 3486WAT    EPW14666   4.704   6.712   4.959
 3487WAT      O14667   5.489   6.832   4.525
 3487WAT     H114668   5.418   6.785   4.542
 3487WAT     H214669   5.473   6.866   4.446
 3487WAT    EPW14670   5.476   6.830   4.516
 3488WAT      O14671   3.973   6.754   5.572
 3488WAT     H114672   3.959   6.833   5.539
 3488WAT     H214673   3.894   6.729   5.601
 3488WAT    EPW14674   3.959   6.762   5.571
 3489WAT      O14675   4.279   7.028   4.294
 3489WAT     H114676   4.292   6.995   4.214
 3489WAT     H214677   4.198   7.003   4.314
 3489WAT    EPW14678   4.269   7.020   4.285
 3490WAT      O14679   5.747   7.343   5.539
 3490WAT     H114680   5.661   7.331   5.551
 3490WAT     H214681   5.762   7.304   5.463
 3490WAT    EPW14682   5.737   7.336   5.529
 3491WAT      O14683   5.198   7.410   5.396
 3491WAT     H114684   5.173   7.338   5.439
 3491WAT     H214685   5.280   7.422   5.423
 3491WAT    EPW14686   5.207   7.401   5.407
 3492WAT      O14687   4.277   7.229   5.336
 3492WAT     H114688   4.314   7.291   5.287
 3492WAT     H214689   4.344   7.182   5.364
 3492WAT    EPW14690   4.292   7.231   5.333
 3493WAT      O14691   4.054   7.074   5.263
 3493WAT     H114692   4.062   7.057   5.178
 3493WAT     H214693   4.129   7.115   5.283
 3493WAT    EPW14694   4.067   7.077   5.254
 3494WAT      O14695   5.610   7.338   4.307
 3494WAT     H114696   5.621   7.332   4.221
 3494WAT     H214697   5.684   7.305   4.339
 3494WAT    EPW14698   5.623   7.332   4.299
 3495WAT      O14699   5.521   7.353   5.243
 3495WAT     H114700   5.520   7.266   5.255
 3495WAT     H214701   5.527   7.385   5.324
 3495WAT    EPW14702   5.522   7.345   5.257
 3496WAT      O14703   4.140   7.190   3.947
 3496WAT     H114704   4.073   7.192   4.003
 3496WAT     H214705   4.149   7.105   3.929
 3496WAT    EPW14706   4.131   7.178   3.953
 3497WAT      O14707   5.108   6.833   5.621
 3497WAT     H114708   5.118   6.904   5.670
 3497WAT     H214709   5.045   6.788   5.661
 3497WAT    EPW14710   5.100   6.836   5.634
 3498WAT      O14711   5.008   6.852   4.706
 3498WAT     H114712   4.938   6.903   4.701
 3498WAT     H214713   5.012   6.814   4.628
 3498WAT    EPW14714   4.998   6.854   4.694
 3499WAT      O14715   5.368   6.903   4.986
 3499WAT     H114716   5.453   6.913   5.001
 3499WAT     H214717   5.331   6.958   5.043
 3499WAT    EPW14718   5.375   6.913   4.997
 3500WAT      O14719   5.398   7.431   4.836
 3500WAT     H114720   5.465   7.485   4.852
 3500WAT     H214721   5.364   7.462   4.762
 3500WAT    EPW14722   5.403   7.444   4.827
 3501WAT      O14723   4.513   6.823   5.169
 3501WAT     H114724   4.427   6.832   5.177
 3501WAT     H214725   4.535   6.772   5.236
 3501WAT    EPW14726   4.504   6.817   5.180
 3502WAT      O14727   5.715   6.687   5.302
 3502WAT     H114728   5.710   6.683   5.389
 3502WAT     H214729   5.784   6.637   5.283
 3502WAT    EPW14730   5.725   6.679   5.312
 3503WAT      O14731   4.924   6.898   5.007
 3503WAT     H114732   4.850   6.853   5.018
 3503WAT     H214733   4.981   6.858   5.059
 3503WAT    EPW14734   4.921   6.886   5.016
 3504WAT      O14735   4.674   7.331   5.527
 3504WAT     H114736   4.642   7.274   5.470
 3504WAT     H214737   4.638   7.407   5.502
 3504WAT    EPW14738   4.664   7.334   5.515
 3505WAT      O14739   4.754   6.656   3.990
 3505WAT     H114740   4.761   6.681   3.906
 3505WAT     H214741   4.679   6.694   4.015
 3505WAT    EPW14742   4.744   6.666   3.981
 3506WAT      O14743   4.235   6.832   5.234
 3506WAT     H114744   4.201   6.755   5.211
 3506WAT     H214745   4.166   6.884   5.240
 3506WAT    EPW14746   4.220   6.828   5.231
 3507WAT      O14747   5.140   6.717   4.932
 3507WAT     H114748   5.207   6.772   4.944
 3507WAT     H214749   5.090   6.760   4.874
 3507WAT    EPW14750   5.142   6.732   4.925
 3508WAT      O14751   5.076   7.298   4.681
 3508WAT     H114752   5.131   7.237   4.711
 3508WAT     H214753   5.033   7.324   4.752
 3508WAT    EPW14754   5.078   7.293   4.696
 3509WAT      O14755   4.101   7.163   4.630
 3509WAT     H114756   4.064   7.193   4.703
 3509WAT     H214757   4.154   7.100   4.658
 3509WAT    EPW14758   4.103   7.158   4.645
 3510WAT      O14759   5.273   7.481   4.337
 3510WAT     H114760   5.280   7.396   4.355
 3510WAT     H214761   5.191   7.490   4.309
 3510WAT    EPW14762   5.262   7.470   4.336
 3511WAT      O14763   5.663   7.075   5.726
 3511WAT     H114764   5.643   7.139   5.782
 3511WAT     H214765   5.591   7.026   5.725
 3511WAT    EPW14766   5.649   7.077   5.734
 3512WAT      O14767   5.653   7.169   5.023
 3512WAT     H114768   5.569   7.194   5.016
 3512WAT     H214769   5.647   7.085   5.046
 3512WAT    EPW14770   5.640   7.160   5.025
 3513WAT      O14771   4.579   6.868   5.543
 3513WAT     H114772   4.602   6.810   5.481
 3513WAT     H214773   4.494   6.850   5.557
 3513WAT    EPW14774   4.570   6.857   5.536
 3514WAT      O14775   5.018   6.688   2.578
 3514WAT     H114776   4.993   6.737   2.510
 3514WAT     H214777   5.104   6.681   2.568
 3514WAT    EPW14778   5.027   6.694   2.567
 3515WAT      O14779   4.999   7.380   3.045
 3515WAT     H114780   4.946   7.439   3.081
 3515WAT     H214781   5.038   7.343   3.114
 3515WAT    EPW14782   4.997   7.383   3.061
 3516WAT      O14783   3.960   7.173   2.241
 3516WAT     H114784   3.882   7.189   2.205
 3516WAT     H214785   3.964   7.086   2.244
 3516WAT    EPW14786   3.949   7.162   2.236
 3517WAT      O14787   5.266   7.486   2.713
 3517WAT     H114788   5.274   7.487   2.626
 3517WAT     H214789   5.207   7.423   2.728
 3517WAT    EPW14790   5.258   7.477   2.702
 3518WAT      O14791   4.665   6.797   2.494
 3518WAT     H114792   4.658   6.865   2.439
 3518WAT     H214793   4.739   6.758   2.469
 3518WAT    EPW14794   4.675   6.801   2.482
 3519WAT      O14795   4.124   7.519   2.636
 3519WAT     H114796   4.078   7.480   2.574
 3519WAT     H214797   4.194   7.468   2.646
 3519WAT    EPW14798   4.128   7.506   2.629
 3520WAT      O14799   4.575   7.080   3.171
 3520WAT     H114800   4.643   7.082   3.116
 3520WAT     H214801   4.570   6.997   3.196
 3520WAT    EPW14802   4.584   7.068   3.167
 3521WAT      O14803   4.324   7.329   2.639
 3521WAT     H114804   4.406   7.311   2.663
 3521WAT     H214805   4.277   7.268   2.678
 3521WAT    EPW14806   4.329   7.318   2.648
 3522WAT      O14807   4.947   7.285   3.655
 3522WAT     H114808   4.862   7.276   3.637
 3522WAT     H214809   4.950   7.360   3.700
 3522WAT    EPW14810   4.935   7.295   3.659
 3523WAT      O14811   4.384   6.839   2.565
 3523WAT     H114812   4.354   6.889   2.500
 3523WAT     H214813   4.471   6.847   2.560
 3523WAT    EPW14814   4.392   6.847   2.555
 3524WAT      O14815   5.403   6.581   3.566
 3524WAT     H114816   5.387   6.658   3.528
 3524WAT     H214817   5.326   6.559   3.601
 3524WAT    EPW14818   5.389   6.590   3.566
 3525WAT      O14819   4.682   6.753   2.788
 3525WAT     H114820   4.689   6.839   2.801
 3525WAT     H214821   4.678   6.745   2.701
 3525WAT    EPW14822   4.682   6.765   2.777
 3526WAT      O14823   5.149   7.046   2.018
 3526WAT     H114824   5.104   7.114   2.048
 3526WAT     H214825   5.161   6.995   2.088
 3526WAT    EPW14826   5.144   7.048   2.032
 3527WAT      O14827   3.970   7.295   2.938
 3527WAT     H114828   3.944   7.379   2.930
 3527WAT     H214829   3.903   7.257   2.979
 3527WAT    EPW14830   3.956   7.302   2.943
 3528WAT      O14831   4.273   6.777   2.987
 3528WAT     H114832   4.221   6.714   2.956
 3528WAT     H214833   4.332   6.733   3.034
 3528WAT    EPW14834   4.274   6.761   2.989
 3529WAT      O14835   4.603   6.990   3.917
 3529WAT     H114836   4.615   6.945   3.843
 3529WAT     H214837   4.632   7.070   3.896
 3529WAT    EPW14838   4.609   6.996   3.903
 3530WAT      O14839   5.689   7.043   2.647
 3530WAT     H114840   5.654   7.111   2.690
 3530WAT     H214841   5.625   6.983   2.649
 3530WAT    EPW14842   5.674   7.044   2.654
 3531WAT      O14843   4.177   6.950   3.815
 3531WAT     H114844   4.099   6.911   3.808
 3531WAT     H214845   4.226   6.909   3.756
 3531WAT    EPW14846   4.172   6.938   3.805
 3532WAT      O14847   4.841   6.714   3.732
 3532WAT     H114848   4.859   6.634   3.704
 3532WAT     H214849   4.827   6.759   3.658
 3532WAT    EPW14850   4.842   6.709   3.717
 3533WAT      O14851   4.901   7.207   2.609
 3533WAT     H114852   4.930   7.184   2.530
 3533WAT     H214853   4.974   7.215   2.656
 3533WAT    EPW14854   4.916   7.205   2.604
 3534WAT      O14855   4.973   7.241   2.121
 3534WAT     H114856   5.001   7.320   2.146
 3534WAT     H214857   4.895   7.257   2.085
 3534WAT    EPW14858   4.966   7.255   2.120
 3535WAT      O14859   5.656   6.875   3.184
 3535WAT     H114860   5.732   6.882   3.141
 3535WAT     H214861   5.662   6.798   3.224
 3535WAT    EPW14862   5.668   6.865   3.183
 3536WAT      O14863   3.911   7.005   3.574
 3536WAT     H114864   3.911   7.064   3.638
 3536WAT     H214865   3.971   7.036   3.518
 3536WAT    EPW14866   3.920   7.018   3.575
 3537WAT      O14867   5.210   6.848   2.208
 3537WAT     H114868   5.264   6.779   2.216
 3537WAT     H214869   5.216   6.887   2.286
 3537WAT    EPW14870   5.219   6.843   2.221
 3538WAT      O14871   4.005   6.964   2.465
 3538WAT     H114872   3.994   6.878   2.468
 3538WAT     H214873   3.958   6.994   2.532
 3538WAT    EPW14874   3.996   6.956   2.475
 3539WAT      O14875   4.935   7.085   2.340
 3539WAT     H114876   4.885   7.019   2.314
 3539WAT     H214877   4.941   7.136   2.269
 3539WAT    EPW14878   4.929   7.083   2.325
 3540WAT      O14879   4.935   6.779   2.329
 3540WAT     H114880   4.890   6.739   2.266
 3540WAT     H214881   5.013   6.795   2.291
 3540WAT    EPW14882   4.940   6.776   2.314
 3541WAT      O14883   4.795   7.016   2.781
 3541WAT     H114884   4.803   7.073   2.715
 3541WAT     H214885   4.807   7.065   2.852
 3541WAT    EPW14886   4.798   7.032   2.782
 3542WAT      O14887   4.256   6.598   2.616
 3542WAT     H114888   4.310   6.667   2.615
 3542WAT     H214889   4.256   6.571   2.533
 3542WAT    EPW14890   4.264   6.604   2.603
 3543WAT      O14891   5.174   7.033   3.370
 3543WAT     H114892   5.165   7.065   3.450
 3543WAT     H214893   5.115   6.969   3.366
 3543WAT    EPW14894   5.164   7.028   3.381
 3544WAT      O14895   5.300   6.627   2.653
 3544WAT     H114896   5.305   6.596   2.734
 3544WAT     H214897   5.332   6.563   2.604
 3544WAT    EPW14898   5.306   6.613   2.658
 3545WAT      O14899   5.546   7.051   3.484
 3545WAT     H114900   5.624   7.029   3.518
 3545WAT     H214901   5.499   7.073   3.554
 3545WAT    EPW14902   5.551   7.051   3.499
 3546WAT      O14903   4.301   6.979   2.781
 3546WAT     H114904   4.328   6.936   2.710
 3546WAT     H214905   4.283   6.916   2.838
 3546WAT    EPW14906   4.302   6.964   2.779
 3547WAT      O14907   4.115   7.090   3.089
 3547WAT     H114908   4.199   7.112   3.085
 3547WAT     H214909   4.076   7.147   3.036
 3547WAT    EPW14910   4.122   7.101   3.081
 3548WAT      O14911   5.359   7.403   2.161
 3548WAT     H114912   5.337   7.476   2.119
 3548WAT     H214913   5.314   7.408   2.236
 3548WAT    EPW14914   5.349   7.414   2.166
 3549WAT      O14915   5.778   6.889   2.107
 3549WAT     H114916   5.712   6.832   2.109
 3549WAT     H214917   5.759   6.940   2.039
 3549WAT    EPW14918   5.765   6.888   2.097
 3550WAT      O14919   4.700   7.258   3.901
 3550WAT     H114920   4.652   7.316   3.945
 3550WAT     H214921   4.698   7.288   3.819
 3550WAT    EPW14922   4.693   7.271   3.896
 3551WAT      O14923   5.810   7.326   3.362
 3551WAT     H114924   5.832   7.246   3.335
 3551WAT     H214925   5.725   7.332   3.343
 3551WAT    EPW14926   5.801   7.316   3.355
 3552WAT      O14927   5.578   6.844   2.335
 3552WAT     H114928   5.653   6.804   2.355
 3552WAT     H214929   5.604   6.916   2.292
 3552WAT    EPW14930   5.593   6.849   2.331
 3553WAT      O14931   5.223   7.073   2.842
 3553WAT     H114932   5.258   7.088   2.921
 3553WAT     H214933   5.178   6.999   2.853
 3553WAT    EPW14934   5.222   7.065   2.855
 3554WAT      O14935   4.671   6.995   2.288
 3554WAT     H114936   4.671   6.984   2.201
 3554WAT     H214937   4.653   7.080   2.297
 3554WAT    EPW14938   4.668   7.006   2.276
 3555WAT      O14939   4.258   7.339   3.737
 3555WAT     H114940   4.204   7.288   3.784
 3555WAT     H214941   4.260   7.300   3.659
 3555WAT    EPW14942   4.250   7.325   3.732
 3556WAT      O14943   4.306   7.278   2.251
 3556WAT     H114944   4.294   7.234   2.325
 3556WAT     H214945   4.248   7.244   2.196
 3556WAT    EPW14946   4.296   7.267   2.254
 3557WAT      O14947   4.323   7.461   2.911
 3557WAT     H114948   4.245   7.456   2.873
 3557WAT     H214949   4.330   7.386   2.955
 3557WAT    EPW14950   4.313   7.450   2.912
 3558WAT      O14951   4.366   7.435   3.258
 3558WAT     H114952   4.369   7.368   3.203
 3558WAT     H214953   4.301   7.485   3.227
 3558WAT    EPW14954   4.357   7.432   3.245
 3559WAT      O14955   5.356   7.206   3.097
 3559WAT     H114956   5.289   7.239   3.144
 3559WAT     H214957   5.374   7.270   3.040
 3559WAT    EPW14958   5.349   7.221   3.096
 3560WAT      O14959   5.020   6.797   3.440
 3560WAT     H114960   5.035   6.715   3.416
 3560WAT     H214961   5.058   6.803   3.519
 3560WAT    EPW14962   5.028   6.786   3.448
 3561WAT      O14963   5.175   7.003   2.448
 3561WAT     H114964   5.224   7.075   2.441
 3561WAT     H214965   5.096   7.029   2.422
 3561WAT    EPW14966   5.170   7.018   2.443
 3562WAT      O14967   4.833   7.150   3.021
 3562WAT     H114968   4.881   7.220   3.042
 3562WAT     H214969   4.870   7.086   3.066
 3562WAT    EPW14970   4.846   7.151   3.031
 3563WAT      O14971   5.052   7.467   2.248
 3563WAT     H114972   5.051   7.539   2.199
 3563WAT     H214973   4.988   7.481   2.306
 3563WAT    EPW14974   5.042   7.480   2.250
 3564WAT      O14975   4.511   6.701   2.214
 3564WAT     H114976   4.521   6.691   2.301
 3564WAT     H214977   4.440   6.752   2.208
 3564WAT    EPW14978   4.502   6.707   2.226
 3565WAT      O14979   5.584   6.676   3.754
 3565WAT     H114980   5.520   6.636   3.710
 3565WAT     H214981   5.587   6.632   3.830
 3565WAT    EPW14982   5.575   6.663   3.759
 3566WAT      O14983   3.923   6.698   2.436
 3566WAT     H114984   3.936   6.627   2.386
 3566WAT     H214985   3.886   6.666   2.508
 3566WAT    EPW14986   3.920   6.683   2.439
 3567WAT      O14987   4.892   7.466   2.481
 3567WAT     H114988   4.898   7.531   2.539
 3567WAT     H214989   4.874   7.397   2.530
 3567WAT    EPW14990   4.891   7.466   2.497
 3568WAT      O14991   4.342   6.918   2.132
 3568WAT     H114992   4.291   6.923   2.062
 3568WAT     H214993   4.420   6.942   2.103
 3568WAT    EPW14994   4.346   6.922   2.118
 3569WAT      O14995   4.523   7.157   2.829
 3569WAT     H114996   4.607   7.138   2.839
 3569WAT     H214997   4.486   7.080   2.816
 3569WAT    EPW14998   4.530   7.143   2.829
 3570WAT      O14999   4.005   7.291   2.495
 3570WAT     H115000   4.054   7.262   2.561
 3570WAT     H215001   4.018   7.232   2.432
 3570WAT    EPW15002   4.014   7.278   2.495
 3571WAT      O15003   4.457   7.435   2.044
 3571WAT     H115004   4.396   7.394   2.091
 3571WAT     H215005   4.419   7.446   1.966
 3571WAT    EPW15006   4.442   7.430   2.039
 3572WAT      O15007   4.603   7.281   2.315
 3572WAT     H115008   4.630   7.363   2.321
 3572WAT     H215009   4.516   7.288   2.305
 3572WAT    EPW15010   4.594   7.294   2.314
 3573WAT      O15011   5.400   6.993   3.778
 3573WAT     H115012   5.347   7.039   3.830
 3573WAT     H215013   5.364   6.913   3.777
 3573WAT    EPW15014   5.387   6.988   3.785
 3574WAT      O15015   3.951   6.878   2.968
 3574WAT     H115016   3.955   6.912   2.888
 3574WAT     H215017   4.026   6.901   3.005
 3574WAT    EPW15018   3.962   6.886   2.962
 3575WAT      O15019   5.249   7.350   3.785
 3575WAT     H115020   5.256   7.360   3.872
 3575WAT     H215021   5.186   7.406   3.763
 3575WAT    EPW15022   5.241   7.360   3.795
 3576WAT      O15023   5.476   7.382   3.622
 3576WAT     H115024   5.508   7.460   3.642
 3576WAT     H215025   5.439   7.355   3.696
 3576WAT    EPW15026   5.475   7.389   3.636
 3577WAT      O15027   5.456   7.208   2.741
 3577WAT     H115028   5.381   7.175   2.773
 3577WAT     H215029   5.456   7.290   2.769
 3577WAT    EPW15030   5.445   7.215   2.750
 3578WAT      O15031   5.746   7.436   3.895
 3578WAT     H115032   5.741   7.402   3.815
 3578WAT     H215033   5.819   7.483   3.893
 3578WAT    EPW15034   5.756   7.438   3.883
 3579WAT      O15035   5.347   6.841   3.487
 3579WAT     H115036   5.421   6.886   3.481
 3579WAT     H215037   5.290   6.888   3.440
 3579WAT    EPW15038   5.349   6.854   3.479
 3580WAT      O15039   4.536   7.129   3.469
 3580WAT     H115040   4.552   7.055   3.511
 3580WAT     H215041   4.531   7.104   3.385
 3580WAT    EPW15042   4.537   7.115   3.463
 3581WAT      O15043   5.475   6.639   3.254
 3581WAT     H115044   5.447   6.721   3.249
 3581WAT     H215045   5.547   6.644   3.303
 3581WAT    EPW15046   5.482   6.652   3.261
 3582WAT      O15047   4.711   6.710   3.457
 3582WAT     H115048   4.781   6.742   3.417
 3582WAT     H215049   4.735   6.629   3.479
 3582WAT    EPW15050   4.725   6.703   3.454
 3583WAT      O15051   5.617   7.264   2.140
 3583WAT     H115052   5.655   7.332   2.100
 3583WAT     H215053   5.533   7.286   2.143
 3583WAT    EPW15054   5.610   7.277   2.134
 3584WAT      O15055   4.362   7.215   3.063
 3584WAT     H115056   4.406   7.205   2.988
 3584WAT     H215057   4.416   7.184   3.123
 3584WAT    EPW15058   4.376   7.209   3.061
 3585WAT      O15059   5.163   7.126   3.622
 3585WAT     H115060   5.098   7.173   3.657
 3585WAT     H215061   5.220   7.117   3.688
 3585WAT    EPW15062   5.162   7.131   3.637
 3586WAT      O15063   5.132   7.279   3.252
 3586WAT     H115064   5.162   7.321   3.322
 3586WAT     H215065   5.136   7.195   3.275
 3586WAT    EPW15066   5.137   7.273   3.266
 3587WAT      O15067   5.387   7.224   2.477
 3587WAT     H115068   5.408   7.204   2.559
 3587WAT     H215069   5.462   7.251   2.443
 3587WAT    EPW15070   5.401   7.225   2.484
 3588WAT      O15071   4.716   6.714   3.068
 3588WAT     H115072   4.634   6.699   3.091
 3588WAT     H215073   4.712   6.717   2.980
 3588WAT    EPW15074   4.704   6.712   3.058
 3589WAT      O15075   5.489   6.832   2.624
 3589WAT     H115076   5.418   6.785   2.642
 3589WAT     H215077   5.473   6.866   2.546
 3589WAT    EPW15078   5.476   6.830   2.615
 3590WAT      O15079   3.973   6.754   3.671
 3590WAT     H115080   3.959   6.833   3.638
 3590WAT     H215081   3.894   6.729   3.700
 3590WAT    EPW15082   3.959   6.762   3.670
 3591WAT      O15083   4.279   7.028   2.394
 3591WAT     H115084   4.292   6.995   2.314
 3591WAT     H215085   4.198   7.003   2.413
 3591WAT    EPW15086   4.269   7.020   2.385
 3592WAT      O15087   5.747   7.343   3.638
 3592WAT     H115088   5.661   7.331   3.651
 3592WAT     H215089   5.762   7.304   3.562
 3592WAT    EPW15090   5.737   7.336   3.629
 3593WAT      O15091   5.198   7.410   3.496
 3593WAT     H115092   5.173   7.338   3.538
 3593WAT     H215093   5.280   7.422   3.523
 3593WAT    EPW15094   5.207   7.401   3.506
 3594WAT      O15095   4.277   7.229   3.435
 3594WAT     H115096   4.314   7.291   3.386
 3594WAT     H215097   4.344   7.182   3.464
 3594WAT    EPW15098   4.292   7.231   3.432
 3595WAT      O15099   4.054   7.074   3.363
 3595WAT     H115100   4.062   7.057   3.277
 3595WAT     H215101   4.129   7.115   3.382
 3595WAT    EPW15102   4.067   7.077   3.353
 3596WAT      O15103   5.610   7.338   2.407
 3596WAT     H115104   5.621   7.332   2.320
 3596WAT     H215105   5.684   7.305   2.438
 3596WAT    EPW15106   5.623   7.332   2.399
 3597WAT      O15107   4.310   6.815   3.604
 3597WAT     H115108   4.302   6.731   3.624
 3597WAT     H215109   4.278   6.819   3.522
 3597WAT    EPW15110   4.304   6.803   3.595
 3598WAT      O15111   5.521   7.353   3.342
 3598WAT     H115112   5.520   7.266   3.355
 3598WAT     H215113   5.527   7.385   3.423
 3598WAT    EPW15114   5.522   7.345   3.356
 3599WAT      O15115   4.140   7.190   2.047
 3599WAT     H115116   4.073   7.192   2.102
 3599WAT     H215117   4.149   7.105   2.028
 3599WAT    EPW15118   4.131   7.178   2.052
 3600WAT      O15119   5.108   6.833   3.720
 3600WAT     H115120   5.118   6.904   3.770
 3600WAT     H215121   5.045   6.788   3.760
 3600WAT    EPW15122   5.100   6.836   3.734
 3601WAT      O15123   5.008   6.852   2.806
 3601WAT     H115124   4.938   6.903   2.800
 3601WAT     H215125   5.012   6.814   2.727
 3601WAT    EPW15126   4.998   6.854   2.793
 3602WAT      O15127   5.368   6.903   3.086
 3602WAT     H115128   5.453   6.913   3.100
 3602WAT     H215129   5.331   6.958   3.142
 3602WAT    EPW15130   5.375   6.913   3.096
 3603WAT      O15131   5.398   7.431   2.935
 3603WAT     H115132   5.465   7.485   2.951
 3603WAT     H215133   5.364   7.462   2.861
 3603WAT    EPW15134   5.403   7.444   2.926
 3604WAT      O15135   4.513   6.823   3.269
 3604WAT     H115136   4.427   6.832   3.277
 3604WAT     H215137   4.535   6.772   3.335
 3604WAT    EPW15138   4.504   6.817   3.280
 3605WAT      O15139   5.715   6.687   3.401
 3605WAT     H115140   5.710   6.683   3.488
 3605WAT     H215141   5.784   6.637   3.382
 3605WAT    EPW15142   5.725   6.679   3.411
 3606WAT      O15143   4.924   6.898   3.106
 3606WAT     H115144   4.850   6.853   3.117
 3606WAT     H215145   4.981   6.858   3.158
 3606WAT    EPW15146   4.921   6.886   3.115
 3607WAT      O15147   4.674   7.331   3.626
 3607WAT     H115148   4.642   7.274   3.569
 3607WAT     H215149   4.638   7.407   3.602
 3607WAT    EPW15150   4.664   7.334   3.614
 3608WAT      O15151   4.754   6.656   2.089
 3608WAT     H115152   4.761   6.681   2.006
 3608WAT     H215153   4.679   6.694   2.115
 3608WAT    EPW15154   4.744   6.666   2.081
 3609WAT      O15155   4.235   6.832   3.333
 3609WAT     H115156   4.201   6.755   3.310
 3609WAT     H215157   4.166   6.884   3.340
 3609WAT    EPW15158   4.220   6.828   3.331
 3610WAT      O15159   5.140   6.717   3.031
 3610WAT     H115160   5.207   6.772   3.044
 3610WAT     H215161   5.090   6.760   2.974
 3610WAT    EPW15162   5.142   6.732   3.024
 3611WAT      O15163   5.076   7.298   2.780
 3611WAT     H115164   5.131   7.237   2.810
 3611WAT     H215165   5.033   7.324   2.852
 3611WAT    EPW15166   5.078   7.293   2.795
 3612WAT      O15167   4.101   7.163   2.729
 3612WAT     H115168   4.064   7.193   2.802
 3612WAT     H215169   4.154   7.100   2.757
 3612WAT    EPW15170   4.103   7.158   2.744
 3613WAT      O15171   5.273   7.481   2.437
 3613WAT     H115172   5.280   7.396   2.455
 3613WAT     H215173   5.191   7.490   2.409
 3613WAT    EPW15174   5.262   7.470   2.435
 3614WAT      O15175   5.663   7.075   3.825
 3614WAT     H115176   5.643   7.139   3.881
 3614WAT     H215177   5.591   7.026   3.825
 3614WAT    EPW15178   5.649   7.077   3.834
 3615WAT      O15179   5.653   7.169   3.123
 3615WAT     H115180   5.569   7.194   3.115
 3615WAT     H215181   5.647   7.085   3.145
 3615WAT    EPW15182   5.640   7.160   3.125
 3616WAT      O15183   4.579   6.868   3.642
 3616WAT     H115184   4.602   6.810   3.581
 3616WAT     H215185   4.494   6.850   3.656
 3616WAT    EPW15186   4.570   6.857   3.635
 3617WAT      O15187   5.018   6.688   0.677
 3617WAT     H115188   4.993   6.737   0.609
 3617WAT     H215189   5.104   6.681   0.667
 3617WAT    EPW15190   5.027   6.694   0.666
 3618WAT      O15191   4.999   7.380   1.145
 3618WAT     H115192   4.946   7.439   1.181
 3618WAT     H215193   5.038   7.343   1.213
 3618WAT    EPW15194   4.997   7.383   1.160
 3619WAT      O15195   3.960   7.173   0.341
 3619WAT     H115196   3.882   7.189   0.305
 3619WAT     H215197   3.964   7.086   0.343
 3619WAT    EPW15198   3.949   7.162   0.336
 3620WAT      O15199   5.266   7.486   0.812
 3620WAT     H115200   5.274   7.487   0.725
 3620WAT     H215201   5.207   7.423   0.827
 3620WAT    EPW15202   5.258   7.477   0.802
 3621WAT      O15203   4.665   6.797   0.593
 3621WAT     H115204   4.658   6.865   0.538
 3621WAT     H215205   4.739   6.758   0.568
 3621WAT    EPW15206   4.675   6.801   0.581
 3622WAT      O15207   4.124   7.519   0.736
 3622WAT     H115208   4.078   7.480   0.673
 3622WAT     H215209   4.194   7.468   0.745
 3622WAT    EPW15210   4.128   7.506   0.728
 3623WAT      O15211   4.575   7.080   1.271
 3623WAT     H115212   4.643   7.082   1.216
 3623WAT     H215213   4.570   6.997   1.295
 3623WAT    EPW15214   4.584   7.068   1.266
 3624WAT      O15215   4.324   7.329   0.738
 3624WAT     H115216   4.406   7.311   0.762
 3624WAT     H215217   4.277   7.268   0.778
 3624WAT    EPW15218   4.329   7.318   0.748
 3625WAT      O15219   4.947   7.285   1.754
 3625WAT     H115220   4.862   7.276   1.736
 3625WAT     H215221   4.950   7.360   1.800
 3625WAT    EPW15222   4.935   7.295   1.758
 3626WAT      O15223   4.384   6.839   0.665
 3626WAT     H115224   4.354   6.889   0.600
 3626WAT     H215225   4.471   6.847   0.659
 3626WAT    EPW15226   4.392   6.847   0.654
 3627WAT      O15227   5.403   6.581   1.666
 3627WAT     H115228   5.387   6.658   1.627
 3627WAT     H215229   5.326   6.559   1.700
 3627WAT    EPW15230   5.389   6.590   1.665
 3628WAT      O15231   4.682   6.753   0.887
 3628WAT     H115232   4.689   6.839   0.900
 3628WAT     H215233   4.678   6.745   0.800
 3628WAT    EPW15234   4.682   6.765   0.876
 3629WAT      O15235   3.970   7.295   1.037
 3629WAT     H115236   3.944   7.379   1.030
 3629WAT     H215237   3.903   7.257   1.079
 3629WAT    EPW15238   3.956   7.302   1.042
 3630WAT      O15239   4.273   6.777   1.086
 3630WAT     H115240   4.221   6.714   1.055
 3630WAT     H215241   4.332   6.733   1.133
 3630WAT    EPW15242   4.274   6.761   1.089
 3631WAT      O15243   4.603   6.990   2.016
 3631WAT     H115244   4.615   6.945   1.942
 3631WAT     H215245   4.632   7.070   1.996
 3631WAT    EPW15246   4.609   6.996   2.002
 3632WAT      O15247   5.689   7.043   0.746
 3632WAT     H115248   5.654   7.111   0.789
 3632WAT     H215249   5.625   6.983   0.748
 3632WAT    EPW15250   5.674   7.044   0.753
 3633WAT      O15251   4.177   6.950   1.914
 3633WAT     H115252   4.099   6.911   1.907
 3633WAT     H215253   4.226   6.909   1.855
 3633WAT    EPW15254   4.172   6.938   1.905
 3634WAT      O15255   4.841   6.714   1.831
 3634WAT     H115256   4.859   6.634   1.804
 3634WAT     H215257   4.827   6.759   1.757
 3634WAT    EPW15258   4.842   6.709   1.816
 3635WAT      O15259   4.901   7.207   0.709
 3635WAT     H115260   4.930   7.184   0.630
 3635WAT     H215261   4.974   7.215   0.755
 3635WAT    EPW15262   4.916   7.205   0.704
 3636WAT      O15263   4.973   7.241   0.221
 3636WAT     H115264   5.001   7.320   0.246
 3636WAT     H215265   4.895   7.257   0.184
 3636WAT    EPW15266   4.966   7.255   0.219
 3637WAT      O15267   5.656   6.875   1.283
 3637WAT     H115268   5.732   6.882   1.241
 3637WAT     H215269   5.662   6.798   1.323
 3637WAT    EPW15270   5.668   6.865   1.283
 3638WAT      O15271   3.911   7.005   1.673
 3638WAT     H115272   3.911   7.064   1.738
 3638WAT     H215273   3.971   7.036   1.617
 3638WAT    EPW15274   3.920   7.018   1.674
 3639WAT      O15275   5.210   6.848   0.308
 3639WAT     H115276   5.264   6.779   0.315
 3639WAT     H215277   5.216   6.887   0.385
 3639WAT    EPW15278   5.219   6.843   0.320
 3640WAT      O15279   4.005   6.964   0.565
 3640WAT     H115280   3.994   6.878   0.568
 3640WAT     H215281   3.958   6.994   0.632
 3640WAT    EPW15282   3.996   6.956   0.575
 3641WAT      O15283   4.935   7.085   0.439
 3641WAT     H115284   4.885   7.019   0.414
 3641WAT     H215285   4.941   7.136   0.368
 3641WAT    EPW15286   4.929   7.083   0.425
 3642WAT      O15287   4.935   6.779   0.428
 3642WAT     H115288   4.890   6.739   0.366
 3642WAT     H215289   5.013   6.795   0.391
 3642WAT    EPW15290   4.940   6.776   0.413
 3643WAT      O15291   4.795   7.016   0.880
 3643WAT     H115292   4.803   7.073   0.815
 3643WAT     H215293   4.807   7.065   0.951
 3643WAT    EPW15294   4.798   7.032   0.881
 3644WAT      O15295   4.256   6.598   0.715
 3644WAT     H115296   4.310   6.667   0.714
 3644WAT     H215297   4.256   6.571   0.632
 3644WAT    EPW15298   4.264   6.604   0.703
 3645WAT      O15299   5.174   7.033   1.469
 3645WAT     H115300   5.165   7.065   1.550
 3645WAT     H215301   5.115   6.969   1.465
 3645WAT    EPW15302   5.164   7.028   1.481
 3646WAT      O15303   5.300   6.627   0.753
 3646WAT     H115304   5.305   6.596   0.834
 3646WAT     H215305   5.332   6.563   0.703
 3646WAT    EPW15306   5.306   6.613   0.757
 3647WAT      O15307   5.546   7.051   1.584
 3647WAT     H115308   5.624   7.029   1.617
 3647WAT     H215309   5.499   7.073   1.654
 3647WAT    EPW15310   5.551   7.051   1.599
 3648WAT      O15311   4.301   6.979   0.881
 3648WAT     H115312   4.328   6.936   0.810
 3648WAT     H215313   4.283   6.916   0.938
 3648WAT    EPW15314   4.302   6.964   0.879
 3649WAT      O15315   4.115   7.090   1.189
 3649WAT     H115316   4.199   7.112   1.184
 3649WAT     H215317   4.076   7.147   1.136
 3649WAT    EPW15318   4.122   7.101   1.180
 3650WAT      O15319   5.359   7.403   0.261
 3650WAT     H115320   5.337   7.476   0.219
 3650WAT     H215321   5.314   7.408   0.336
 3650WAT    EPW15322   5.349   7.414   0.266
 3651WAT      O15323   5.778   6.889   0.206
 3651WAT     H115324   5.712   6.832   0.208
 3651WAT     H215325   5.759   6.940   0.138
 3651WAT    EPW15326   5.765   6.888   0.196
 3652WAT      O15327   4.700   7.258   2.001
 3652WAT     H115328   4.652   7.316   2.045
 3652WAT     H215329   4.698   7.288   1.918
 3652WAT    EPW15330   4.693   7.271   1.995
 3653WAT      O15331   5.810   7.326   1.462
 3653WAT     H115332   5.832   7.246   1.434
 3653WAT     H215333   5.725   7.332   1.443
 3653WAT    EPW15334   5.801   7.316   1.455
 3654WAT      O15335   5.578   6.844   0.434
 3654WAT     H115336   5.653   6.804   0.454
 3654WAT     H215337   5.604   6.916   0.392
 3654WAT    EPW15338   5.593   6.849   0.431
 3655WAT      O15339   5.223   7.073   0.941
 3655WAT     H115340   5.258   7.088   1.020
 3655WAT     H215341   5.178   6.999   0.953
 3655WAT    EPW15342   5.222   7.065   0.955
 3656WAT      O15343   4.671   6.995   0.387
 3656WAT     H115344   4.671   6.984   0.301
 3656WAT     H215345   4.653   7.080   0.396
 3656WAT    EPW15346   4.668   7.006   0.376
 3657WAT      O15347   4.258   7.339   1.836
 3657WAT     H115348   4.204   7.288   1.883
 3657WAT     H215349   4.260   7.300   1.758
 3657WAT    EPW15350   4.250   7.325   1.832
 3658WAT      O15351   4.306   7.278   0.350
 3658WAT     H115352   4.294   7.234   0.424
 3658WAT     H215353   4.248   7.244   0.295
 3658WAT    EPW15354   4.296   7.267   0.353
 3659WAT      O15355   4.323   7.461   1.010
 3659WAT     H115356   4.245   7.456   0.972
 3659WAT     H215357   4.330   7.386   1.054
 3659WAT    EPW15358   4.313   7.450   1.011
 3660WAT      O15359   4.366   7.435   1.357
 3660WAT     H115360   4.369   7.368   1.302
 3660WAT     H215361   4.301   7.485   1.326
 3660WAT    EPW15362   4.357   7.432   1.344
 3661WAT      O15363   5.356   7.206   1.197
 3661WAT     H115364   5.289   7.239   1.243
 3661WAT     H215365   5.374   7.270   1.140
 3661WAT    EPW15366   5.349   7.221   1.195
 3662WAT      O15367   5.020   6.797   1.540
 3662WAT     H115368   5.035   6.715   1.515
 3662WAT     H215369   5.058   6.803   1.618
 3662WAT    EPW15370   5.028   6.786   1.548
 3663WAT      O15371   5.175   7.003   0.548
 3663WAT     H115372   5.224   7.075   0.540
 3663WAT     H215373   5.096   7.029   0.522
 3663WAT    EPW15374   5.170   7.018   0.543
 3664WAT      O15375   4.833   7.150   1.120
 3664WAT     H115376   4.881   7.220   1.141
 3664WAT     H215377   4.870   7.086   1.165
 3664WAT    EPW15378   4.846   7.151   1.130
 3665WAT      O15379   5.052   7.467   0.348
 3665WAT     H115380   5.051   7.539   0.299
 3665WAT     H215381   4.988   7.481   0.405
 3665WAT    EPW15382   5.042   7.480   0.349
 3666WAT      O15383   4.511   6.701   0.314
 3666WAT     H115384   4.521   6.691   0.400
 3666WAT     H215385   4.440   6.752   0.307
 3666WAT    EPW15386   4.502   6.707   0.326
 3667WAT      O15387   5.584   6.676   1.854
 3667WAT     H115388   5.520   6.636   1.809
 3667WAT     H215389   5.587   6.632   1.929
 3667WAT    EPW15390   5.575   6.663   1.858
 3668WAT      O15391   3.923   6.698   0.535
 3668WAT     H115392   3.936   6.627   0.486
 3668WAT     H215393   3.886   6.666   0.607
 3668WAT    EPW15394   3.920   6.683   0.538
 3669WAT      O15395   4.892   7.466   0.581
 3669WAT     H115396   4.898   7.531   0.639
 3669WAT     H215397   4.874   7.397   0.630
 3669WAT    EPW15398   4.891   7.466   0.596
 3670WAT      O15399   4.342   6.918   0.232
 3670WAT     H115400   4.291   6.923   0.161
 3670WAT     H215401   4.420   6.942   0.202
 3670WAT    EPW15402   4.346   6.922   0.217
 3671WAT      O15403   4.523   7.157   0.929
 3671WAT     H115404   4.607   7.138   0.939
 3671WAT     H215405   4.486   7.080   0.915
 3671WAT    EPW15406   4.530   7.143   0.928
 3672WAT      O15407   4.005   7.291   0.594
 3672WAT     H115408   4.054   7.262   0.660
 3672WAT     H215409   4.018   7.232   0.532
 3672WAT    EPW15410   4.014   7.278   0.595
 3673WAT      O15411   4.603   7.281   0.414
 3673WAT     H115412   4.630   7.363   0.421
 3673WAT     H215413   4.516   7.288   0.404
 3673WAT    EPW15414   4.594   7.294   0.413
 3674WAT      O15415   5.400   6.993   1.877
 3674WAT     H115416   5.347   7.039   1.930
 3674WAT     H215417   5.364   6.913   1.877
 3674WAT    EPW15418   5.387   6.988   1.885
 3675WAT      O15419   3.951   6.878   1.068
 3675WAT     H115420   3.955   6.912   0.987
 3675WAT     H215421   4.026   6.901   1.104
 3675WAT    EPW15422   3.962   6.886   1.061
 3676WAT      O15423   5.249   7.350   1.885
 3676WAT     H115424   5.256   7.360   1.971
 3676WAT     H215425   5.186   7.406   1.863
 3676WAT    EPW15426   5.241   7.360   1.894
 3677WAT      O15427   5.476   7.382   1.721
 3677WAT     H115428   5.508   7.460   1.742
 3677WAT     H215429   5.439   7.355   1.796
 3677WAT    EPW15430   5.475   7.389   1.735
 3678WAT      O15431   5.456   7.208   0.840
 3678WAT     H115432   5.381   7.175   0.872
 3678WAT     H215433   5.456   7.290   0.868
 3678WAT    EPW15434   5.445   7.215   0.849
 3679WAT      O15435   5.746   7.436   1.995
 3679WAT     H115436   5.741   7.402   1.915
 3679WAT     H215437   5.819   7.483   1.993
 3679WAT    EPW15438   5.756   7.438   1.983
 3680WAT      O15439   5.347   6.841   1.586
 3680WAT     H115440   5.421   6.886   1.580
 3680WAT     H215441   5.290   6.888   1.539
 3680WAT    EPW15442   5.349   6.854   1.578
 3681WAT      O15443   4.536   7.129   1.568
 3681WAT     H115444   4.552   7.055   1.611
 3681WAT     H215445   4.531   7.104   1.485
 3681WAT    EPW15446   4.537   7.115   1.562
 3682WAT      O15447   5.475   6.639   1.353
 3682WAT     H115448   5.447   6.721   1.349
 3682WAT     H215449   5.547   6.644   1.403
 3682WAT    EPW15450   5.482   6.652   1.360
 3683WAT      O15451   4.711   6.710   1.556
 3683WAT     H115452   4.781   6.742   1.516
 3683WAT     H215453   4.735   6.629   1.579
 3683WAT    EPW15454   4.725   6.703   1.554
 3684WAT      O15455   5.617   7.264   0.239
 3684WAT     H115456   5.655   7.332   0.199
 3684WAT     H215457   5.533   7.286   0.242
 3684WAT    EPW15458   5.610   7.277   0.233
 3685WAT      O15459   4.362   7.215   1.162
 3685WAT     H115460   4.406   7.205   1.088
 3685WAT     H215461   4.416   7.184   1.223
 3685WAT    EPW15462   4.376   7.209   1.160
 3686WAT      O15463   5.163   7.126   1.721
 3686WAT     H115464   5.098   7.173   1.756
 3686WAT     H215465   5.220   7.117   1.787
 3686WAT    EPW15466   5.162   7.131   1.736
 3687WAT      O15467   5.132   7.279   1.351
 3687WAT     H115468   5.162   7.321   1.422
 3687WAT     H215469   5.136   7.195   1.374
 3687WAT    EPW15470   5.137   7.273   1.365
 3688WAT      O15471   5.387   7.224   0.576
 3688WAT     H115472   5.408   7.204   0.659
 3688WAT     H215473   5.462   7.251   0.542
 3688WAT    EPW15474   5.401   7.225   0.584
 3689WAT      O15475   4.716   6.714   1.167
 3689WAT     H115476   4.634   6.699   1.191
 3689WAT     H215477   4.712   6.717   1.080
 3689WAT    EPW15478   4.704   6.712   1.158
 3690WAT      O15479   5.489   6.832   0.724
 3690WAT     H115480   5.418   6.785   0.741
 3690WAT     H215481   5.473   6.866   0.645
 3690WAT    EPW15482   5.476   6.830   0.715
 3691WAT      O15483   3.973   6.754   1.770
 3691WAT     H115484   3.959   6.833   1.737
 3691WAT     H215485   3.894   6.729   1.799
 3691WAT    EPW15486   3.959   6.762   1.770
 3692WAT      O15487   4.279   7.028   0.493
 3692WAT     H115488   4.292   6.995   0.413
 3692WAT     H215489   4.198   7.003   0.513
 3692WAT    EPW15490   4.269   7.020   0.484
 3693WAT      O15491   5.747   7.343   1.738
 3693WAT     H115492   5.661   7.331   1.750
 3693WAT     H215493   5.762   7.304   1.661
 3693WAT    EPW15494   5.737   7.336   1.728
 3694WAT      O15495   5.198   7.410   1.595
 3694WAT     H115496   5.173   7.338   1.637
 3694WAT     H215497   5.280   7.422   1.622
 3694WAT    EPW15498   5.207   7.401   1.605
 3695WAT      O15499   4.277   7.229   1.535
 3695WAT     H115500   4.314   7.291   1.486
 3695WAT     H215501   4.344   7.182   1.563
 3695WAT    EPW15502   4.292   7.231   1.532
 3696WAT      O15503   4.054   7.074   1.462
 3696WAT     H115504   4.062   7.057   1.377
 3696WAT     H215505   4.129   7.115   1.482
 3696WAT    EPW15506   4.067   7.077   1.452
 3697WAT      O15507   5.610   7.338   0.506
 3697WAT     H115508   5.621   7.332   0.420
 3697WAT     H215509   5.684   7.305   0.538
 3697WAT    EPW15510   5.623   7.332   0.498
 3698WAT      O15511   4.310   6.815   1.703
 3698WAT     H115512   4.302   6.731   1.724
 3698WAT     H215513   4.278   6.819   1.622
 3698WAT    EPW15514   4.304   6.803   1.694
 3699WAT      O15515   5.521   7.353   1.442
 3699WAT     H115516   5.520   7.266   1.454
 3699WAT     H215517   5.527   7.385   1.522
 3699WAT    EPW15518   5.522   7.345   1.455
 3700WAT      O15519   5.108   6.833   1.820
 3700WAT     H115520   5.118   6.904   1.869
 3700WAT     H215521   5.045   6.788   1.860
 3700WAT    EPW15522   5.100   6.836   1.833
 3701WAT      O15523   5.008   6.852   0.905
 3701WAT     H115524   4.938   6.903   0.900
 3701WAT     H215525   5.012   6.814   0.827
 3701WAT    EPW15526   4.998   6.854   0.893
 3702WAT      O15527   5.368   6.903   1.185
 3702WAT     H115528   5.453   6.913   1.200
 3702WAT     H215529   5.331   6.958   1.242
 3702WAT    EPW15530   5.375   6.913   1.196
 3703WAT      O15531   5.398   7.431   1.034
 3703WAT     H115532   5.465   7.485   1.050
 3703WAT     H215533   5.364   7.462   0.960
 3703WAT    EPW15534   5.403   7.444   1.026
 3704WAT      O15535   4.513   6.823   1.368
 3704WAT     H115536   4.427   6.832   1.376
 3704WAT     H215537   4.535   6.772   1.435
 3704WAT    EPW15538   4.504   6.817   1.379
 3705WAT      O15539   5.715   6.687   1.501
 3705WAT     H115540   5.710   6.683   1.588
 3705WAT     H215541   5.784   6.637   1.482
 3705WAT    EPW15542   5.725   6.679   1.511
 3706WAT      O15543   4.924   6.898   1.205
 3706WAT     H115544   4.850   6.853   1.217
 3706WAT     H215545   4.981   6.858   1.258
 3706WAT    EPW15546   4.921   6.886   1.215
 3707WAT      O15547   4.674   7.331   1.726
 3707WAT     H115548   4.642   7.274   1.669
 3707WAT     H215549   4.638   7.407   1.701
 3707WAT    EPW15550   4.664   7.334   1.714
 3708WAT      O15551   4.235   6.832   1.433
 3708WAT     H115552   4.201   6.755   1.409
 3708WAT     H215553   4.166   6.884   1.439
 3708WAT    EPW15554   4.220   6.828   1.430
 3709WAT      O15555   5.140   6.717   1.130
 3709WAT     H115556   5.207   6.772   1.143
 3709WAT     H215557   5.090   6.760   1.073
 3709WAT    EPW15558   5.142   6.732   1.124
 3710WAT      O15559   5.076   7.298   0.880
 3710WAT     H115560   5.131   7.237   0.910
 3710WAT     H215561   5.033   7.324   0.951
 3710WAT    EPW15562   5.078   7.293   0.895
 3711WAT      O15563   4.101   7.163   0.828
 3711WAT     H115564   4.064   7.193   0.901
 3711WAT     H215565   4.154   7.100   0.857
 3711WAT    EPW15566   4.103   7.158   0.843
 3712WAT      O15567   5.273   7.481   0.536
 3712WAT     H115568   5.280   7.396   0.554
 3712WAT     H215569   5.191   7.490   0.508
 3712WAT    EPW15570   5.262   7.470   0.535
 3713WAT      O15571   5.663   7.075   1.925
 3713WAT     H115572   5.643   7.139   1.980
 3713WAT     H215573   5.591   7.026   1.924
 3713WAT    EPW15574   5.649   7.077   1.933
 3714WAT      O15575   5.653   7.169   1.222
 3714WAT     H115576   5.569   7.194   1.215
 3714WAT     H215577   5.647   7.085   1.245
 3714WAT    EPW15578   5.640   7.160   1.224
 3715WAT      O15579   4.579   6.868   1.741
 3715WAT     H115580   4.602   6.810   1.680
 3715WAT     H215581   4.494   6.850   1.755
 3715WAT    EPW15582   4.570   6.857   1.734
 3716WAT      O15583   5.018   4.840   6.379
 3716WAT     H115584   4.993   4.889   6.311
 3716WAT     H215585   5.104   4.833   6.369
 3716WAT    EPW15586   5.027   4.846   6.368
 3717WAT      O15587   4.999   5.532   6.846
 3717WAT     H115588   4.946   5.592   6.883
 3717WAT     H215589   5.038   5.495   6.915
 3717WAT    EPW15590   4.997   5.535   6.862
 3718WAT      O15591   3.986   5.946   6.392
 3718WAT     H115592   3.941   5.958   6.466
 3718WAT     H215593   3.957   5.868   6.363
 3718WAT    EPW15594   3.975   5.936   6.399
 3719WAT      O15595   5.613   6.276   6.143
 3719WAT     H115596   5.683   6.224   6.143
 3719WAT     H215597   5.554   6.232   6.097
 3719WAT    EPW15598   5.615   6.262   6.136
 3720WAT      O15599   4.274   5.851   5.910
 3720WAT     H115600   4.235   5.814   5.841
 3720WAT     H215601   4.266   5.792   5.973
 3720WAT    EPW15602   4.267   5.837   5.909
 3721WAT      O15603   5.266   5.639   6.514
 3721WAT     H115604   5.274   5.639   6.427
 3721WAT     H215605   5.207   5.575   6.529
 3721WAT    EPW15606   5.258   5.629   6.503
 3722WAT      O15607   4.236   6.016   6.300
 3722WAT     H115608   4.297   5.999   6.360
 3722WAT     H215609   4.161   6.002   6.342
 3722WAT    EPW15610   4.234   6.011   6.315
 3723WAT      O15611   4.665   4.949   6.295
 3723WAT     H115612   4.658   5.017   6.240
 3723WAT     H215613   4.739   4.910   6.270
 3723WAT    EPW15614   4.675   4.953   6.283
 3724WAT      O15615   4.126   6.325   5.908
 3724WAT     H115616   4.172   6.333   5.834
 3724WAT     H215617   4.171   6.267   5.954
 3724WAT    EPW15618   4.139   6.317   5.904
 3725WAT      O15619   4.637   5.972   7.524
 3725WAT     H115620   4.613   5.972   7.608
 3725WAT     H215621   4.562   5.957   7.482
 3725WAT    EPW15622   4.622   5.970   7.530
 3726WAT      O15623   4.124   5.672   6.438
 3726WAT     H115624   4.078   5.632   6.375
 3726WAT     H215625   4.194   5.620   6.447
 3726WAT    EPW15626   4.128   5.658   6.430
 3727WAT      O15627   4.575   5.233   6.972
 3727WAT     H115628   4.643   5.234   6.917
 3727WAT     H215629   4.570   5.149   6.997
 3727WAT    EPW15630   4.584   5.220   6.968
 3728WAT      O15631   4.635   6.291   7.250
 3728WAT     H115632   4.649   6.367   7.210
 3728WAT     H215633   4.714   6.255   7.253
 3728WAT    EPW15634   4.649   6.297   7.245
 3729WAT      O15635   4.324   5.482   6.440
 3729WAT     H115636   4.406   5.463   6.464
 3729WAT     H215637   4.277   5.420   6.480
 3729WAT    EPW15638   4.329   5.470   6.449
 3730WAT      O15639   4.745   6.080   6.701
 3730WAT     H115640   4.779   6.000   6.704
 3730WAT     H215641   4.811   6.130   6.675
 3730WAT    EPW15642   4.760   6.075   6.698
 3731WAT      O15643   4.750   6.025   6.322
 3731WAT     H115644   4.783   5.960   6.371
 3731WAT     H215645   4.774   6.003   6.241
 3731WAT    EPW15646   4.759   6.012   6.317
 3732WAT      O15647   4.947   5.438   7.456
 3732WAT     H115648   4.862   5.428   7.438
 3732WAT     H215649   4.950   5.512   7.501
 3732WAT    EPW15650   4.935   5.447   7.460
 3733WAT      O15651   4.384   4.991   6.367
 3733WAT     H115652   4.354   5.041   6.302
 3733WAT     H215653   4.471   4.999   6.361
 3733WAT    EPW15654   4.392   5.000   6.356
 3734WAT      O15655   5.403   4.734   7.367
 3734WAT     H115656   5.387   4.811   7.329
 3734WAT     H215657   5.326   4.712   7.402
 3734WAT    EPW15658   5.389   4.742   7.367
 3735WAT      O15659   4.682   4.905   6.589
 3735WAT     H115660   4.689   4.991   6.602
 3735WAT     H215661   4.678   4.898   6.502
 3735WAT    EPW15662   4.682   4.917   6.578
 3736WAT      O15663   5.149   5.198   5.819
 3736WAT     H115664   5.104   5.266   5.849
 3736WAT     H215665   5.161   5.147   5.889
 3736WAT    EPW15666   5.144   5.200   5.834
 3737WAT      O15667   3.970   5.448   6.739
 3737WAT     H115668   3.944   5.531   6.731
 3737WAT     H215669   3.903   5.409   6.781
 3737WAT    EPW15670   3.956   5.454   6.744
 3738WAT      O15671   3.961   6.419   6.529
 3738WAT     H115672   3.902   6.474   6.498
 3738WAT     H215673   4.003   6.392   6.458
 3738WAT    EPW15674   3.958   6.423   6.514
 3739WAT      O15675   4.545   6.203   6.277
 3739WAT     H115676   4.487   6.176   6.336
 3739WAT     H215677   4.607   6.142   6.279
 3739WAT    EPW15678   4.545   6.190   6.286
 3740WAT      O15679   5.159   6.432   6.029
 3740WAT     H115680   5.232   6.479   6.039
 3740WAT     H215681   5.182   6.352   6.057
 3740WAT    EPW15682   5.173   6.427   6.035
 3741WAT      O15683   4.976   6.471   6.228
 3741WAT     H115684   4.997   6.524   6.294
 3741WAT     H215685   5.053   6.454   6.190
 3741WAT    EPW15686   4.990   6.476   6.232
 3742WAT      O15687   4.273   4.929   6.788
 3742WAT     H115688   4.221   4.867   6.757
 3742WAT     H215689   4.332   4.886   6.835
 3742WAT    EPW15690   4.274   4.914   6.790
 3743WAT      O15691   4.115   6.286   6.322
 3743WAT     H115692   4.181   6.228   6.324
 3743WAT     H215693   4.154   6.361   6.300
 3743WAT    EPW15694   4.131   6.288   6.319
 3744WAT      O15695   5.689   5.195   6.448
 3744WAT     H115696   5.654   5.263   6.491
 3744WAT     H215697   5.625   5.135   6.450
 3744WAT    EPW15698   5.674   5.196   6.455
 3745WAT      O15699   5.220   6.472   7.059
 3745WAT     H115700   5.294   6.518   7.058
 3745WAT     H215701   5.208   6.451   6.975
 3745WAT    EPW15702   5.229   6.476   7.046
 3746WAT      O15703   4.177   5.102   7.616
 3746WAT     H115704   4.099   5.063   7.609
 3746WAT     H215705   4.226   5.061   7.557
 3746WAT    EPW15706   4.172   5.090   7.606
 3747WAT      O15707   4.197   6.134   6.672
 3747WAT     H115708   4.239   6.099   6.605
 3747WAT     H215709   4.229   6.092   6.741
 3747WAT    EPW15710   4.208   6.123   6.672
 3748WAT      O15711   4.520   6.420   6.602
 3748WAT     H115712   4.605   6.430   6.582
 3748WAT     H215713   4.490   6.501   6.608
 3748WAT    EPW15714   4.528   6.433   6.600
 3749WAT      O15715   4.841   4.867   7.533
 3749WAT     H115716   4.859   4.786   7.506
 3749WAT     H215717   4.827   4.911   7.459
 3749WAT    EPW15718   4.842   4.861   7.518
 3750WAT      O15719   4.901   5.359   6.410
 3750WAT     H115720   4.930   5.336   6.331
 3750WAT     H215721   4.974   5.367   6.457
 3750WAT    EPW15722   4.916   5.357   6.406
 3751WAT      O15723   4.973   5.393   5.922
 3751WAT     H115724   5.001   5.472   5.947
 3751WAT     H215725   4.895   5.410   5.886
 3751WAT    EPW15726   4.966   5.407   5.921
 3752WAT      O15727   5.377   6.591   6.069
 3752WAT     H115728   5.444   6.576   6.015
 3752WAT     H215729   5.413   6.582   6.148
 3752WAT    EPW15730   5.392   6.587   6.073
 3753WAT      O15731   4.420   6.541   7.176
 3753WAT     H115732   4.449   6.535   7.258
 3753WAT     H215733   4.357   6.481   7.171
 3753WAT    EPW15734   4.415   6.532   7.187
 3754WAT      O15735   5.656   5.027   6.985
 3754WAT     H115736   5.732   5.035   6.942
 3754WAT     H215737   5.662   4.950   7.025
 3754WAT    EPW15738   5.668   5.017   6.985
 3755WAT      O15739   3.911   5.157   7.375
 3755WAT     H115740   3.911   5.216   7.439
 3755WAT     H215741   3.971   5.188   7.319
 3755WAT    EPW15742   3.920   5.170   7.376
 3756WAT      O15743   5.145   6.191   7.429
 3756WAT     H115744   5.142   6.229   7.507
 3756WAT     H215745   5.231   6.186   7.412
 3756WAT    EPW15746   5.157   6.196   7.438
 3757WAT      O15747   4.859   6.210   5.904
 3757WAT     H115748   4.841   6.265   5.970
 3757WAT     H215749   4.936   6.239   5.874
 3757WAT    EPW15750   4.868   6.223   5.909
 3758WAT      O15751   5.210   5.000   6.009
 3758WAT     H115752   5.264   4.932   6.017
 3758WAT     H215753   5.216   5.040   6.087
 3758WAT    EPW15754   5.219   4.996   6.022
 3759WAT      O15755   4.005   5.117   6.266
 3759WAT     H115756   3.994   5.030   6.269
 3759WAT     H215757   3.958   5.146   6.333
 3759WAT    EPW15758   3.996   5.108   6.277
 3760WAT      O15759   4.219   6.358   7.088
 3760WAT     H115760   4.149   6.307   7.100
 3760WAT     H215761   4.245   6.337   7.007
 3760WAT    EPW15762   4.213   6.347   7.078
 3761WAT      O15763   4.935   5.237   6.141
 3761WAT     H115764   4.885   5.171   6.115
 3761WAT     H215765   4.941   5.288   6.070
 3761WAT    EPW15766   4.929   5.235   6.127
 3762WAT      O15767   4.990   6.507   7.179
 3762WAT     H115768   5.067   6.499   7.138
 3762WAT     H215769   4.932   6.495   7.115
 3762WAT    EPW15770   4.993   6.504   7.163
 3763WAT      O15771   4.935   4.932   6.130
 3763WAT     H115772   4.890   4.891   6.067
 3763WAT     H215773   5.013   4.947   6.092
 3763WAT    EPW15774   4.940   4.928   6.115
 3764WAT      O15775   5.618   6.567   6.469
 3764WAT     H115776   5.573   6.639   6.489
 3764WAT     H215777   5.557   6.510   6.445
 3764WAT    EPW15778   5.602   6.569   6.468
 3765WAT      O15779   4.795   5.168   6.582
 3765WAT     H115780   4.803   5.225   6.516
 3765WAT     H215781   4.807   5.217   6.653
 3765WAT    EPW15782   4.798   5.184   6.583
 3766WAT      O15783   5.318   6.152   6.423
 3766WAT     H115784   5.388   6.104   6.442
 3766WAT     H215785   5.252   6.095   6.428
 3766WAT    EPW15786   5.318   6.136   6.427
 3767WAT      O15787   4.355   6.243   7.345
 3767WAT     H115788   4.439   6.249   7.322
 3767WAT     H215789   4.352   6.282   7.422
 3767WAT    EPW15790   4.367   6.250   7.353
 3768WAT      O15791   4.256   4.751   6.417
 3768WAT     H115792   4.310   4.819   6.416
 3768WAT     H215793   4.256   4.723   6.334
 3768WAT    EPW15794   4.264   4.757   6.405
 3769WAT      O15795   4.552   5.794   6.819
 3769WAT     H115796   4.569   5.773   6.902
 3769WAT     H215797   4.486   5.740   6.798
 3769WAT    EPW15798   4.545   5.783   6.829
 3770WAT      O15799   5.174   5.185   7.171
 3770WAT     H115800   5.165   5.217   7.252
 3770WAT     H215801   5.115   5.121   7.167
 3770WAT    EPW15802   5.164   5.180   7.182
 3771WAT      O15803   4.627   5.788   7.078
 3771WAT     H115804   4.632   5.872   7.099
 3771WAT     H215805   4.598   5.751   7.152
 3771WAT    EPW15806   4.623   5.795   7.092
 3772WAT      O15807   5.244   5.857   6.991
 3772WAT     H115808   5.193   5.816   7.049
 3772WAT     H215809   5.232   5.942   7.010
 3772WAT    EPW15810   5.235   5.864   7.003
 3773WAT      O15811   5.300   4.780   6.455
 3773WAT     H115812   5.305   4.748   6.536
 3773WAT     H215813   5.332   4.715   6.405
 3773WAT    EPW15814   5.306   4.765   6.459
 3774WAT      O15815   5.546   5.203   7.285
 3774WAT     H115816   5.624   5.181   7.319
 3774WAT     H215817   5.499   5.225   7.355
 3774WAT    EPW15818   5.551   5.203   7.301
 3775WAT      O15819   4.301   5.132   6.582
 3775WAT     H115820   4.328   5.089   6.512
 3775WAT     H215821   4.283   5.068   6.639
 3775WAT    EPW15822   4.302   5.116   6.580
 3776WAT      O15823   5.570   5.901   6.004
 3776WAT     H115824   5.582   5.872   6.086
 3776WAT     H215825   5.650   5.903   5.971
 3776WAT    EPW15826   5.583   5.897   6.011
 3777WAT      O15827   4.283   5.874   6.537
 3777WAT     H115828   4.368   5.866   6.520
 3777WAT     H215829   4.248   5.806   6.496
 3777WAT    EPW15830   4.291   5.863   6.529
 3778WAT      O15831   4.160   6.547   6.661
 3778WAT     H115832   4.093   6.497   6.636
 3778WAT     H215833   4.200   6.565   6.586
 3778WAT    EPW15834   4.156   6.542   6.646
 3779WAT      O15835   4.115   5.242   6.891
 3779WAT     H115836   4.199   5.264   6.886
 3779WAT     H215837   4.076   5.299   6.837
 3779WAT    EPW15838   4.122   5.253   6.882
 3780WAT      O15839   5.793   6.352   7.430
 3780WAT     H115840   5.725   6.383   7.385
 3780WAT     H215841   5.756   6.306   7.494
 3780WAT    EPW15842   5.777   6.350   7.432
 3781WAT      O15843   5.359   5.555   5.963
 3781WAT     H115844   5.337   5.628   5.920
 3781WAT     H215845   5.314   5.560   6.037
 3781WAT    EPW15846   5.349   5.566   5.967
 3782WAT      O15847   4.520   5.875   6.361
 3782WAT     H115848   4.591   5.924   6.370
 3782WAT     H215849   4.542   5.818   6.298
 3782WAT    EPW15850   4.534   5.874   6.353
 3783WAT      O15851   5.778   5.041   5.908
 3783WAT     H115852   5.712   4.984   5.910
 3783WAT     H215853   5.759   5.092   5.840
 3783WAT    EPW15854   5.765   5.040   5.898
 3784WAT      O15855   3.936   6.039   6.693
 3784WAT     H115856   3.869   6.088   6.720
 3784WAT     H215857   4.004   6.094   6.696
 3784WAT    EPW15858   3.936   6.054   6.697
 3785WAT      O15859   5.810   5.479   7.164
 3785WAT     H115860   5.832   5.399   7.136
 3785WAT     H215861   5.725   5.485   7.145
 3785WAT    EPW15862   5.801   5.468   7.157
 3786WAT      O15863   3.942   5.708   6.203
 3786WAT     H115864   3.924   5.624   6.218
 3786WAT     H215865   4.008   5.704   6.146
 3786WAT    EPW15866   3.949   5.695   6.197
 3787WAT      O15867   5.578   4.997   6.136
 3787WAT     H115868   5.653   4.956   6.156
 3787WAT     H215869   5.604   5.068   6.093
 3787WAT    EPW15870   5.593   5.001   6.133
 3788WAT      O15871   4.972   6.245   6.593
 3788WAT     H115872   4.920   6.309   6.564
 3788WAT     H215873   5.003   6.209   6.521
 3788WAT    EPW15874   4.969   6.249   6.578
 3789WAT      O15875   3.959   6.124   6.161
 3789WAT     H115876   4.015   6.181   6.197
 3789WAT     H215877   3.936   6.073   6.227
 3789WAT    EPW15878   3.964   6.125   6.176
 3790WAT      O15879   4.380   6.024   6.869
 3790WAT     H115880   4.427   6.053   6.937
 3790WAT     H215881   4.437   5.976   6.824
 3790WAT    EPW15882   4.395   6.021   6.873
 3791WAT      O15883   5.223   5.225   6.643
 3791WAT     H115884   5.258   5.241   6.722
 3791WAT     H215885   5.178   5.152   6.654
 3791WAT    EPW15886   5.222   5.217   6.656
 3792WAT      O15887   3.942   5.969   5.923
 3792WAT     H115888   4.018   5.926   5.929
 3792WAT     H215889   3.944   6.022   5.992
 3792WAT    EPW15890   3.954   5.970   5.934
 3793WAT      O15891   4.036   5.791   6.724
 3793WAT     H115892   4.080   5.778   6.649
 3793WAT     H215893   4.016   5.876   6.721
 3793WAT    EPW15894   4.040   5.802   6.712
 3794WAT      O15895   4.671   5.147   6.089
 3794WAT     H115896   4.671   5.136   6.002
 3794WAT     H215897   4.653   5.232   6.098
 3794WAT    EPW15898   4.668   5.158   6.077
 3795WAT      O15899   5.576   6.390   7.239
 3795WAT     H115900   5.509   6.442   7.260
 3795WAT     H215901   5.583   6.400   7.152
 3795WAT    EPW15902   5.567   6.399   7.229
 3796WAT      O15903   4.445   6.143   6.552
 3796WAT     H115904   4.457   6.227   6.571
 3796WAT     H215905   4.512   6.103   6.592
 3796WAT    EPW15906   4.457   6.149   6.561
 3797WAT      O15907   4.258   5.491   7.538
 3797WAT     H115908   4.204   5.440   7.585
 3797WAT     H215909   4.260   5.452   7.460
 3797WAT    EPW15910   4.250   5.478   7.534
 3798WAT      O15911   4.306   5.431   6.052
 3798WAT     H115912   4.294   5.386   6.126
 3798WAT     H215913   4.248   5.396   5.997
 3798WAT    EPW15914   4.296   5.419   6.055
 3799WAT      O15915   4.323   5.614   6.712
 3799WAT     H115916   4.245   5.608   6.674
 3799WAT     H215917   4.330   5.538   6.756
 3799WAT    EPW15918   4.313   5.602   6.713
 3800WAT      O15919   4.366   5.587   7.059
 3800WAT     H115920   4.369   5.520   7.004
 3800WAT     H215921   4.301   5.637   7.028
 3800WAT    EPW15922   4.357   5.585   7.046
 3801WAT      O15923   5.356   5.359   6.899
 3801WAT     H115924   5.289   5.391   6.945
 3801WAT     H215925   5.374   5.422   6.842
 3801WAT    EPW15926   5.349   5.373   6.897
 3802WAT      O15927   4.776   6.465   6.998
 3802WAT     H115928   4.748   6.401   6.946
 3802WAT     H215929   4.755   6.538   6.954
 3802WAT    EPW15930   4.769   6.466   6.984
 3803WAT      O15931   5.020   4.949   7.241
 3803WAT     H115932   5.035   4.867   7.217
 3803WAT     H215933   5.058   4.955   7.320
 3803WAT    EPW15934   5.028   4.938   7.249
 3804WAT      O15935   5.175   5.156   6.250
 3804WAT     H115936   5.224   5.227   6.242
 3804WAT     H215937   5.096   5.182   6.223
 3804WAT    EPW15938   5.170   5.170   6.245
 3805WAT      O15939   4.146   5.723   7.615
 3805WAT     H115940   4.142   5.773   7.543
 3805WAT     H215941   4.179   5.648   7.585
 3805WAT    EPW15942   4.150   5.719   7.600
 3806WAT      O15943   5.306   5.943   7.441
 3806WAT     H115944   5.355   6.015   7.450
 3806WAT     H215945   5.346   5.901   7.376
 3806WAT    EPW15946   5.319   5.948   7.432
 3807WAT      O15947   4.736   6.228   7.558
 3807WAT     H115948   4.771   6.210   7.636
 3807WAT     H215949   4.692   6.155   7.538
 3807WAT    EPW15950   4.735   6.214   7.567
 3808WAT      O15951   4.833   5.303   6.822
 3808WAT     H115952   4.881   5.372   6.843
 3808WAT     H215953   4.870   5.238   6.867
 3808WAT    EPW15954   4.846   5.303   6.832
 3809WAT      O15955   5.052   5.619   6.050
 3809WAT     H115956   5.051   5.692   6.001
 3809WAT     H215957   4.988   5.633   6.107
 3809WAT    EPW15958   5.042   5.632   6.051
 3810WAT      O15959   5.549   6.006   6.448
 3810WAT     H115960   5.585   5.971   6.519
 3810WAT     H215961   5.548   5.940   6.391
 3810WAT    EPW15962   5.554   5.991   6.450
 3811WAT      O15963   5.154   6.313   6.832
 3811WAT     H115964   5.093   6.283   6.776
 3811WAT     H215965   5.208   6.358   6.781
 3811WAT    EPW15966   5.153   6.315   6.816
 3812WAT      O15967   5.155   5.998   6.772
 3812WAT     H115968   5.075   6.021   6.799
 3812WAT     H215969   5.181   5.939   6.831
 3812WAT    EPW15970   5.147   5.993   6.785
 3813WAT      O15971   4.544   6.479   6.217
 3813WAT     H115972   4.529   6.402   6.254
 3813WAT     H215973   4.613   6.465   6.165
 3813WAT    EPW15974   4.552   6.466   6.215
 3814WAT      O15975   4.511   4.854   6.016
 3814WAT     H115976   4.521   4.843   6.102
 3814WAT     H215977   4.440   4.904   6.009
 3814WAT    EPW15978   4.502   4.860   6.027
 3815WAT      O15979   4.773   6.431   6.057
 3815WAT     H115980   4.836   6.447   6.116
 3815WAT     H215981   4.777   6.500   6.004
 3815WAT    EPW15982   4.783   6.444   6.058
 3816WAT      O15983   5.481   5.798   7.257
 3816WAT     H115984   5.486   5.810   7.170
 3816WAT     H215985   5.556   5.830   7.287
 3816WAT    EPW15986   5.493   5.804   7.248
 3817WAT      O15987   5.584   4.828   7.555
 3817WAT     H115988   5.520   4.788   7.511
 3817WAT     H215989   5.587   4.785   7.631
 3817WAT    EPW15990   5.575   4.816   7.560
 3818WAT      O15991   4.223   5.684   6.140
 3818WAT     H115992   4.256   5.606   6.118
 3818WAT     H215993   4.288   5.721   6.185
 3818WAT    EPW15994   4.238   5.678   6.143
 3819WAT      O15995   5.054   5.779   7.217
 3819WAT     H115996   5.039   5.840   7.277
 3819WAT     H215997   5.107   5.723   7.257
 3819WAT    EPW15998   5.060   5.779   7.232
 3820WAT      O15999   3.923   4.850   6.237
 3820WAT     H116000   3.936   4.780   6.188
 3820WAT     H216001   3.886   4.819   6.309
 3820WAT    EPW16002   3.920   4.835   6.240
 3821WAT      O16003   4.892   5.619   6.282
 3821WAT     H116004   4.898   5.684   6.340
 3821WAT     H216005   4.874   5.549   6.332
 3821WAT    EPW16006   4.891   5.618   6.298
 3822WAT      O16007   5.415   6.051   6.869
 3822WAT     H116008   5.367   6.081   6.803
 3822WAT     H216009   5.379   5.974   6.887
 3822WAT    EPW16010   5.403   6.044   6.862
 3823WAT      O16011   4.342   5.070   5.934
 3823WAT     H116012   4.291   5.076   5.863
 3823WAT     H216013   4.420   5.094   5.904
 3823WAT    EPW16014   4.346   5.075   5.919
 3824WAT      O16015   4.815   5.823   6.726
 3824WAT     H116016   4.730   5.804   6.734
 3824WAT     H216017   4.847   5.807   6.805
 3824WAT    EPW16018   4.807   5.818   6.738
 3825WAT      O16019   4.490   6.496   5.814
 3825WAT     H116020   4.534   6.427   5.843
 3825WAT     H216021   4.511   6.559   5.871
 3825WAT    EPW16022   4.500   6.495   5.827
 3826WAT      O16023   4.200   5.793   6.957
 3826WAT     H116024   4.272   5.841   6.953
 3826WAT     H216025   4.173   5.790   6.874
 3826WAT    EPW16026   4.206   5.799   6.944
 3827WAT      O16027   4.523   5.310   6.631
 3827WAT     H116028   4.607   5.291   6.640
 3827WAT     H216029   4.486   5.232   6.617
 3827WAT    EPW16030   4.530   5.295   6.630
 3828WAT      O16031   5.784   6.468   6.063
 3828WAT     H116032   5.854   6.421   6.039
 3828WAT     H216033   5.730   6.408   6.097
 3828WAT    EPW16034   5.787   6.452   6.065
 3829WAT      O16035   4.005   5.443   6.296
 3829WAT     H116036   4.054   5.414   6.362
 3829WAT     H216037   4.018   5.384   6.233
 3829WAT    EPW16038   4.014   5.430   6.297
 3830WAT      O16039   5.508   5.746   6.981
 3830WAT     H116040   5.507   5.668   7.021
 3830WAT     H216041   5.424   5.769   6.981
 3830WAT    EPW16042   5.496   5.738   6.987
 3831WAT      O16043   4.139   5.898   7.385
 3831WAT     H116044   4.097   5.846   7.329
 3831WAT     H216045   4.104   5.976   7.371
 3831WAT    EPW16046   4.128   5.902   7.375
 3832WAT      O16047   5.634   5.753   6.725
 3832WAT     H116048   5.605   5.793   6.797
 3832WAT     H216049   5.720   5.747   6.738
 3832WAT    EPW16050   5.642   5.758   6.737
 3833WAT      O16051   4.603   5.433   6.116
 3833WAT     H116052   4.630   5.516   6.122
 3833WAT     H216053   4.516   5.440   6.106
 3833WAT    EPW16054   4.594   5.446   6.115
 3834WAT      O16055   5.400   5.145   7.579
 3834WAT     H116056   5.347   5.191   7.631
 3834WAT     H216057   5.364   5.066   7.578
 3834WAT    EPW16058   5.387   5.140   7.587
 3835WAT      O16059   3.951   5.030   6.769
 3835WAT     H116060   3.955   5.064   6.689
 3835WAT     H216061   4.026   5.054   6.806
 3835WAT    EPW16062   3.962   5.039   6.763
 3836WAT      O16063   5.747   6.316   6.778
 3836WAT     H116064   5.776   6.342   6.700
 3836WAT     H216065   5.816   6.326   6.830
 3836WAT    EPW16066   5.761   6.321   6.774
 3837WAT      O16067   5.249   5.502   7.587
 3837WAT     H116068   5.256   5.512   7.673
 3837WAT     H216069   5.186   5.558   7.564
 3837WAT    EPW16070   5.241   5.512   7.596
 3838WAT      O16071   5.476   5.534   7.423
 3838WAT     H116072   5.508   5.613   7.443
 3838WAT     H216073   5.439   5.507   7.497
 3838WAT    EPW16074   5.475   5.542   7.437
 3839WAT      O16075   5.407   6.176   5.976
 3839WAT     H116076   5.441   6.096   5.980
 3839WAT     H216077   5.332   6.169   6.019
 3839WAT    EPW16078   5.401   6.163   5.983
 3840WAT      O16079   5.456   5.360   6.542
 3840WAT     H116080   5.381   5.327   6.574
 3840WAT     H216081   5.456   5.442   6.570
 3840WAT    EPW16082   5.445   5.367   6.551
 3841WAT      O16083   5.700   5.956   7.317
 3841WAT     H116084   5.762   5.901   7.292
 3841WAT     H216085   5.693   6.012   7.251
 3841WAT    EPW16086   5.708   5.956   7.304
 3842WAT      O16087   5.145   5.964   5.916
 3842WAT     H116088   5.213   5.912   5.899
 3842WAT     H216089   5.103   5.968   5.840
 3842WAT    EPW16090   5.149   5.957   5.903
 3843WAT      O16091   4.613   6.079   7.047
 3843WAT     H116092   4.583   6.138   7.103
 3843WAT     H216093   4.618   6.123   6.972
 3843WAT    EPW16094   4.609   6.094   7.044
 3844WAT      O16095   4.411   5.974   7.387
 3844WAT     H116096   4.330   5.945   7.403
 3844WAT     H216097   4.402   6.061   7.387
 3844WAT    EPW16098   4.398   5.982   7.389
 3845WAT      O16099   5.347   4.993   7.288
 3845WAT     H116100   5.421   5.038   7.282
 3845WAT     H216101   5.290   5.040   7.241
 3845WAT    EPW16102   5.349   5.006   7.280
 3846WAT      O16103   4.865   5.721   6.996
 3846WAT     H116104   4.912   5.759   7.059
 3846WAT     H216105   4.782   5.735   7.022
 3846WAT    EPW16106   4.859   5.729   7.009
 3847WAT      O16107   4.536   5.281   7.270
 3847WAT     H116108   4.552   5.207   7.313
 3847WAT     H216109   4.531   5.257   7.186
 3847WAT    EPW16110   4.537   5.267   7.264
 3848WAT      O16111   4.791   6.460   6.519
 3848WAT     H116112   4.846   6.528   6.524
 3848WAT     H216113   4.756   6.469   6.439
 3848WAT    EPW16114   4.794   6.472   6.508
 3849WAT      O16115   5.475   4.791   7.055
 3849WAT     H116116   5.447   4.873   7.051
 3849WAT     H216117   5.547   4.796   7.105
 3849WAT    EPW16118   5.482   4.804   7.062
 3850WAT      O16119   4.711   4.862   7.258
 3850WAT     H116120   4.781   4.894   7.218
 3850WAT     H216121   4.735   4.782   7.281
 3850WAT    EPW16122   4.725   4.855   7.255
 3851WAT      O16123   4.609   6.283   6.858
 3851WAT     H116124   4.547   6.341   6.839
 3851WAT     H216125   4.634   6.255   6.779
 3851WAT    EPW16126   4.604   6.288   6.843
 3852WAT      O16127   5.040   5.947   7.556
 3852WAT     H116128   5.116   5.975   7.524
 3852WAT     H216129   4.985   5.952   7.489
 3852WAT    EPW16130   5.043   5.952   7.542
 3853WAT      O16131   5.431   6.202   7.407
 3853WAT     H116132   5.466   6.229   7.482
 3853WAT     H216133   5.460   6.260   7.349
 3853WAT    EPW16134   5.441   6.214   7.409
 3854WAT      O16135   5.617   5.416   5.941
 3854WAT     H116136   5.655   5.484   5.901
 3854WAT     H216137   5.533   5.439   5.944
 3854WAT    EPW16138   5.610   5.430   5.935
 3855WAT      O16139   4.769   5.761   5.849
 3855WAT     H116140   4.688   5.743   5.821
 3855WAT     H216141   4.765   5.846   5.868
 3855WAT    EPW16142   4.756   5.771   5.848
 3856WAT      O16143   4.362   5.368   6.864
 3856WAT     H116144   4.406   5.357   6.789
 3856WAT     H216145   4.416   5.336   6.925
 3856WAT    EPW16146   4.376   5.361   6.862
 3857WAT      O16147   5.163   5.278   7.423
 3857WAT     H116148   5.098   5.325   7.458
 3857WAT     H216149   5.220   5.269   7.489
 3857WAT    EPW16150   5.162   5.283   7.438
 3858WAT      O16151   5.132   5.431   7.053
 3858WAT     H116152   5.162   5.473   7.123
 3858WAT     H216153   5.136   5.347   7.076
 3858WAT    EPW16154   5.137   5.425   7.067
 3859WAT      O16155   4.875   6.448   7.446
 3859WAT     H116156   4.922   6.388   7.404
 3859WAT     H216157   4.839   6.404   7.512
 3859WAT    EPW16158   4.876   6.433   7.449
 3860WAT      O16159   5.387   5.376   6.278
 3860WAT     H116160   5.408   5.356   6.361
 3860WAT     H216161   5.462   5.403   6.244
 3860WAT    EPW16162   5.401   5.377   6.285
 3861WAT      O16163   4.716   4.866   6.869
 3861WAT     H116164   4.634   4.851   6.892
 3861WAT     H216165   4.712   4.870   6.782
 3861WAT    EPW16166   4.704   4.864   6.859
 3862WAT      O16167   5.489   4.984   6.426
 3862WAT     H116168   5.418   4.937   6.443
 3862WAT     H216169   5.473   5.019   6.347
 3862WAT    EPW16170   5.476   4.983   6.417
 3863WAT      O16171   5.533   5.779   6.264
 3863WAT     H116172   5.581   5.706   6.259
 3863WAT     H216173   5.451   5.750   6.256
 3863WAT    EPW16174   5.528   5.764   6.262
 3864WAT      O16175   4.880   5.970   7.348
 3864WAT     H116176   4.801   5.964   7.383
 3864WAT     H216177   4.888   6.055   7.328
 3864WAT    EPW16178   4.870   5.982   7.350
 3865WAT      O16179   3.973   4.906   7.472
 3865WAT     H116180   3.959   4.985   7.439
 3865WAT     H216181   3.894   4.882   7.501
 3865WAT    EPW16182   3.959   4.914   7.472
 3866WAT      O16183   4.463   6.591   6.879
 3866WAT     H116184   4.465   6.597   6.966
 3866WAT     H216185   4.421   6.516   6.864
 3866WAT    EPW16186   4.457   6.581   6.890
 3867WAT      O16187   4.279   5.180   6.195
 3867WAT     H116188   4.292   5.147   6.115
 3867WAT     H216189   4.198   5.155   6.215
 3867WAT    EPW16190   4.269   5.172   6.186
 3868WAT      O16191   5.155   5.896   6.499
 3868WAT     H116192   5.163   5.930   6.579
 3868WAT     H216193   5.172   5.811   6.511
 3868WAT    EPW16194   5.159   5.888   6.513
 3869WAT      O16195   4.907   5.823   6.456
 3869WAT     H116196   4.877   5.791   6.531
 3869WAT     H216197   4.977   5.870   6.479
 3869WAT    EPW16198   4.913   5.825   6.470
 3870WAT      O16199   4.929   6.235   7.258
 3870WAT     H116200   4.998   6.223   7.311
 3870WAT     H216201   4.943   6.314   7.224
 3870WAT    EPW16202   4.941   6.245   7.261
 3871WAT      O16203   5.747   5.496   7.439
 3871WAT     H116204   5.661   5.483   7.452
 3871WAT     H216205   5.762   5.456   7.363
 3871WAT    EPW16206   5.737   5.488   7.430
 3872WAT      O16207   5.198   5.562   7.297
 3872WAT     H116208   5.173   5.490   7.339
 3872WAT     H216209   5.280   5.574   7.324
 3872WAT    EPW16210   5.207   5.553   7.307
 3873WAT      O16211   4.140   6.541   7.423
 3873WAT     H116212   4.074   6.484   7.433
 3873WAT     H216213   4.102   6.618   7.439
 3873WAT    EPW16214   4.125   6.544   7.427
 3874WAT      O16215   4.992   5.681   7.616
 3874WAT     H116216   5.024   5.750   7.573
 3874WAT     H216217   4.921   5.713   7.656
 3874WAT    EPW16218   4.986   5.696   7.615
 3875WAT      O16219   5.300   6.519   6.709
 3875WAT     H116220   5.255   6.583   6.747
 3875WAT     H216221   5.371   6.511   6.759
 3875WAT    EPW16222   5.304   6.527   6.722
 3876WAT      O16223   4.970   6.028   7.002
 3876WAT     H116224   4.901   6.068   7.036
 3876WAT     H216225   5.038   6.071   7.036
 3876WAT    EPW16226   4.970   6.040   7.012
 3877WAT      O16227   4.277   5.381   7.236
 3877WAT     H116228   4.314   5.443   7.188
 3877WAT     H216229   4.344   5.334   7.265
 3877WAT    EPW16230   4.292   5.384   7.233
 3878WAT      O16231   4.054   5.226   7.164
 3878WAT     H116232   4.062   5.209   7.079
 3878WAT     H216233   4.129   5.267   7.184
 3878WAT    EPW16234   4.067   5.230   7.154
 3879WAT      O16235   5.610   5.490   6.208
 3879WAT     H116236   5.621   5.484   6.121
 3879WAT     H216237   5.684   5.457   6.240
 3879WAT    EPW16238   5.623   5.484   6.200
 3880WAT      O16239   4.310   4.967   7.405
 3880WAT     H116240   4.302   4.883   7.426
 3880WAT     H216241   4.278   4.972   7.324
 3880WAT    EPW16242   4.304   4.955   7.396
 3881WAT      O16243   5.002   6.187   6.319
 3881WAT     H116244   4.982   6.270   6.303
 3881WAT     H216245   4.925   6.148   6.331
 3881WAT    EPW16246   4.988   6.193   6.318
 3882WAT      O16247   5.521   5.505   7.143
 3882WAT     H116248   5.520   5.418   7.156
 3882WAT     H216249   5.527   5.537   7.224
 3882WAT    EPW16250   5.522   5.497   7.157
 3883WAT      O16251   3.994   5.749   7.186
 3883WAT     H116252   4.026   5.771   7.108
 3883WAT     H216253   3.984   5.662   7.181
 3883WAT    EPW16254   3.997   5.739   7.174
 3884WAT      O16255   5.108   4.985   7.522
 3884WAT     H116256   5.118   5.056   7.571
 3884WAT     H216257   5.045   4.940   7.561
 3884WAT    EPW16258   5.100   4.989   7.535
 3885WAT      O16259   5.008   5.004   6.607
 3885WAT     H116260   4.938   5.056   6.601
 3885WAT     H216261   5.012   4.966   6.529
 3885WAT    EPW16262   4.998   5.006   6.595
 3886WAT      O16263   4.539   6.213   5.959
 3886WAT     H116264   4.583   6.221   6.034
 3886WAT     H216265   4.458   6.191   5.985
 3886WAT    EPW16266   4.533   6.211   5.974
 3887WAT      O16267   5.368   5.055   6.887
 3887WAT     H116268   5.453   5.065   6.902
 3887WAT     H216269   5.331   5.111   6.944
 3887WAT    EPW16270   5.375   5.065   6.898
 3888WAT      O16271   4.470   5.678   7.325
 3888WAT     H116272   4.431   5.755   7.332
 3888WAT     H216273   4.430   5.641   7.257
 3888WAT    EPW16274   4.459   5.684   7.316
 3889WAT      O16275   5.398   5.583   6.736
 3889WAT     H116276   5.465   5.637   6.752
 3889WAT     H216277   5.364   5.614   6.662
 3889WAT    EPW16278   5.403   5.596   6.728
 3890WAT      O16279   5.429   6.390   6.317
 3890WAT     H116280   5.412   6.325   6.372
 3890WAT     H216281   5.501   6.363   6.275
 3890WAT    EPW16282   5.437   6.376   6.319
 3891WAT      O16283   4.271   6.120   6.020
 3891WAT     H116284   4.247   6.089   6.098
 3891WAT     H216285   4.268   6.050   5.968
 3891WAT    EPW16286   4.267   6.105   6.023
 3892WAT      O16287   4.553   5.944   5.894
 3892WAT     H116288   4.472   5.918   5.908
 3892WAT     H216289   4.551   6.030   5.912
 3892WAT    EPW16290   4.541   5.953   5.899
 3893WAT      O16291   4.513   4.976   7.070
 3893WAT     H116292   4.427   4.984   7.078
 3893WAT     H216293   4.535   4.924   7.137
 3893WAT    EPW16294   4.504   4.969   7.081
 3894WAT      O16295   5.715   4.839   7.203
 3894WAT     H116296   5.710   4.835   7.290
 3894WAT     H216297   5.784   4.789   7.184
 3894WAT    EPW16298   5.725   4.831   7.213
 3895WAT      O16299   4.924   5.050   6.907
 3895WAT     H116300   4.850   5.005   6.918
 3895WAT     H216301   4.981   5.010   6.959
 3895WAT    EPW16302   4.921   5.038   6.917
 3896WAT      O16303   5.197   6.135   7.086
 3896WAT     H116304   5.217   6.165   7.165
 3896WAT     H216305   5.191   6.207   7.037
 3896WAT    EPW16306   5.199   6.150   7.090
 3897WAT      O16307   5.150   6.557   7.511
 3897WAT     H116308   5.075   6.555   7.466
 3897WAT     H216309   5.167   6.642   7.519
 3897WAT    EPW16310   5.142   6.569   7.505
 3898WAT      O16311   4.674   5.483   7.428
 3898WAT     H116312   4.642   5.426   7.371
 3898WAT     H216313   4.638   5.559   7.403
 3898WAT    EPW16314   4.664   5.486   7.416
 3899WAT      O16315   4.754   4.809   5.890
 3899WAT     H116316   4.761   4.833   5.807
 3899WAT     H216317   4.679   4.846   5.916
 3899WAT    EPW16318   4.744   4.818   5.882
 3900WAT      O16319   5.678   5.999   7.032
 3900WAT     H116320   5.675   5.913   7.018
 3900WAT     H216321   5.609   6.029   6.988
 3900WAT    EPW16322   5.667   5.991   7.023
 3901WAT      O16323   4.517   6.519   7.452
 3901WAT     H116324   4.522   6.532   7.539
 3901WAT     H216325   4.583   6.463   7.437
 3901WAT    EPW16326   4.528   6.513   7.463
 3902WAT      O16327   5.489   6.325   6.911
 3902WAT     H116328   5.541   6.317   6.842
 3902WAT     H216329   5.449   6.247   6.917
 3902WAT    EPW16330   5.491   6.312   6.902
 3903WAT      O16331   4.235   4.984   7.135
 3903WAT     H116332   4.201   4.907   7.111
 3903WAT     H216333   4.166   5.036   7.141
 3903WAT    EPW16334   4.220   4.980   7.132
 3904WAT      O16335   5.140   4.870   6.832
 3904WAT     H116336   5.207   4.924   6.845
 3904WAT     H216337   5.090   4.912   6.775
 3904WAT    EPW16338   5.142   4.884   6.826
 3905WAT      O16339   4.277   6.357   7.588
 3905WAT     H116340   4.336   6.400   7.636
 3905WAT     H216341   4.240   6.420   7.539
 3905WAT    EPW16342   4.280   6.373   7.588
 3906WAT      O16343   5.076   5.450   6.582
 3906WAT     H116344   5.131   5.390   6.612
 3906WAT     H216345   5.033   5.477   6.653
 3906WAT    EPW16346   5.078   5.445   6.596
 3907WAT      O16347   4.101   5.315   6.530
 3907WAT     H116348   4.064   5.346   6.603
 3907WAT     H216349   4.154   5.252   6.559
 3907WAT    EPW16350   4.103   5.311   6.545
 3908WAT      O16351   4.069   6.156   7.281
 3908WAT     H116352   4.012   6.198   7.332
 3908WAT     H216353   4.143   6.203   7.291
 3908WAT    EPW16354   4.072   6.169   7.290
 3909WAT      O16355   5.273   5.633   6.238
 3909WAT     H116356   5.280   5.548   6.256
 3909WAT     H216357   5.191   5.642   6.210
 3909WAT    EPW16358   5.262   5.622   6.236
 3910WAT      O16359   4.665   5.723   6.132
 3910WAT     H116360   4.675   5.736   6.046
 3910WAT     H216361   4.747   5.717   6.161
 3910WAT    EPW16362   4.678   5.724   6.123
 3911WAT      O16363   5.581   6.529   5.880
 3911WAT     H116364   5.644   6.516   5.938
 3911WAT     H216365   5.547   6.450   5.868
 3911WAT    EPW16366   5.585   6.515   5.886
 3912WAT      O16367   5.600   5.771   7.553
 3912WAT     H116368   5.664   5.754   7.610
 3912WAT     H216369   5.642   5.811   7.488
 3912WAT    EPW16370   5.616   5.774   7.552
 3913WAT      O16371   5.188   6.155   6.112
 3913WAT     H116372   5.163   6.143   6.194
 3913WAT     H216373   5.157   6.086   6.070
 3913WAT    EPW16374   5.180   6.143   6.118
 3914WAT      O16375   5.663   5.227   7.627
 3914WAT     H116376   5.643   5.292   7.682
 3914WAT     H216377   5.591   5.178   7.626
 3914WAT    EPW16378   5.649   5.229   7.635
 3915WAT      O16379   5.653   5.321   6.924
 3915WAT     H116380   5.569   5.346   6.917
 3915WAT     H216381   5.647   5.237   6.947
 3915WAT    EPW16382   5.640   5.313   6.926
 3916WAT      O16383   4.579   5.020   7.443
 3916WAT     H116384   4.602   4.962   7.382
 3916WAT     H216385   4.494   5.002   7.457
 3916WAT    EPW16386   4.570   5.009   7.436
 3917WAT      O16387   5.341   5.782   7.688
 3917WAT     H116388   5.428   5.778   7.685
 3917WAT     H216389   5.319   5.824   7.615
 3917WAT    EPW16390   5.351   5.787   7.677
 3918WAT      O16391   4.317   6.364   6.806
 3918WAT     H116392   4.309   6.283   6.775
 3918WAT     H216393   4.272   6.413   6.749
 3918WAT    EPW16394   4.309   6.360   6.793
 3919WAT      O16395   4.877   5.976   6.055
 3919WAT     H116396   4.949   5.942   6.019
 3919WAT     H216397   4.873   6.056   6.020
 3919WAT    EPW16398   4.887   5.983   6.044
 3920WAT      O16399   4.074   6.589   7.165
 3920WAT     H116400   4.123   6.583   7.236
 3920WAT     H216401   4.093   6.515   7.121
 3920WAT    EPW16402   4.084   6.577   7.169
 3921WAT      O16403   5.018   4.840   4.479
 3921WAT     H116404   4.993   4.889   4.411
 3921WAT     H216405   5.104   4.833   4.469
 3921WAT    EPW16406   5.027   4.846   4.467
 3922WAT      O16407   4.999   5.532   4.946
 3922WAT     H116408   4.946   5.592   4.982
 3922WAT     H216409   5.038   5.495   5.014
 3922WAT    EPW16410   4.997   5.535   4.961
 3923WAT      O16411   3.986   5.946   4.491
 3923WAT     H116412   3.941   5.958   4.566
 3923WAT     H216413   3.957   5.868   4.463
 3923WAT    EPW16414   3.975   5.936   4.498
 3924WAT      O16415   5.613   6.276   4.243
 3924WAT     H116416   5.683   6.224   4.242
 3924WAT     H216417   5.554   6.232   4.196
 3924WAT    EPW16418   5.615   6.262   4.236
 3925WAT      O16419   4.274   5.851   4.009
 3925WAT     H116420   4.235   5.814   3.941
 3925WAT     H216421   4.266   5.792   4.072
 3925WAT    EPW16422   4.267   5.837   4.008
 3926WAT      O16423   5.266   5.639   4.613
 3926WAT     H116424   5.274   5.639   4.526
 3926WAT     H216425   5.207   5.575   4.628
 3926WAT    EPW16426   5.258   5.629   4.603
 3927WAT      O16427   4.236   6.016   4.399
 3927WAT     H116428   4.297   5.999   4.460
 3927WAT     H216429   4.161   6.002   4.441
 3927WAT    EPW16430   4.234   6.011   4.414
 3928WAT      O16431   4.665   4.949   4.394
 3928WAT     H116432   4.658   5.017   4.340
 3928WAT     H216433   4.739   4.910   4.369
 3928WAT    EPW16434   4.675   4.953   4.382
 3929WAT      O16435   4.126   6.325   4.007
 3929WAT     H116436   4.172   6.333   3.934
 3929WAT     H216437   4.171   6.267   4.054
 3929WAT    EPW16438   4.139   6.317   4.003
 3930WAT      O16439   3.980   6.219   5.117
 3930WAT     H116440   3.992   6.191   5.198
 3930WAT     H216441   3.919   6.165   5.086
 3930WAT    EPW16442   3.972   6.207   5.124
 3931WAT      O16443   4.637   5.972   5.624
 3931WAT     H116444   4.613   5.972   5.708
 3931WAT     H216445   4.562   5.957   5.581
 3931WAT    EPW16446   4.622   5.970   5.630
 3932WAT      O16447   4.124   5.672   4.537
 3932WAT     H116448   4.078   5.632   4.474
 3932WAT     H216449   4.194   5.620   4.546
 3932WAT    EPW16450   4.128   5.658   4.529
 3933WAT      O16451   4.575   5.233   5.072
 3933WAT     H116452   4.643   5.234   5.017
 3933WAT     H216453   4.570   5.149   5.096
 3933WAT    EPW16454   4.584   5.220   5.067
 3934WAT      O16455   4.635   6.291   5.350
 3934WAT     H116456   4.649   6.367   5.309
 3934WAT     H216457   4.714   6.255   5.353
 3934WAT    EPW16458   4.649   6.297   5.344
 3935WAT      O16459   4.324   5.482   4.539
 3935WAT     H116460   4.406   5.463   4.564
 3935WAT     H216461   4.277   5.420   4.579
 3935WAT    EPW16462   4.329   5.470   4.549
 3936WAT      O16463   4.745   6.080   4.800
 3936WAT     H116464   4.779   6.000   4.803
 3936WAT     H216465   4.811   6.130   4.775
 3936WAT    EPW16466   4.760   6.075   4.797
 3937WAT      O16467   4.750   6.025   4.421
 3937WAT     H116468   4.783   5.960   4.470
 3937WAT     H216469   4.774   6.003   4.340
 3937WAT    EPW16470   4.759   6.012   4.417
 3938WAT      O16471   4.947   5.438   5.555
 3938WAT     H116472   4.862   5.428   5.538
 3938WAT     H216473   4.950   5.512   5.601
 3938WAT    EPW16474   4.935   5.447   5.559
 3939WAT      O16475   5.403   4.734   5.467
 3939WAT     H116476   5.387   4.811   5.429
 3939WAT     H216477   5.326   4.712   5.501
 3939WAT    EPW16478   5.389   4.742   5.466
 3940WAT      O16479   4.682   4.905   4.688
 3940WAT     H116480   4.689   4.991   4.701
 3940WAT     H216481   4.678   4.898   4.601
 3940WAT    EPW16482   4.682   4.917   4.677
 3941WAT      O16483   5.149   5.198   3.918
 3941WAT     H116484   5.104   5.266   3.949
 3941WAT     H216485   5.161   5.147   3.988
 3941WAT    EPW16486   5.144   5.200   3.933
 3942WAT      O16487   3.961   6.419   4.628
 3942WAT     H116488   3.902   6.474   4.597
 3942WAT     H216489   4.003   6.392   4.557
 3942WAT    EPW16490   3.958   6.423   4.613
 3943WAT      O16491   4.545   6.203   4.376
 3943WAT     H116492   4.487   6.176   4.436
 3943WAT     H216493   4.607   6.142   4.379
 3943WAT    EPW16494   4.545   6.190   4.385
 3944WAT      O16495   5.159   6.432   4.129
 3944WAT     H116496   5.232   6.479   4.139
 3944WAT     H216497   5.182   6.352   4.157
 3944WAT    EPW16498   5.173   6.427   4.134
 3945WAT      O16499   4.976   6.471   4.328
 3945WAT     H116500   4.997   6.524   4.394
 3945WAT     H216501   5.053   6.454   4.290
 3945WAT    EPW16502   4.990   6.476   4.332
 3946WAT      O16503   4.603   5.143   5.817
 3946WAT     H116504   4.615   5.097   5.744
 3946WAT     H216505   4.632   5.222   5.797
 3946WAT    EPW16506   4.609   5.148   5.803
 3947WAT      O16507   4.115   6.286   4.421
 3947WAT     H116508   4.181   6.228   4.423
 3947WAT     H216509   4.154   6.361   4.399
 3947WAT    EPW16510   4.131   6.288   4.418
 3948WAT      O16511   5.689   5.195   4.548
 3948WAT     H116512   5.654   5.263   4.590
 3948WAT     H216513   5.625   5.135   4.549
 3948WAT    EPW16514   5.674   5.196   4.554
 3949WAT      O16515   5.220   6.472   5.158
 3949WAT     H116516   5.294   6.518   5.157
 3949WAT     H216517   5.208   6.451   5.074
 3949WAT    EPW16518   5.229   6.476   5.146
 3950WAT      O16519   4.197   6.134   4.771
 3950WAT     H116520   4.239   6.099   4.704
 3950WAT     H216521   4.229   6.092   4.841
 3950WAT    EPW16522   4.208   6.123   4.772
 3951WAT      O16523   4.520   6.420   4.701
 3951WAT     H116524   4.605   6.430   4.682
 3951WAT     H216525   4.490   6.501   4.708
 3951WAT    EPW16526   4.528   6.433   4.699
 3952WAT      O16527   4.841   4.867   5.632
 3952WAT     H116528   4.859   4.786   5.605
 3952WAT     H216529   4.827   4.911   5.559
 3952WAT    EPW16530   4.842   4.861   5.617
 3953WAT      O16531   4.901   5.359   4.510
 3953WAT     H116532   4.930   5.336   4.431
 3953WAT     H216533   4.974   5.367   4.557
 3953WAT    EPW16534   4.916   5.357   4.505
 3954WAT      O16535   4.973   5.393   4.022
 3954WAT     H116536   5.001   5.472   4.047
 3954WAT     H216537   4.895   5.410   3.986
 3954WAT    EPW16538   4.966   5.407   4.020
 3955WAT      O16539   5.377   6.591   4.169
 3955WAT     H116540   5.444   6.576   4.114
 3955WAT     H216541   5.413   6.582   4.248
 3955WAT    EPW16542   5.392   6.587   4.172
 3956WAT      O16543   4.420   6.541   5.275
 3956WAT     H116544   4.449   6.535   5.357
 3956WAT     H216545   4.357   6.481   5.271
 3956WAT    EPW16546   4.415   6.532   5.287
 3957WAT      O16547   5.656   5.027   5.085
 3957WAT     H116548   5.732   5.035   5.042
 3957WAT     H216549   5.662   4.950   5.124
 3957WAT    EPW16550   5.668   5.017   5.084
 3958WAT      O16551   5.145   6.191   5.528
 3958WAT     H116552   5.142   6.229   5.607
 3958WAT     H216553   5.231   6.186   5.511
 3958WAT    EPW16554   5.157   6.196   5.538
 3959WAT      O16555   4.859   6.210   4.003
 3959WAT     H116556   4.841   6.265   4.069
 3959WAT     H216557   4.936   6.239   3.973
 3959WAT    EPW16558   4.868   6.223   4.009
 3960WAT      O16559   5.210   5.000   4.109
 3960WAT     H116560   5.264   4.932   4.116
 3960WAT     H216561   5.216   5.040   4.186
 3960WAT    EPW16562   5.219   4.996   4.121
 3961WAT      O16563   4.219   6.358   5.187
 3961WAT     H116564   4.149   6.307   5.200
 3961WAT     H216565   4.245   6.337   5.106
 3961WAT    EPW16566   4.213   6.347   5.177
 3962WAT      O16567   4.935   5.237   4.240
 3962WAT     H116568   4.885   5.171   4.215
 3962WAT     H216569   4.941   5.288   4.169
 3962WAT    EPW16570   4.929   5.235   4.226
 3963WAT      O16571   4.990   6.507   5.278
 3963WAT     H116572   5.067   6.499   5.238
 3963WAT     H216573   4.932   6.495   5.214
 3963WAT    EPW16574   4.993   6.504   5.263
 3964WAT      O16575   4.935   4.932   4.229
 3964WAT     H116576   4.890   4.891   4.167
 3964WAT     H216577   5.013   4.947   4.192
 3964WAT    EPW16578   4.940   4.928   4.215
 3965WAT      O16579   5.618   6.567   4.568
 3965WAT     H116580   5.573   6.639   4.588
 3965WAT     H216581   5.557   6.510   4.544
 3965WAT    EPW16582   5.602   6.569   4.568
 3966WAT      O16583   4.795   5.168   4.682
 3966WAT     H116584   4.803   5.225   4.616
 3966WAT     H216585   4.807   5.217   4.753
 3966WAT    EPW16586   4.798   5.184   4.682
 3967WAT      O16587   5.318   6.152   4.523
 3967WAT     H116588   5.388   6.104   4.542
 3967WAT     H216589   5.252   6.095   4.527
 3967WAT    EPW16590   5.318   6.136   4.526
 3968WAT      O16591   4.355   6.243   5.444
 3968WAT     H116592   4.439   6.249   5.422
 3968WAT     H216593   4.352   6.282   5.522
 3968WAT    EPW16594   4.367   6.250   5.452
 3969WAT      O16595   4.552   5.794   4.919
 3969WAT     H116596   4.569   5.773   5.002
 3969WAT     H216597   4.486   5.740   4.897
 3969WAT    EPW16598   4.545   5.783   4.928
 3970WAT      O16599   5.174   5.185   5.270
 3970WAT     H116600   5.165   5.217   5.351
 3970WAT     H216601   5.115   5.121   5.267
 3970WAT    EPW16602   5.164   5.180   5.282
 3971WAT      O16603   4.627   5.788   5.178
 3971WAT     H116604   4.632   5.872   5.198
 3971WAT     H216605   4.598   5.751   5.252
 3971WAT    EPW16606   4.623   5.795   5.192
 3972WAT      O16607   5.244   5.857   5.091
 3972WAT     H116608   5.193   5.816   5.148
 3972WAT     H216609   5.232   5.942   5.109
 3972WAT    EPW16610   5.235   5.864   5.102
 3973WAT      O16611   5.300   4.780   4.554
 3973WAT     H116612   5.305   4.748   4.635
 3973WAT     H216613   5.332   4.715   4.505
 3973WAT    EPW16614   5.306   4.765   4.559
 3974WAT      O16615   3.909   6.225   5.799
 3974WAT     H116616   3.984   6.260   5.825
 3974WAT     H216617   3.926   6.139   5.793
 3974WAT    EPW16618   3.923   6.217   5.802
 3975WAT      O16619   5.546   5.203   5.385
 3975WAT     H116620   5.624   5.181   5.418
 3975WAT     H216621   5.499   5.225   5.455
 3975WAT    EPW16622   5.551   5.203   5.400
 3976WAT      O16623   5.570   5.901   4.104
 3976WAT     H116624   5.582   5.872   4.185
 3976WAT     H216625   5.650   5.903   4.071
 3976WAT    EPW16626   5.583   5.897   4.111
 3977WAT      O16627   4.283   5.874   4.637
 3977WAT     H116628   4.368   5.866   4.619
 3977WAT     H216629   4.248   5.806   4.595
 3977WAT    EPW16630   4.291   5.863   4.628
 3978WAT      O16631   4.160   6.547   4.760
 3978WAT     H116632   4.093   6.497   4.736
 3978WAT     H216633   4.200   6.565   4.685
 3978WAT    EPW16634   4.156   6.542   4.746
 3979WAT      O16635   5.793   6.352   5.529
 3979WAT     H116636   5.725   6.383   5.484
 3979WAT     H216637   5.756   6.306   5.593
 3979WAT    EPW16638   5.777   6.350   5.532
 3980WAT      O16639   5.359   5.555   4.062
 3980WAT     H116640   5.337   5.628   4.020
 3980WAT     H216641   5.314   5.560   4.137
 3980WAT    EPW16642   5.349   5.566   4.067
 3981WAT      O16643   5.778   5.041   4.007
 3981WAT     H116644   5.712   4.984   4.010
 3981WAT     H216645   5.759   5.092   3.939
 3981WAT    EPW16646   5.765   5.040   3.998
 3982WAT      O16647   3.936   6.039   4.792
 3982WAT     H116648   3.869   6.088   4.820
 3982WAT     H216649   4.004   6.094   4.795
 3982WAT    EPW16650   3.936   6.054   4.797
 3983WAT      O16651   4.700   5.410   5.802
 3983WAT     H116652   4.652   5.468   5.846
 3983WAT     H216653   4.698   5.440   5.720
 3983WAT    EPW16654   4.693   5.423   5.796
 3984WAT      O16655   5.810   5.479   5.263
 3984WAT     H116656   5.832   5.399   5.235
 3984WAT     H216657   5.725   5.485   5.244
 3984WAT    EPW16658   5.801   5.468   5.256
 3985WAT      O16659   3.942   5.708   4.302
 3985WAT     H116660   3.924   5.624   4.318
 3985WAT     H216661   4.008   5.704   4.245
 3985WAT    EPW16662   3.949   5.695   4.296
 3986WAT      O16663   5.578   4.997   4.235
 3986WAT     H116664   5.653   4.956   4.255
 3986WAT     H216665   5.604   5.068   4.193
 3986WAT    EPW16666   5.593   5.001   4.232
 3987WAT      O16667   4.972   6.245   4.693
 3987WAT     H116668   4.920   6.309   4.664
 3987WAT     H216669   5.003   6.209   4.620
 3987WAT    EPW16670   4.969   6.249   4.678
 3988WAT      O16671   3.959   6.124   4.260
 3988WAT     H116672   4.015   6.181   4.296
 3988WAT     H216673   3.936   6.073   4.326
 3988WAT    EPW16674   3.964   6.125   4.275
 3989WAT      O16675   4.380   6.024   4.969
 3989WAT     H116676   4.427   6.053   5.037
 3989WAT     H216677   4.437   5.976   4.923
 3989WAT    EPW16678   4.395   6.021   4.972
 3990WAT      O16679   5.223   5.225   4.743
 3990WAT     H116680   5.258   5.241   4.821
 3990WAT     H216681   5.178   5.152   4.754
 3990WAT    EPW16682   5.222   5.217   4.756
 3991WAT      O16683   3.942   5.969   4.023
 3991WAT     H116684   4.018   5.926   4.029
 3991WAT     H216685   3.944   6.022   4.092
 3991WAT    EPW16686   3.954   5.970   4.034
 3992WAT      O16687   4.036   5.791   4.823
 3992WAT     H116688   4.080   5.778   4.749
 3992WAT     H216689   4.016   5.876   4.821
 3992WAT    EPW16690   4.040   5.802   4.812
 3993WAT      O16691   4.671   5.147   4.188
 3993WAT     H116692   4.671   5.136   4.102
 3993WAT     H216693   4.653   5.232   4.197
 3993WAT    EPW16694   4.668   5.158   4.177
 3994WAT      O16695   5.576   6.390   5.338
 3994WAT     H116696   5.509   6.442   5.360
 3994WAT     H216697   5.583   6.400   5.252
 3994WAT    EPW16698   5.567   6.399   5.328
 3995WAT      O16699   4.445   6.143   4.651
 3995WAT     H116700   4.457   6.227   4.670
 3995WAT     H216701   4.512   6.103   4.691
 3995WAT    EPW16702   4.457   6.149   4.660
 3996WAT      O16703   4.306   5.431   4.152
 3996WAT     H116704   4.294   5.386   4.225
 3996WAT     H216705   4.248   5.396   4.096
 3996WAT    EPW16706   4.296   5.419   4.154
 3997WAT      O16707   4.323   5.614   4.812
 3997WAT     H116708   4.245   5.608   4.773
 3997WAT     H216709   4.330   5.538   4.855
 3997WAT    EPW16710   4.313   5.602   4.812
 3998WAT      O16711   4.366   5.587   5.158
 3998WAT     H116712   4.369   5.520   5.103
 3998WAT     H216713   4.301   5.637   5.127
 3998WAT    EPW16714   4.357   5.585   5.146
 3999WAT      O16715   5.356   5.359   4.998
 3999WAT     H116716   5.289   5.391   5.044
 3999WAT     H216717   5.374   5.422   4.941
 3999WAT    EPW16718   5.349   5.373   4.996
 4000WAT      O16719   4.776   6.465   5.098
 4000WAT     H116720   4.748   6.401   5.045
 4000WAT     H216721   4.755   6.538   5.054
 4000WAT    EPW16722   4.769   6.466   5.083
 4001WAT      O16723   5.020   4.949   5.341
 4001WAT     H116724   5.035   4.867   5.317
 4001WAT     H216725   5.058   4.955   5.419
 4001WAT    EPW16726   5.028   4.938   5.349
 4002WAT      O16727   5.175   5.156   4.349
 4002WAT     H116728   5.224   5.227   4.341
 4002WAT     H216729   5.096   5.182   4.323
 4002WAT    EPW16730   5.170   5.170   4.344
 4003WAT      O16731   4.146   5.723   5.714
 4003WAT     H116732   4.142   5.773   5.643
 4003WAT     H216733   4.179   5.648   5.685
 4003WAT    EPW16734   4.150   5.719   5.699
 4004WAT      O16735   5.306   5.943   5.540
 4004WAT     H116736   5.355   6.015   5.550
 4004WAT     H216737   5.346   5.901   5.475
 4004WAT    EPW16738   5.319   5.948   5.532
 4005WAT      O16739   4.736   6.228   5.658
 4005WAT     H116740   4.771   6.210   5.735
 4005WAT     H216741   4.692   6.155   5.638
 4005WAT    EPW16742   4.735   6.214   5.666
 4006WAT      O16743   4.833   5.303   4.922
 4006WAT     H116744   4.881   5.372   4.942
 4006WAT     H216745   4.870   5.238   4.967
 4006WAT    EPW16746   4.846   5.303   4.931
 4007WAT      O16747   5.052   5.619   4.149
 4007WAT     H116748   5.051   5.692   4.100
 4007WAT     H216749   4.988   5.633   4.207
 4007WAT    EPW16750   5.042   5.632   4.150
 4008WAT      O16751   5.549   6.006   4.547
 4008WAT     H116752   5.585   5.971   4.619
 4008WAT     H216753   5.548   5.940   4.490
 4008WAT    EPW16754   5.554   5.991   4.549
 4009WAT      O16755   5.154   6.313   4.931
 4009WAT     H116756   5.093   6.283   4.876
 4009WAT     H216757   5.208   6.358   4.881
 4009WAT    EPW16758   5.153   6.315   4.916
 4010WAT      O16759   5.155   5.998   4.871
 4010WAT     H116760   5.075   6.021   4.899
 4010WAT     H216761   5.181   5.939   4.930
 4010WAT    EPW16762   5.147   5.993   4.884
 4011WAT      O16763   4.544   6.479   4.316
 4011WAT     H116764   4.529   6.402   4.353
 4011WAT     H216765   4.613   6.465   4.265
 4011WAT    EPW16766   4.552   6.466   4.314
 4012WAT      O16767   4.773   6.431   4.156
 4012WAT     H116768   4.836   6.447   4.215
 4012WAT     H216769   4.777   6.500   4.103
 4012WAT    EPW16770   4.783   6.444   4.157
 4013WAT      O16771   5.481   5.798   5.356
 4013WAT     H116772   5.486   5.810   5.270
 4013WAT     H216773   5.556   5.830   5.386
 4013WAT    EPW16774   5.493   5.804   5.348
 4014WAT      O16775   5.100   6.333   5.784
 4014WAT     H116776   5.116   6.361   5.865
 4014WAT     H216777   5.126   6.399   5.733
 4014WAT    EPW16778   5.106   6.347   5.788
 4015WAT      O16779   5.584   4.828   5.655
 4015WAT     H116780   5.520   4.788   5.611
 4015WAT     H216781   5.587   4.785   5.731
 4015WAT    EPW16782   5.575   4.816   5.659
 4016WAT      O16783   4.223   5.684   4.239
 4016WAT     H116784   4.256   5.606   4.217
 4016WAT     H216785   4.288   5.721   4.285
 4016WAT    EPW16786   4.238   5.678   4.243
 4017WAT      O16787   5.054   5.779   5.316
 4017WAT     H116788   5.039   5.840   5.376
 4017WAT     H216789   5.107   5.723   5.357
 4017WAT    EPW16790   5.060   5.779   5.331
 4018WAT      O16791   4.892   5.619   4.382
 4018WAT     H116792   4.898   5.684   4.440
 4018WAT     H216793   4.874   5.549   4.431
 4018WAT    EPW16794   4.891   5.618   4.398
 4019WAT      O16795   5.415   6.051   4.969
 4019WAT     H116796   5.367   6.081   4.902
 4019WAT     H216797   5.379   5.974   4.987
 4019WAT    EPW16798   5.403   6.044   4.962
 4020WAT      O16799   4.815   5.823   4.825
 4020WAT     H116800   4.730   5.804   4.833
 4020WAT     H216801   4.847   5.807   4.904
 4020WAT    EPW16802   4.807   5.818   4.838
 4021WAT      O16803   4.490   6.496   3.914
 4021WAT     H116804   4.534   6.427   3.942
 4021WAT     H216805   4.511   6.559   3.971
 4021WAT    EPW16806   4.500   6.495   3.926
 4022WAT      O16807   4.200   5.793   5.057
 4022WAT     H116808   4.272   5.841   5.053
 4022WAT     H216809   4.173   5.790   4.974
 4022WAT    EPW16810   4.206   5.799   5.044
 4023WAT      O16811   4.523   5.310   4.730
 4023WAT     H116812   4.607   5.291   4.740
 4023WAT     H216813   4.486   5.232   4.716
 4023WAT    EPW16814   4.530   5.295   4.729
 4024WAT      O16815   5.784   6.468   4.163
 4024WAT     H116816   5.854   6.421   4.138
 4024WAT     H216817   5.730   6.408   4.196
 4024WAT    EPW16818   5.787   6.452   4.164
 4025WAT      O16819   5.508   5.746   5.081
 4025WAT     H116820   5.507   5.668   5.120
 4025WAT     H216821   5.424   5.769   5.080
 4025WAT    EPW16822   5.496   5.738   5.086
 4026WAT      O16823   4.457   5.587   3.944
 4026WAT     H116824   4.396   5.546   3.992
 4026WAT     H216825   4.419   5.599   3.867
 4026WAT    EPW16826   4.442   5.583   3.940
 4027WAT      O16827   4.139   5.898   5.484
 4027WAT     H116828   4.097   5.846   5.428
 4027WAT     H216829   4.104   5.976   5.470
 4027WAT    EPW16830   4.128   5.902   5.474
 4028WAT      O16831   5.634   5.753   4.824
 4028WAT     H116832   5.605   5.793   4.896
 4028WAT     H216833   5.720   5.747   4.837
 4028WAT    EPW16834   5.642   5.758   4.837
 4029WAT      O16835   4.603   5.433   4.215
 4029WAT     H116836   4.630   5.516   4.222
 4029WAT     H216837   4.516   5.440   4.206
 4029WAT    EPW16838   4.594   5.446   4.215
 4030WAT      O16839   5.400   5.145   5.678
 4030WAT     H116840   5.347   5.191   5.731
 4030WAT     H216841   5.364   5.066   5.678
 4030WAT    EPW16842   5.387   5.140   5.686
 4031WAT      O16843   5.747   6.316   4.877
 4031WAT     H116844   5.776   6.342   4.799
 4031WAT     H216845   5.816   6.326   4.929
 4031WAT    EPW16846   5.761   6.321   4.873
 4032WAT      O16847   5.249   5.502   5.686
 4032WAT     H116848   5.256   5.512   5.772
 4032WAT     H216849   5.186   5.558   5.664
 4032WAT    EPW16850   5.241   5.512   5.695
 4033WAT      O16851   5.476   5.534   5.522
 4033WAT     H116852   5.508   5.613   5.543
 4033WAT     H216853   5.439   5.507   5.597
 4033WAT    EPW16854   5.475   5.542   5.536
 4034WAT      O16855   5.407   6.176   4.075
 4034WAT     H116856   5.441   6.096   4.079
 4034WAT     H216857   5.332   6.169   4.118
 4034WAT    EPW16858   5.401   6.163   4.082
 4035WAT      O16859   5.456   5.360   4.641
 4035WAT     H116860   5.381   5.327   4.673
 4035WAT     H216861   5.456   5.442   4.669
 4035WAT    EPW16862   5.445   5.367   4.650
 4036WAT      O16863   5.746   5.588   5.796
 4036WAT     H116864   5.741   5.554   5.716
 4036WAT     H216865   5.819   5.635   5.794
 4036WAT    EPW16866   5.756   5.590   5.784
 4037WAT      O16867   5.700   5.956   5.417
 4037WAT     H116868   5.762   5.901   5.391
 4037WAT     H216869   5.693   6.012   5.350
 4037WAT    EPW16870   5.708   5.956   5.403
 4038WAT      O16871   5.145   5.964   4.016
 4038WAT     H116872   5.213   5.912   3.999
 4038WAT     H216873   5.103   5.968   3.939
 4038WAT    EPW16874   5.149   5.957   4.002
 4039WAT      O16875   4.613   6.079   5.146
 4039WAT     H116876   4.583   6.138   5.203
 4039WAT     H216877   4.618   6.123   5.071
 4039WAT    EPW16878   4.609   6.094   5.143
 4040WAT      O16879   4.411   5.974   5.486
 4040WAT     H116880   4.330   5.945   5.503
 4040WAT     H216881   4.402   6.061   5.487
 4040WAT    EPW16882   4.398   5.982   5.488
 4041WAT      O16883   5.347   4.993   5.387
 4041WAT     H116884   5.421   5.038   5.381
 4041WAT     H216885   5.290   5.040   5.341
 4041WAT    EPW16886   5.349   5.006   5.380
 4042WAT      O16887   4.865   5.721   5.095
 4042WAT     H116888   4.912   5.759   5.158
 4042WAT     H216889   4.782   5.735   5.121
 4042WAT    EPW16890   4.859   5.729   5.108
 4043WAT      O16891   4.536   5.281   5.369
 4043WAT     H116892   4.552   5.207   5.412
 4043WAT     H216893   4.531   5.257   5.286
 4043WAT    EPW16894   4.537   5.267   5.363
 4044WAT      O16895   4.791   6.460   4.618
 4044WAT     H116896   4.846   6.528   4.623
 4044WAT     H216897   4.756   6.469   4.539
 4044WAT    EPW16898   4.794   6.472   4.607
 4045WAT      O16899   5.475   4.791   5.154
 4045WAT     H116900   5.447   4.873   5.150
 4045WAT     H216901   5.547   4.796   5.204
 4045WAT    EPW16902   5.482   4.804   5.161
 4046WAT      O16903   4.711   4.862   5.357
 4046WAT     H116904   4.781   4.894   5.317
 4046WAT     H216905   4.735   4.782   5.380
 4046WAT    EPW16906   4.725   4.855   5.355
 4047WAT      O16907   4.609   6.283   4.957
 4047WAT     H116908   4.547   6.341   4.939
 4047WAT     H216909   4.634   6.255   4.878
 4047WAT    EPW16910   4.604   6.288   4.943
 4048WAT      O16911   5.040   5.947   5.656
 4048WAT     H116912   5.116   5.975   5.623
 4048WAT     H216913   4.985   5.952   5.588
 4048WAT    EPW16914   5.043   5.952   5.641
 4049WAT      O16915   5.431   6.202   5.506
 4049WAT     H116916   5.466   6.229   5.582
 4049WAT     H216917   5.460   6.260   5.448
 4049WAT    EPW16918   5.441   6.214   5.509
 4050WAT      O16919   5.617   5.416   4.040
 4050WAT     H116920   5.655   5.484   4.000
 4050WAT     H216921   5.533   5.439   4.043
 4050WAT    EPW16922   5.610   5.430   4.035
 4051WAT      O16923   4.769   5.761   3.948
 4051WAT     H116924   4.688   5.743   3.920
 4051WAT     H216925   4.765   5.846   3.968
 4051WAT    EPW16926   4.756   5.771   3.947
 4052WAT      O16927   4.362   5.368   4.963
 4052WAT     H116928   4.406   5.357   4.889
 4052WAT     H216929   4.416   5.336   5.024
 4052WAT    EPW16930   4.376   5.361   4.961
 4053WAT      O16931   5.163   5.278   5.523
 4053WAT     H116932   5.098   5.325   5.557
 4053WAT     H216933   5.220   5.269   5.589
 4053WAT    EPW16934   5.162   5.283   5.538
 4054WAT      O16935   5.132   5.431   5.152
 4054WAT     H116936   5.162   5.473   5.223
 4054WAT     H216937   5.136   5.347   5.176
 4054WAT    EPW16938   5.137   5.425   5.166
 4055WAT      O16939   4.875   6.448   5.545
 4055WAT     H116940   4.922   6.388   5.503
 4055WAT     H216941   4.839   6.404   5.611
 4055WAT    EPW16942   4.876   6.433   5.549
 4056WAT      O16943   5.387   5.376   4.378
 4056WAT     H116944   5.408   5.356   4.460
 4056WAT     H216945   5.462   5.403   4.343
 4056WAT    EPW16946   5.401   5.377   4.385
 4057WAT      O16947   4.716   4.866   4.968
 4057WAT     H116948   4.634   4.851   4.992
 4057WAT     H216949   4.712   4.870   4.881
 4057WAT    EPW16950   4.704   4.864   4.959
 4058WAT      O16951   5.489   4.984   4.525
 4058WAT     H116952   5.418   4.937   4.542
 4058WAT     H216953   5.473   5.019   4.446
 4058WAT    EPW16954   5.476   4.983   4.516
 4059WAT      O16955   5.533   5.779   4.363
 4059WAT     H116956   5.581   5.706   4.358
 4059WAT     H216957   5.451   5.750   4.355
 4059WAT    EPW16958   5.528   5.764   4.361
 4060WAT      O16959   4.880   5.970   5.447
 4060WAT     H116960   4.801   5.964   5.482
 4060WAT     H216961   4.888   6.055   5.427
 4060WAT    EPW16962   4.870   5.982   5.449
 4061WAT      O16963   4.463   6.591   4.979
 4061WAT     H116964   4.465   6.597   5.066
 4061WAT     H216965   4.421   6.516   4.964
 4061WAT    EPW16966   4.457   6.581   4.989
 4062WAT      O16967   5.155   5.896   4.599
 4062WAT     H116968   5.163   5.930   4.678
 4062WAT     H216969   5.172   5.811   4.611
 4062WAT    EPW16970   5.159   5.888   4.612
 4063WAT      O16971   4.907   5.823   4.555
 4063WAT     H116972   4.877   5.791   4.631
 4063WAT     H216973   4.977   5.870   4.579
 4063WAT    EPW16974   4.913   5.825   4.570
 4064WAT      O16975   4.929   6.235   5.358
 4064WAT     H116976   4.998   6.223   5.410
 4064WAT     H216977   4.943   6.314   5.323
 4064WAT    EPW16978   4.941   6.245   5.360
 4065WAT      O16979   5.747   5.496   5.539
 4065WAT     H116980   5.661   5.483   5.551
 4065WAT     H216981   5.762   5.456   5.463
 4065WAT    EPW16982   5.737   5.488   5.529
 4066WAT      O16983   5.198   5.562   5.396
 4066WAT     H116984   5.173   5.490   5.439
 4066WAT     H216985   5.280   5.574   5.423
 4066WAT    EPW16986   5.207   5.553   5.407
 4067WAT      O16987   4.140   6.541   5.523
 4067WAT     H116988   4.074   6.484   5.533
 4067WAT     H216989   4.102   6.618   5.538
 4067WAT    EPW16990   4.125   6.544   5.527
 4068WAT      O16991   4.992   5.681   5.715
 4068WAT     H116992   5.024   5.750   5.672
 4068WAT     H216993   4.921   5.713   5.755
 4068WAT    EPW16994   4.986   5.696   5.715
 4069WAT      O16995   5.300   6.519   4.808
 4069WAT     H116996   5.255   6.583   4.846
 4069WAT     H216997   5.371   6.511   4.859
 4069WAT    EPW16998   5.304   6.527   4.821
 4070WAT      O16999   4.970   6.028   5.101
 4070WAT     H117000   4.901   6.068   5.135
 4070WAT     H217001   5.038   6.071   5.135
 4070WAT    EPW17002   4.970   6.040   5.111
 4071WAT      O17003   5.508   6.287   5.759
 4071WAT     H117004   5.585   6.248   5.767
 4071WAT     H217005   5.461   6.253   5.825
 4071WAT    EPW17006   5.512   6.276   5.770
 4072WAT      O17007   5.610   5.490   4.307
 4072WAT     H117008   5.621   5.484   4.221
 4072WAT     H217009   5.684   5.457   4.339
 4072WAT    EPW17010   5.623   5.484   4.299
 4073WAT      O17011   5.002   6.187   4.418
 4073WAT     H117012   4.982   6.270   4.402
 4073WAT     H217013   4.925   6.148   4.430
 4073WAT    EPW17014   4.988   6.193   4.417
 4074WAT      O17015   5.521   5.505   5.243
 4074WAT     H117016   5.520   5.418   5.255
 4074WAT     H217017   5.527   5.537   5.324
 4074WAT    EPW17018   5.522   5.497   5.257
 4075WAT      O17019   5.108   4.985   5.621
 4075WAT     H117020   5.118   5.056   5.670
 4075WAT     H217021   5.045   4.940   5.661
 4075WAT    EPW17022   5.100   4.989   5.634
 4076WAT      O17023   5.008   5.004   4.706
 4076WAT     H117024   4.938   5.056   4.701
 4076WAT     H217025   5.012   4.966   4.628
 4076WAT    EPW17026   4.998   5.006   4.694
 4077WAT      O17027   4.539   6.213   4.059
 4077WAT     H117028   4.583   6.221   4.134
 4077WAT     H217029   4.458   6.191   4.085
 4077WAT    EPW17030   4.533   6.211   4.074
 4078WAT      O17031   5.368   5.055   4.986
 4078WAT     H117032   5.453   5.065   5.001
 4078WAT     H217033   5.331   5.111   5.043
 4078WAT    EPW17034   5.375   5.065   4.997
 4079WAT      O17035   4.470   5.678   5.424
 4079WAT     H117036   4.431   5.755   5.432
 4079WAT     H217037   4.430   5.641   5.357
 4079WAT    EPW17038   4.459   5.684   5.415
 4080WAT      O17039   5.398   5.583   4.836
 4080WAT     H117040   5.465   5.637   4.852
 4080WAT     H217041   5.364   5.614   4.762
 4080WAT    EPW17042   5.403   5.596   4.827
 4081WAT      O17043   5.429   6.390   4.416
 4081WAT     H117044   5.412   6.325   4.471
 4081WAT     H217045   5.501   6.363   4.374
 4081WAT    EPW17046   5.437   6.376   4.418
 4082WAT      O17047   4.271   6.120   4.119
 4082WAT     H117048   4.247   6.089   4.197
 4082WAT     H217049   4.268   6.050   4.067
 4082WAT    EPW17050   4.267   6.105   4.123
 4083WAT      O17051   4.553   5.944   3.993
 4083WAT     H117052   4.472   5.918   4.007
 4083WAT     H217053   4.551   6.030   4.012
 4083WAT    EPW17054   4.541   5.953   3.998
 4084WAT      O17055   4.513   4.976   5.169
 4084WAT     H117056   4.427   4.984   5.177
 4084WAT     H217057   4.535   4.924   5.236
 4084WAT    EPW17058   4.504   4.969   5.180
 4085WAT      O17059   5.715   4.839   5.302
 4085WAT     H117060   5.710   4.835   5.389
 4085WAT     H217061   5.784   4.789   5.283
 4085WAT    EPW17062   5.725   4.831   5.312
 4086WAT      O17063   5.197   6.135   5.185
 4086WAT     H117064   5.217   6.165   5.265
 4086WAT     H217065   5.191   6.207   5.137
 4086WAT    EPW17066   5.199   6.150   5.190
 4087WAT      O17067   5.150   6.557   5.610
 4087WAT     H117068   5.075   6.555   5.566
 4087WAT     H217069   5.167   6.642   5.618
 4087WAT    EPW17070   5.142   6.569   5.605
 4088WAT      O17071   4.674   5.483   5.527
 4088WAT     H117072   4.642   5.426   5.470
 4088WAT     H217073   4.638   5.559   5.502
 4088WAT    EPW17074   4.664   5.486   5.515
 4089WAT      O17075   4.754   4.809   3.990
 4089WAT     H117076   4.761   4.833   3.906
 4089WAT     H217077   4.679   4.846   4.015
 4089WAT    EPW17078   4.744   4.818   3.981
 4090WAT      O17079   5.678   5.999   5.131
 4090WAT     H117080   5.675   5.913   5.118
 4090WAT     H217081   5.609   6.029   5.088
 4090WAT    EPW17082   5.667   5.991   5.123
 4091WAT      O17083   4.517   6.519   5.552
 4091WAT     H117084   4.522   6.532   5.638
 4091WAT     H217085   4.583   6.463   5.536
 4091WAT    EPW17086   4.528   6.513   5.562
 4092WAT      O17087   5.489   6.325   5.011
 4092WAT     H117088   5.541   6.317   4.942
 4092WAT     H217089   5.449   6.247   5.016
 4092WAT    EPW17090   5.491   6.312   5.001
 4093WAT      O17091   5.140   4.870   4.932
 4093WAT     H117092   5.207   4.924   4.944
 4093WAT     H217093   5.090   4.912   4.874
 4093WAT    EPW17094   5.142   4.884   4.925
 4094WAT      O17095   4.277   6.357   5.688
 4094WAT     H117096   4.336   6.400   5.735
 4094WAT     H217097   4.240   6.420   5.639
 4094WAT    EPW17098   4.280   6.373   5.687
 4095WAT      O17099   5.076   5.450   4.681
 4095WAT     H117100   5.131   5.390   4.711
 4095WAT     H217101   5.033   5.477   4.752
 4095WAT    EPW17102   5.078   5.445   4.696
 4096WAT      O17103   4.069   6.156   5.381
 4096WAT     H117104   4.012   6.198   5.432
 4096WAT     H217105   4.143   6.203   5.390
 4096WAT    EPW17106   4.072   6.169   5.390
 4097WAT      O17107   5.273   5.633   4.337
 4097WAT     H117108   5.280   5.548   4.355
 4097WAT     H217109   5.191   5.642   4.309
 4097WAT    EPW17110   5.262   5.622   4.336
 4098WAT      O17111   4.248   6.483   4.258
 4098WAT     H117112   4.234   6.498   4.174
 4098WAT     H217113   4.335   6.491   4.266
 4098WAT    EPW17114   4.259   6.486   4.247
 4099WAT      O17115   4.665   5.723   4.231
 4099WAT     H117116   4.675   5.736   4.145
 4099WAT     H217117   4.747   5.717   4.261
 4099WAT    EPW17118   4.678   5.724   4.223
 4100WAT      O17119   5.581   6.529   3.979
 4100WAT     H117120   5.644   6.516   4.037
 4100WAT     H217121   5.547   6.450   3.967
 4100WAT    EPW17122   5.585   6.515   3.986
 4101WAT      O17123   5.600   5.771   5.652
 4101WAT     H117124   5.664   5.754   5.710
 4101WAT     H217125   5.642   5.811   5.587
 4101WAT    EPW17126   5.616   5.774   5.651
 4102WAT      O17127   5.188   6.155   4.211
 4102WAT     H117128   5.163   6.143   4.294
 4102WAT     H217129   5.157   6.086   4.169
 4102WAT    EPW17130   5.180   6.143   4.217
 4103WAT      O17131   5.663   5.227   5.726
 4103WAT     H117132   5.643   5.292   5.782
 4103WAT     H217133   5.591   5.178   5.725
 4103WAT    EPW17134   5.649   5.229   5.734
 4104WAT      O17135   5.653   5.321   5.023
 4104WAT     H117136   5.569   5.346   5.016
 4104WAT     H217137   5.647   5.237   5.046
 4104WAT    EPW17138   5.640   5.313   5.025
 4105WAT      O17139   4.579   5.020   5.543
 4105WAT     H117140   4.602   4.962   5.481
 4105WAT     H217141   4.494   5.002   5.557
 4105WAT    EPW17142   4.570   5.009   5.536
 4106WAT      O17143   5.341   5.782   5.788
 4106WAT     H117144   5.428   5.778   5.784
 4106WAT     H217145   5.319   5.824   5.715
 4106WAT    EPW17146   5.351   5.787   5.776
 4107WAT      O17147   4.317   6.364   4.906
 4107WAT     H117148   4.309   6.283   4.874
 4107WAT     H217149   4.272   6.413   4.849
 4107WAT    EPW17150   4.309   6.360   4.893
 4108WAT      O17151   4.877   5.976   4.154
 4108WAT     H117152   4.949   5.942   4.119
 4108WAT     H217153   4.873   6.056   4.119
 4108WAT    EPW17154   4.887   5.983   4.144
 4109WAT      O17155   4.074   6.589   5.264
 4109WAT     H117156   4.123   6.583   5.336
 4109WAT     H217157   4.093   6.515   5.220
 4109WAT    EPW17158   4.084   6.577   5.268
 4110WAT      O17159   5.018   4.840   2.578
 4110WAT     H117160   4.993   4.889   2.510
 4110WAT     H217161   5.104   4.833   2.568
 4110WAT    EPW17162   5.027   4.846   2.567
 4111WAT      O17163   4.999   5.532   3.045
 4111WAT     H117164   4.946   5.592   3.081
 4111WAT     H217165   5.038   5.495   3.114
 4111WAT    EPW17166   4.997   5.535   3.061
 4112WAT      O17167   3.986   5.946   2.591
 4112WAT     H117168   3.941   5.958   2.665
 4112WAT     H217169   3.957   5.868   2.562
 4112WAT    EPW17170   3.975   5.936   2.598
 4113WAT      O17171   5.613   6.276   2.342
 4113WAT     H117172   5.683   6.224   2.342
 4113WAT     H217173   5.554   6.232   2.295
 4113WAT    EPW17174   5.615   6.262   2.335
 4114WAT      O17175   3.960   5.325   2.241
 4114WAT     H117176   3.882   5.341   2.205
 4114WAT     H217177   3.964   5.238   2.244
 4114WAT    EPW17178   3.949   5.315   2.236
 4115WAT      O17179   4.274   5.851   2.109
 4115WAT     H117180   4.235   5.814   2.040
 4115WAT     H217181   4.266   5.792   2.172
 4115WAT    EPW17182   4.267   5.837   2.108
 4116WAT      O17183   5.266   5.639   2.713
 4116WAT     H117184   5.274   5.639   2.626
 4116WAT     H217185   5.207   5.575   2.728
 4116WAT    EPW17186   5.258   5.629   2.702
 4117WAT      O17187   4.236   6.016   2.499
 4117WAT     H117188   4.297   5.999   2.559
 4117WAT     H217189   4.161   6.002   2.541
 4117WAT    EPW17190   4.234   6.011   2.514
 4118WAT      O17191   4.665   4.949   2.494
 4118WAT     H117192   4.658   5.017   2.439
 4118WAT     H217193   4.739   4.910   2.469
 4118WAT    EPW17194   4.675   4.953   2.482
 4119WAT      O17195   4.126   6.325   2.106
 4119WAT     H117196   4.172   6.333   2.033
 4119WAT     H217197   4.171   6.267   2.153
 4119WAT    EPW17198   4.139   6.317   2.102
 4120WAT      O17199   3.980   6.219   3.216
 4120WAT     H117200   3.992   6.191   3.298
 4120WAT     H217201   3.919   6.165   3.185
 4120WAT    EPW17202   3.972   6.207   3.224
 4121WAT      O17203   4.637   5.972   3.723
 4121WAT     H117204   4.613   5.972   3.807
 4121WAT     H217205   4.562   5.957   3.681
 4121WAT    EPW17206   4.622   5.970   3.729
 4122WAT      O17207   4.124   5.672   2.636
 4122WAT     H117208   4.078   5.632   2.574
 4122WAT     H217209   4.194   5.620   2.646
 4122WAT    EPW17210   4.128   5.658   2.629
 4123WAT      O17211   4.575   5.233   3.171
 4123WAT     H117212   4.643   5.234   3.116
 4123WAT     H217213   4.570   5.149   3.196
 4123WAT    EPW17214   4.584   5.220   3.167
 4124WAT      O17215   4.635   6.291   3.449
 4124WAT     H117216   4.649   6.367   3.409
 4124WAT     H217217   4.714   6.255   3.452
 4124WAT    EPW17218   4.649   6.297   3.444
 4125WAT      O17219   4.324   5.482   2.639
 4125WAT     H117220   4.406   5.463   2.663
 4125WAT     H217221   4.277   5.420   2.678
 4125WAT    EPW17222   4.329   5.470   2.648
 4126WAT      O17223   4.745   6.080   2.900
 4126WAT     H117224   4.779   6.000   2.903
 4126WAT     H217225   4.811   6.130   2.874
 4126WAT    EPW17226   4.760   6.075   2.896
 4127WAT      O17227   4.750   6.025   2.521
 4127WAT     H117228   4.783   5.960   2.569
 4127WAT     H217229   4.774   6.003   2.440
 4127WAT    EPW17230   4.759   6.012   2.516
 4128WAT      O17231   4.947   5.438   3.655
 4128WAT     H117232   4.862   5.428   3.637
 4128WAT     H217233   4.950   5.512   3.700
 4128WAT    EPW17234   4.935   5.447   3.659
 4129WAT      O17235   4.384   4.991   2.565
 4129WAT     H117236   4.354   5.041   2.500
 4129WAT     H217237   4.471   4.999   2.560
 4129WAT    EPW17238   4.392   5.000   2.555
 4130WAT      O17239   5.403   4.734   3.566
 4130WAT     H117240   5.387   4.811   3.528
 4130WAT     H217241   5.326   4.712   3.601
 4130WAT    EPW17242   5.389   4.742   3.566
 4131WAT      O17243   4.682   4.905   2.788
 4131WAT     H117244   4.689   4.991   2.801
 4131WAT     H217245   4.678   4.898   2.701
 4131WAT    EPW17246   4.682   4.917   2.777
 4132WAT      O17247   5.149   5.198   2.018
 4132WAT     H117248   5.104   5.266   2.048
 4132WAT     H217249   5.161   5.147   2.088
 4132WAT    EPW17250   5.144   5.200   2.032
 4133WAT      O17251   3.970   5.448   2.938
 4133WAT     H117252   3.944   5.531   2.930
 4133WAT     H217253   3.903   5.409   2.979
 4133WAT    EPW17254   3.956   5.454   2.943
 4134WAT      O17255   3.961   6.419   2.728
 4134WAT     H117256   3.902   6.474   2.696
 4134WAT     H217257   4.003   6.392   2.657
 4134WAT    EPW17258   3.958   6.423   2.713
 4135WAT      O17259   4.545   6.203   2.476
 4135WAT     H117260   4.487   6.176   2.535
 4135WAT     H217261   4.607   6.142   2.478
 4135WAT    EPW17262   4.545   6.190   2.485
 4136WAT      O17263   5.159   6.432   2.228
 4136WAT     H117264   5.232   6.479   2.238
 4136WAT     H217265   5.182   6.352   2.256
 4136WAT    EPW17266   5.173   6.427   2.234
 4137WAT      O17267   4.976   6.471   2.427
 4137WAT     H117268   4.997   6.524   2.493
 4137WAT     H217269   5.053   6.454   2.389
 4137WAT    EPW17270   4.990   6.476   2.431
 4138WAT      O17271   4.273   4.929   2.987
 4138WAT     H117272   4.221   4.867   2.956
 4138WAT     H217273   4.332   4.886   3.034
 4138WAT    EPW17274   4.274   4.914   2.989
 4139WAT      O17275   4.603   5.143   3.917
 4139WAT     H117276   4.615   5.097   3.843
 4139WAT     H217277   4.632   5.222   3.896
 4139WAT    EPW17278   4.609   5.148   3.903
 4140WAT      O17279   4.115   6.286   2.521
 4140WAT     H117280   4.181   6.228   2.522
 4140WAT     H217281   4.154   6.361   2.499
 4140WAT    EPW17282   4.131   6.288   2.518
 4141WAT      O17283   5.689   5.195   2.647
 4141WAT     H117284   5.654   5.263   2.690
 4141WAT     H217285   5.625   5.135   2.649
 4141WAT    EPW17286   5.674   5.196   2.654
 4142WAT      O17287   5.220   6.472   3.257
 4142WAT     H117288   5.294   6.518   3.256
 4142WAT     H217289   5.208   6.451   3.174
 4142WAT    EPW17290   5.229   6.476   3.245
 4143WAT      O17291   4.197   6.134   2.871
 4143WAT     H117292   4.239   6.099   2.803
 4143WAT     H217293   4.229   6.092   2.940
 4143WAT    EPW17294   4.208   6.123   2.871
 4144WAT      O17295   4.520   6.420   2.800
 4144WAT     H117296   4.605   6.430   2.781
 4144WAT     H217297   4.490   6.501   2.807
 4144WAT    EPW17298   4.528   6.433   2.799
 4145WAT      O17299   4.841   4.867   3.732
 4145WAT     H117300   4.859   4.786   3.704
 4145WAT     H217301   4.827   4.911   3.658
 4145WAT    EPW17302   4.842   4.861   3.717
 4146WAT      O17303   4.901   5.359   2.609
 4146WAT     H117304   4.930   5.336   2.530
 4146WAT     H217305   4.974   5.367   2.656
 4146WAT    EPW17306   4.916   5.357   2.604
 4147WAT      O17307   4.973   5.393   2.121
 4147WAT     H117308   5.001   5.472   2.146
 4147WAT     H217309   4.895   5.410   2.085
 4147WAT    EPW17310   4.966   5.407   2.120
 4148WAT      O17311   5.377   6.591   2.268
 4148WAT     H117312   5.444   6.576   2.213
 4148WAT     H217313   5.413   6.582   2.347
 4148WAT    EPW17314   5.392   6.587   2.272
 4149WAT      O17315   4.420   6.541   3.374
 4149WAT     H117316   4.449   6.535   3.456
 4149WAT     H217317   4.357   6.481   3.370
 4149WAT    EPW17318   4.415   6.532   3.386
 4150WAT      O17319   5.656   5.027   3.184
 4150WAT     H117320   5.732   5.035   3.141
 4150WAT     H217321   5.662   4.950   3.224
 4150WAT    EPW17322   5.668   5.017   3.183
 4151WAT      O17323   5.145   6.191   3.628
 4151WAT     H117324   5.142   6.229   3.706
 4151WAT     H217325   5.231   6.186   3.611
 4151WAT    EPW17326   5.157   6.196   3.637
 4152WAT      O17327   4.859   6.210   2.103
 4152WAT     H117328   4.841   6.265   2.169
 4152WAT     H217329   4.936   6.239   2.073
 4152WAT    EPW17330   4.868   6.223   2.108
 4153WAT      O17331   5.210   5.000   2.208
 4153WAT     H117332   5.264   4.932   2.216
 4153WAT     H217333   5.216   5.040   2.286
 4153WAT    EPW17334   5.219   4.996   2.221
 4154WAT      O17335   4.005   5.117   2.465
 4154WAT     H117336   3.994   5.030   2.468
 4154WAT     H217337   3.958   5.146   2.532
 4154WAT    EPW17338   3.996   5.108   2.475
 4155WAT      O17339   4.219   6.358   3.287
 4155WAT     H117340   4.149   6.307   3.299
 4155WAT     H217341   4.245   6.337   3.206
 4155WAT    EPW17342   4.213   6.347   3.277
 4156WAT      O17343   4.935   5.237   2.340
 4156WAT     H117344   4.885   5.171   2.314
 4156WAT     H217345   4.941   5.288   2.269
 4156WAT    EPW17346   4.929   5.235   2.325
 4157WAT      O17347   4.990   6.507   3.378
 4157WAT     H117348   5.067   6.499   3.337
 4157WAT     H217349   4.932   6.495   3.314
 4157WAT    EPW17350   4.993   6.504   3.362
 4158WAT      O17351   4.935   4.932   2.329
 4158WAT     H117352   4.890   4.891   2.266
 4158WAT     H217353   5.013   4.947   2.291
 4158WAT    EPW17354   4.940   4.928   2.314
 4159WAT      O17355   5.618   6.567   2.668
 4159WAT     H117356   5.573   6.639   2.688
 4159WAT     H217357   5.557   6.510   2.644
 4159WAT    EPW17358   5.602   6.569   2.667
 4160WAT      O17359   4.795   5.168   2.781
 4160WAT     H117360   4.803   5.225   2.715
 4160WAT     H217361   4.807   5.217   2.852
 4160WAT    EPW17362   4.798   5.184   2.782
 4161WAT      O17363   5.318   6.152   2.622
 4161WAT     H117364   5.388   6.104   2.641
 4161WAT     H217365   5.252   6.095   2.627
 4161WAT    EPW17366   5.318   6.136   2.626
 4162WAT      O17367   4.355   6.243   3.543
 4162WAT     H117368   4.439   6.249   3.521
 4162WAT     H217369   4.352   6.282   3.621
 4162WAT    EPW17370   4.367   6.250   3.552
 4163WAT      O17371   4.256   4.751   2.616
 4163WAT     H117372   4.310   4.819   2.615
 4163WAT     H217373   4.256   4.723   2.533
 4163WAT    EPW17374   4.264   4.757   2.603
 4164WAT      O17375   4.552   5.794   3.018
 4164WAT     H117376   4.569   5.773   3.101
 4164WAT     H217377   4.486   5.740   2.997
 4164WAT    EPW17378   4.545   5.783   3.027
 4165WAT      O17379   5.174   5.185   3.370
 4165WAT     H117380   5.165   5.217   3.450
 4165WAT     H217381   5.115   5.121   3.366
 4165WAT    EPW17382   5.164   5.180   3.381
 4166WAT      O17383   4.627   5.788   3.277
 4166WAT     H117384   4.632   5.872   3.297
 4166WAT     H217385   4.598   5.751   3.351
 4166WAT    EPW17386   4.623   5.795   3.291
 4167WAT      O17387   5.244   5.857   3.190
 4167WAT     H117388   5.193   5.816   3.247
 4167WAT     H217389   5.232   5.942   3.208
 4167WAT    EPW17390   5.235   5.864   3.201
 4168WAT      O17391   5.300   4.780   2.653
 4168WAT     H117392   5.305   4.748   2.734
 4168WAT     H217393   5.332   4.715   2.604
 4168WAT    EPW17394   5.306   4.765   2.658
 4169WAT      O17395   3.909   6.225   3.898
 4169WAT     H117396   3.984   6.260   3.924
 4169WAT     H217397   3.926   6.139   3.893
 4169WAT    EPW17398   3.923   6.217   3.901
 4170WAT      O17399   5.546   5.203   3.484
 4170WAT     H117400   5.624   5.181   3.518
 4170WAT     H217401   5.499   5.225   3.554
 4170WAT    EPW17402   5.551   5.203   3.499
 4171WAT      O17403   4.301   5.132   2.781
 4171WAT     H117404   4.328   5.089   2.710
 4171WAT     H217405   4.283   5.068   2.838
 4171WAT    EPW17406   4.302   5.116   2.779
 4172WAT      O17407   5.570   5.901   2.203
 4172WAT     H117408   5.582   5.872   2.284
 4172WAT     H217409   5.650   5.903   2.170
 4172WAT    EPW17410   5.583   5.897   2.210
 4173WAT      O17411   4.283   5.874   2.736
 4173WAT     H117412   4.368   5.866   2.719
 4173WAT     H217413   4.248   5.806   2.695
 4173WAT    EPW17414   4.291   5.863   2.727
 4174WAT      O17415   4.160   6.547   2.860
 4174WAT     H117416   4.093   6.497   2.835
 4174WAT     H217417   4.200   6.565   2.785
 4174WAT    EPW17418   4.156   6.542   2.845
 4175WAT      O17419   4.115   5.242   3.089
 4175WAT     H117420   4.199   5.264   3.085
 4175WAT     H217421   4.076   5.299   3.036
 4175WAT    EPW17422   4.122   5.253   3.081
 4176WAT      O17423   5.793   6.352   3.628
 4176WAT     H117424   5.725   6.383   3.584
 4176WAT     H217425   5.756   6.306   3.693
 4176WAT    EPW17426   5.777   6.350   3.631
 4177WAT      O17427   5.359   5.555   2.161
 4177WAT     H117428   5.337   5.628   2.119
 4177WAT     H217429   5.314   5.560   2.236
 4177WAT    EPW17430   5.349   5.566   2.166
 4178WAT      O17431   4.520   5.875   2.560
 4178WAT     H117432   4.591   5.924   2.569
 4178WAT     H217433   4.542   5.818   2.497
 4178WAT    EPW17434   4.534   5.874   2.552
 4179WAT      O17435   5.778   5.041   2.107
 4179WAT     H117436   5.712   4.984   2.109
 4179WAT     H217437   5.759   5.092   2.039
 4179WAT    EPW17438   5.765   5.040   2.097
 4180WAT      O17439   3.936   6.039   2.892
 4180WAT     H117440   3.869   6.088   2.919
 4180WAT     H217441   4.004   6.094   2.894
 4180WAT    EPW17442   3.936   6.054   2.896
 4181WAT      O17443   4.700   5.410   3.901
 4181WAT     H117444   4.652   5.468   3.945
 4181WAT     H217445   4.698   5.440   3.819
 4181WAT    EPW17446   4.693   5.423   3.896
 4182WAT      O17447   5.810   5.479   3.362
 4182WAT     H117448   5.832   5.399   3.335
 4182WAT     H217449   5.725   5.485   3.343
 4182WAT    EPW17450   5.801   5.468   3.355
 4183WAT      O17451   3.942   5.708   2.402
 4183WAT     H117452   3.924   5.624   2.417
 4183WAT     H217453   4.008   5.704   2.345
 4183WAT    EPW17454   3.949   5.695   2.396
 4184WAT      O17455   5.578   4.997   2.335
 4184WAT     H117456   5.653   4.956   2.355
 4184WAT     H217457   5.604   5.068   2.292
 4184WAT    EPW17458   5.593   5.001   2.331
 4185WAT      O17459   4.972   6.245   2.792
 4185WAT     H117460   4.920   6.309   2.763
 4185WAT     H217461   5.003   6.209   2.719
 4185WAT    EPW17462   4.969   6.249   2.777
 4186WAT      O17463   3.959   6.124   2.359
 4186WAT     H117464   4.015   6.181   2.396
 4186WAT     H217465   3.936   6.073   2.426
 4186WAT    EPW17466   3.964   6.125   2.375
 4187WAT      O17467   4.380   6.024   3.068
 4187WAT     H117468   4.427   6.053   3.136
 4187WAT     H217469   4.437   5.976   3.023
 4187WAT    EPW17470   4.395   6.021   3.072
 4188WAT      O17471   5.223   5.225   2.842
 4188WAT     H117472   5.258   5.241   2.921
 4188WAT     H217473   5.178   5.152   2.853
 4188WAT    EPW17474   5.222   5.217   2.855
 4189WAT      O17475   3.942   5.969   2.122
 4189WAT     H117476   4.018   5.926   2.128
 4189WAT     H217477   3.944   6.022   2.191
 4189WAT    EPW17478   3.954   5.970   2.133
 4190WAT      O17479   4.036   5.791   2.923
 4190WAT     H117480   4.080   5.778   2.848
 4190WAT     H217481   4.016   5.876   2.920
 4190WAT    EPW17482   4.040   5.802   2.911
 4191WAT      O17483   4.671   5.147   2.288
 4191WAT     H117484   4.671   5.136   2.201
 4191WAT     H217485   4.653   5.232   2.297
 4191WAT    EPW17486   4.668   5.158   2.276
 4192WAT      O17487   5.576   6.390   3.437
 4192WAT     H117488   5.509   6.442   3.459
 4192WAT     H217489   5.583   6.400   3.351
 4192WAT    EPW17490   5.567   6.399   3.428
 4193WAT      O17491   4.445   6.143   2.751
 4193WAT     H117492   4.457   6.227   2.770
 4193WAT     H217493   4.512   6.103   2.790
 4193WAT    EPW17494   4.457   6.149   2.759
 4194WAT      O17495   4.258   5.491   3.737
 4194WAT     H117496   4.204   5.440   3.784
 4194WAT     H217497   4.260   5.452   3.659
 4194WAT    EPW17498   4.250   5.478   3.732
 4195WAT      O17499   4.306   5.431   2.251
 4195WAT     H117500   4.294   5.386   2.325
 4195WAT     H217501   4.248   5.396   2.196
 4195WAT    EPW17502   4.296   5.419   2.254
 4196WAT      O17503   4.323   5.614   2.911
 4196WAT     H117504   4.245   5.608   2.873
 4196WAT     H217505   4.330   5.538   2.955
 4196WAT    EPW17506   4.313   5.602   2.912
 4197WAT      O17507   4.366   5.587   3.258
 4197WAT     H117508   4.369   5.520   3.203
 4197WAT     H217509   4.301   5.637   3.227
 4197WAT    EPW17510   4.357   5.585   3.245
 4198WAT      O17511   5.356   5.359   3.097
 4198WAT     H117512   5.289   5.391   3.144
 4198WAT     H217513   5.374   5.422   3.040
 4198WAT    EPW17514   5.349   5.373   3.096
 4199WAT      O17515   4.776   6.465   3.197
 4199WAT     H117516   4.748   6.401   3.145
 4199WAT     H217517   4.755   6.538   3.153
 4199WAT    EPW17518   4.769   6.466   3.183
 4200WAT      O17519   5.020   4.949   3.440
 4200WAT     H117520   5.035   4.867   3.416
 4200WAT     H217521   5.058   4.955   3.519
 4200WAT    EPW17522   5.028   4.938   3.448
 4201WAT      O17523   5.175   5.156   2.448
 4201WAT     H117524   5.224   5.227   2.441
 4201WAT     H217525   5.096   5.182   2.422
 4201WAT    EPW17526   5.170   5.170   2.443
 4202WAT      O17527   4.146   5.723   3.814
 4202WAT     H117528   4.142   5.773   3.742
 4202WAT     H217529   4.179   5.648   3.784
 4202WAT    EPW17530   4.150   5.719   3.799
 4203WAT      O17531   5.306   5.943   3.639
 4203WAT     H117532   5.355   6.015   3.649
 4203WAT     H217533   5.346   5.901   3.574
 4203WAT    EPW17534   5.319   5.948   3.631
 4204WAT      O17535   4.736   6.228   3.757
 4204WAT     H117536   4.771   6.210   3.835
 4204WAT     H217537   4.692   6.155   3.737
 4204WAT    EPW17538   4.735   6.214   3.766
 4205WAT      O17539   4.833   5.303   3.021
 4205WAT     H117540   4.881   5.372   3.042
 4205WAT     H217541   4.870   5.238   3.066
 4205WAT    EPW17542   4.846   5.303   3.031
 4206WAT      O17543   5.052   5.619   2.248
 4206WAT     H117544   5.051   5.692   2.199
 4206WAT     H217545   4.988   5.633   2.306
 4206WAT    EPW17546   5.042   5.632   2.250
 4207WAT      O17547   5.549   6.006   2.646
 4207WAT     H117548   5.585   5.971   2.718
 4207WAT     H217549   5.548   5.940   2.589
 4207WAT    EPW17550   5.554   5.991   2.649
 4208WAT      O17551   5.154   6.313   3.031
 4208WAT     H117552   5.093   6.283   2.975
 4208WAT     H217553   5.208   6.358   2.980
 4208WAT    EPW17554   5.153   6.315   3.015
 4209WAT      O17555   5.155   5.998   2.971
 4209WAT     H117556   5.075   6.021   2.998
 4209WAT     H217557   5.181   5.939   3.029
 4209WAT    EPW17558   5.147   5.993   2.984
 4210WAT      O17559   4.544   6.479   2.416
 4210WAT     H117560   4.529   6.402   2.453
 4210WAT     H217561   4.613   6.465   2.364
 4210WAT    EPW17562   4.552   6.466   2.414
 4211WAT      O17563   4.511   4.854   2.214
 4211WAT     H117564   4.521   4.843   2.301
 4211WAT     H217565   4.440   4.904   2.208
 4211WAT    EPW17566   4.502   4.860   2.226
 4212WAT      O17567   4.773   6.431   2.256
 4212WAT     H117568   4.836   6.447   2.315
 4212WAT     H217569   4.777   6.500   2.203
 4212WAT    EPW17570   4.783   6.444   2.257
 4213WAT      O17571   5.481   5.798   3.455
 4213WAT     H117572   5.486   5.810   3.369
 4213WAT     H217573   5.556   5.830   3.486
 4213WAT    EPW17574   5.493   5.804   3.447
 4214WAT      O17575   5.100   6.333   3.883
 4214WAT     H117576   5.116   6.361   3.964
 4214WAT     H217577   5.126   6.399   3.833
 4214WAT    EPW17578   5.106   6.347   3.888
 4215WAT      O17579   5.584   4.828   3.754
 4215WAT     H117580   5.520   4.788   3.710
 4215WAT     H217581   5.587   4.785   3.830
 4215WAT    EPW17582   5.575   4.816   3.759
 4216WAT      O17583   4.223   5.684   2.339
 4216WAT     H117584   4.256   5.606   2.317
 4216WAT     H217585   4.288   5.721   2.384
 4216WAT    EPW17586   4.238   5.678   2.342
 4217WAT      O17587   5.054   5.779   3.415
 4217WAT     H117588   5.039   5.840   3.476
 4217WAT     H217589   5.107   5.723   3.456
 4217WAT    EPW17590   5.060   5.779   3.430
 4218WAT      O17591   3.923   4.850   2.436
 4218WAT     H117592   3.936   4.780   2.386
 4218WAT     H217593   3.886   4.819   2.508
 4218WAT    EPW17594   3.920   4.835   2.439
 4219WAT      O17595   4.892   5.619   2.481
 4219WAT     H117596   4.898   5.684   2.539
 4219WAT     H217597   4.874   5.549   2.530
 4219WAT    EPW17598   4.891   5.618   2.497
 4220WAT      O17599   5.415   6.051   3.068
 4220WAT     H117600   5.367   6.081   3.002
 4220WAT     H217601   5.379   5.974   3.086
 4220WAT    EPW17602   5.403   6.044   3.061
 4221WAT      O17603   4.342   5.070   2.132
 4221WAT     H117604   4.291   5.076   2.062
 4221WAT     H217605   4.420   5.094   2.103
 4221WAT    EPW17606   4.346   5.075   2.118
 4222WAT      O17607   4.815   5.823   2.924
 4222WAT     H117608   4.730   5.804   2.932
 4222WAT     H217609   4.847   5.807   3.004
 4222WAT    EPW17610   4.807   5.818   2.937
 4223WAT      O17611   4.490   6.496   2.013
 4223WAT     H117612   4.534   6.427   2.042
 4223WAT     H217613   4.511   6.559   2.070
 4223WAT    EPW17614   4.500   6.495   2.026
 4224WAT      O17615   4.200   5.793   3.156
 4224WAT     H117616   4.272   5.841   3.152
 4224WAT     H217617   4.173   5.790   3.073
 4224WAT    EPW17618   4.206   5.799   3.143
 4225WAT      O17619   4.523   5.310   2.829
 4225WAT     H117620   4.607   5.291   2.839
 4225WAT     H217621   4.486   5.232   2.816
 4225WAT    EPW17622   4.530   5.295   2.829
 4226WAT      O17623   5.784   6.468   2.262
 4226WAT     H117624   5.854   6.421   2.237
 4226WAT     H217625   5.730   6.408   2.296
 4226WAT    EPW17626   5.787   6.452   2.263
 4227WAT      O17627   4.005   5.443   2.495
 4227WAT     H117628   4.054   5.414   2.561
 4227WAT     H217629   4.018   5.384   2.432
 4227WAT    EPW17630   4.014   5.430   2.495
 4228WAT      O17631   5.508   5.746   3.180
 4228WAT     H117632   5.507   5.668   3.220
 4228WAT     H217633   5.424   5.769   3.179
 4228WAT    EPW17634   5.496   5.738   3.186
 4229WAT      O17635   4.457   5.587   2.044
 4229WAT     H117636   4.396   5.546   2.091
 4229WAT     H217637   4.419   5.599   1.966
 4229WAT    EPW17638   4.442   5.583   2.039
 4230WAT      O17639   4.139   5.898   3.584
 4230WAT     H117640   4.097   5.846   3.528
 4230WAT     H217641   4.104   5.976   3.569
 4230WAT    EPW17642   4.128   5.902   3.573
 4231WAT      O17643   5.634   5.753   2.924
 4231WAT     H117644   5.605   5.793   2.996
 4231WAT     H217645   5.720   5.747   2.936
 4231WAT    EPW17646   5.642   5.758   2.936
 4232WAT      O17647   4.603   5.433   2.315
 4232WAT     H117648   4.630   5.516   2.321
 4232WAT     H217649   4.516   5.440   2.305
 4232WAT    EPW17650   4.594   5.446   2.314
 4233WAT      O17651   5.400   5.145   3.778
 4233WAT     H117652   5.347   5.191   3.830
 4233WAT     H217653   5.364   5.066   3.777
 4233WAT    EPW17654   5.387   5.140   3.785
 4234WAT      O17655   3.951   5.030   2.968
 4234WAT     H117656   3.955   5.064   2.888
 4234WAT     H217657   4.026   5.054   3.005
 4234WAT    EPW17658   3.962   5.039   2.962
 4235WAT      O17659   5.747   6.316   2.977
 4235WAT     H117660   5.776   6.342   2.899
 4235WAT     H217661   5.816   6.326   3.029
 4235WAT    EPW17662   5.761   6.321   2.973
 4236WAT      O17663   5.249   5.502   3.785
 4236WAT     H117664   5.256   5.512   3.872
 4236WAT     H217665   5.186   5.558   3.763
 4236WAT    EPW17666   5.241   5.512   3.795
 4237WAT      O17667   5.476   5.534   3.622
 4237WAT     H117668   5.508   5.613   3.642
 4237WAT     H217669   5.439   5.507   3.696
 4237WAT    EPW17670   5.475   5.542   3.636
 4238WAT      O17671   5.407   6.176   2.175
 4238WAT     H117672   5.441   6.096   2.178
 4238WAT     H217673   5.332   6.169   2.218
 4238WAT    EPW17674   5.401   6.163   2.182
 4239WAT      O17675   5.456   5.360   2.741
 4239WAT     H117676   5.381   5.327   2.773
 4239WAT     H217677   5.456   5.442   2.769
 4239WAT    EPW17678   5.445   5.367   2.750
 4240WAT      O17679   5.746   5.588   3.895
 4240WAT     H117680   5.741   5.554   3.815
 4240WAT     H217681   5.819   5.635   3.893
 4240WAT    EPW17682   5.756   5.590   3.883
 4241WAT      O17683   5.700   5.956   3.516
 4241WAT     H117684   5.762   5.901   3.490
 4241WAT     H217685   5.693   6.012   3.450
 4241WAT    EPW17686   5.708   5.956   3.502
 4242WAT      O17687   5.145   5.964   2.115
 4242WAT     H117688   5.213   5.912   2.098
 4242WAT     H217689   5.103   5.968   2.039
 4242WAT    EPW17690   5.149   5.957   2.101
 4243WAT      O17691   4.613   6.079   3.246
 4243WAT     H117692   4.583   6.138   3.302
 4243WAT     H217693   4.618   6.123   3.171
 4243WAT    EPW17694   4.609   6.094   3.243
 4244WAT      O17695   4.411   5.974   3.585
 4244WAT     H117696   4.330   5.945   3.602
 4244WAT     H217697   4.402   6.061   3.586
 4244WAT    EPW17698   4.398   5.982   3.588
 4245WAT      O17699   5.347   4.993   3.487
 4245WAT     H117700   5.421   5.038   3.481
 4245WAT     H217701   5.290   5.040   3.440
 4245WAT    EPW17702   5.349   5.006   3.479
 4246WAT      O17703   4.865   5.721   3.195
 4246WAT     H117704   4.912   5.759   3.257
 4246WAT     H217705   4.782   5.735   3.221
 4246WAT    EPW17706   4.859   5.729   3.208
 4247WAT      O17707   4.536   5.281   3.469
 4247WAT     H117708   4.552   5.207   3.511
 4247WAT     H217709   4.531   5.257   3.385
 4247WAT    EPW17710   4.537   5.267   3.463
 4248WAT      O17711   4.791   6.460   2.717
 4248WAT     H117712   4.846   6.528   2.723
 4248WAT     H217713   4.756   6.469   2.638
 4248WAT    EPW17714   4.794   6.472   2.706
 4249WAT      O17715   5.475   4.791   3.254
 4249WAT     H117716   5.447   4.873   3.249
 4249WAT     H217717   5.547   4.796   3.303
 4249WAT    EPW17718   5.482   4.804   3.261
 4250WAT      O17719   4.711   4.862   3.457
 4250WAT     H117720   4.781   4.894   3.417
 4250WAT     H217721   4.735   4.782   3.479
 4250WAT    EPW17722   4.725   4.855   3.454
 4251WAT      O17723   4.609   6.283   3.056
 4251WAT     H117724   4.547   6.341   3.038
 4251WAT     H217725   4.634   6.255   2.978
 4251WAT    EPW17726   4.604   6.288   3.042
 4252WAT      O17727   5.040   5.947   3.755
 4252WAT     H117728   5.116   5.975   3.723
 4252WAT     H217729   4.985   5.952   3.687
 4252WAT    EPW17730   5.043   5.952   3.740
 4253WAT      O17731   5.431   6.202   3.606
 4253WAT     H117732   5.466   6.229   3.681
 4253WAT     H217733   5.460   6.260   3.548
 4253WAT    EPW17734   5.441   6.214   3.608
 4254WAT      O17735   5.617   5.416   2.140
 4254WAT     H117736   5.655   5.484   2.100
 4254WAT     H217737   5.533   5.439   2.143
 4254WAT    EPW17738   5.610   5.430   2.134
 4255WAT      O17739   4.769   5.761   2.048
 4255WAT     H117740   4.688   5.743   2.019
 4255WAT     H217741   4.765   5.846   2.067
 4255WAT    EPW17742   4.756   5.771   2.047
 4256WAT      O17743   5.163   5.278   3.622
 4256WAT     H117744   5.098   5.325   3.657
 4256WAT     H217745   5.220   5.269   3.688
 4256WAT    EPW17746   5.162   5.283   3.637
 4257WAT      O17747   5.132   5.431   3.252
 4257WAT     H117748   5.162   5.473   3.322
 4257WAT     H217749   5.136   5.347   3.275
 4257WAT    EPW17750   5.137   5.425   3.266
 4258WAT      O17751   4.875   6.448   3.644
 4258WAT     H117752   4.922   6.388   3.603
 4258WAT     H217753   4.839   6.404   3.711
 4258WAT    EPW17754   4.876   6.433   3.648
 4259WAT      O17755   5.387   5.376   2.477
 4259WAT     H117756   5.408   5.356   2.559
 4259WAT     H217757   5.462   5.403   2.443
 4259WAT    EPW17758   5.401   5.377   2.484
 4260WAT      O17759   5.489   4.984   2.624
 4260WAT     H117760   5.418   4.937   2.642
 4260WAT     H217761   5.473   5.019   2.546
 4260WAT    EPW17762   5.476   4.983   2.615
 4261WAT      O17763   5.533   5.779   2.462
 4261WAT     H117764   5.581   5.706   2.458
 4261WAT     H217765   5.451   5.750   2.455
 4261WAT    EPW17766   5.528   5.764   2.461
 4262WAT      O17767   4.880   5.970   3.546
 4262WAT     H117768   4.801   5.964   3.581
 4262WAT     H217769   4.888   6.055   3.527
 4262WAT    EPW17770   4.870   5.982   3.549
 4263WAT      O17771   4.463   6.591   3.078
 4263WAT     H117772   4.465   6.597   3.165
 4263WAT     H217773   4.421   6.516   3.063
 4263WAT    EPW17774   4.457   6.581   3.089
 4264WAT      O17775   4.279   5.180   2.394
 4264WAT     H117776   4.292   5.147   2.314
 4264WAT     H217777   4.198   5.155   2.413
 4264WAT    EPW17778   4.269   5.172   2.385
 4265WAT      O17779   5.155   5.896   2.698
 4265WAT     H117780   5.163   5.930   2.778
 4265WAT     H217781   5.172   5.811   2.710
 4265WAT    EPW17782   5.159   5.888   2.712
 4266WAT      O17783   4.907   5.823   2.654
 4266WAT     H117784   4.877   5.791   2.730
 4266WAT     H217785   4.977   5.870   2.678
 4266WAT    EPW17786   4.913   5.825   2.669
 4267WAT      O17787   4.929   6.235   3.457
 4267WAT     H117788   4.998   6.223   3.510
 4267WAT     H217789   4.943   6.314   3.423
 4267WAT    EPW17790   4.941   6.245   3.460
 4268WAT      O17791   5.747   5.496   3.638
 4268WAT     H117792   5.661   5.483   3.651
 4268WAT     H217793   5.762   5.456   3.562
 4268WAT    EPW17794   5.737   5.488   3.629
 4269WAT      O17795   5.198   5.562   3.496
 4269WAT     H117796   5.173   5.490   3.538
 4269WAT     H217797   5.280   5.574   3.523
 4269WAT    EPW17798   5.207   5.553   3.506
 4270WAT      O17799   4.140   6.541   3.622
 4270WAT     H117800   4.074   6.484   3.632
 4270WAT     H217801   4.102   6.618   3.637
 4270WAT    EPW17802   4.125   6.544   3.626
 4271WAT      O17803   4.992   5.681   3.815
 4271WAT     H117804   5.024   5.750   3.771
 4271WAT     H217805   4.921   5.713   3.855
 4271WAT    EPW17806   4.986   5.696   3.814
 4272WAT      O17807   5.300   6.519   2.907
 4272WAT     H117808   5.255   6.583   2.945
 4272WAT     H217809   5.371   6.511   2.958
 4272WAT    EPW17810   5.304   6.527   2.921
 4273WAT      O17811   4.970   6.028   3.200
 4273WAT     H117812   4.901   6.068   3.235
 4273WAT     H217813   5.038   6.071   3.234
 4273WAT    EPW17814   4.970   6.040   3.211
 4274WAT      O17815   5.508   6.287   3.858
 4274WAT     H117816   5.585   6.248   3.867
 4274WAT     H217817   5.461   6.253   3.924
 4274WAT    EPW17818   5.512   6.276   3.869
 4275WAT      O17819   4.277   5.381   3.435
 4275WAT     H117820   4.314   5.443   3.386
 4275WAT     H217821   4.344   5.334   3.464
 4275WAT    EPW17822   4.292   5.384   3.432
 4276WAT      O17823   5.610   5.490   2.407
 4276WAT     H117824   5.621   5.484   2.320
 4276WAT     H217825   5.684   5.457   2.438
 4276WAT    EPW17826   5.623   5.484   2.399
 4277WAT      O17827   4.310   4.967   3.604
 4277WAT     H117828   4.302   4.883   3.624
 4277WAT     H217829   4.278   4.972   3.522
 4277WAT    EPW17830   4.304   4.955   3.595
 4278WAT      O17831   5.002   6.187   2.517
 4278WAT     H117832   4.982   6.270   2.501
 4278WAT     H217833   4.925   6.148   2.530
 4278WAT    EPW17834   4.988   6.193   2.517
 4279WAT      O17835   5.521   5.505   3.342
 4279WAT     H117836   5.520   5.418   3.355
 4279WAT     H217837   5.527   5.537   3.423
 4279WAT    EPW17838   5.522   5.497   3.356
 4280WAT      O17839   3.994   5.749   3.385
 4280WAT     H117840   4.026   5.771   3.307
 4280WAT     H217841   3.984   5.662   3.380
 4280WAT    EPW17842   3.997   5.739   3.373
 4281WAT      O17843   4.140   5.342   2.047
 4281WAT     H117844   4.073   5.344   2.102
 4281WAT     H217845   4.149   5.258   2.028
 4281WAT    EPW17846   4.131   5.330   2.052
 4282WAT      O17847   5.108   4.985   3.720
 4282WAT     H117848   5.118   5.056   3.770
 4282WAT     H217849   5.045   4.940   3.760
 4282WAT    EPW17850   5.100   4.989   3.734
 4283WAT      O17851   5.008   5.004   2.806
 4283WAT     H117852   4.938   5.056   2.800
 4283WAT     H217853   5.012   4.966   2.727
 4283WAT    EPW17854   4.998   5.006   2.793
 4284WAT      O17855   4.539   6.213   2.158
 4284WAT     H117856   4.583   6.221   2.233
 4284WAT     H217857   4.458   6.191   2.184
 4284WAT    EPW17858   4.533   6.211   2.173
 4285WAT      O17859   5.368   5.055   3.086
 4285WAT     H117860   5.453   5.065   3.100
 4285WAT     H217861   5.331   5.111   3.142
 4285WAT    EPW17862   5.375   5.065   3.096
 4286WAT      O17863   4.470   5.678   3.524
 4286WAT     H117864   4.431   5.755   3.531
 4286WAT     H217865   4.430   5.641   3.456
 4286WAT    EPW17866   4.459   5.684   3.515
 4287WAT      O17867   5.398   5.583   2.935
 4287WAT     H117868   5.465   5.637   2.951
 4287WAT     H217869   5.364   5.614   2.861
 4287WAT    EPW17870   5.403   5.596   2.926
 4288WAT      O17871   5.429   6.390   2.516
 4288WAT     H117872   5.412   6.325   2.571
 4288WAT     H217873   5.501   6.363   2.473
 4288WAT    EPW17874   5.437   6.376   2.518
 4289WAT      O17875   4.271   6.120   2.218
 4289WAT     H117876   4.247   6.089   2.296
 4289WAT     H217877   4.268   6.050   2.167
 4289WAT    EPW17878   4.267   6.105   2.222
 4290WAT      O17879   4.553   5.944   2.093
 4290WAT     H117880   4.472   5.918   2.107
 4290WAT     H217881   4.551   6.030   2.111
 4290WAT    EPW17882   4.541   5.953   2.097
 4291WAT      O17883   4.513   4.976   3.269
 4291WAT     H117884   4.427   4.984   3.277
 4291WAT     H217885   4.535   4.924   3.335
 4291WAT    EPW17886   4.504   4.969   3.280
 4292WAT      O17887   5.715   4.839   3.401
 4292WAT     H117888   5.710   4.835   3.488
 4292WAT     H217889   5.784   4.789   3.382
 4292WAT    EPW17890   5.725   4.831   3.411
 4293WAT      O17891   4.924   5.050   3.106
 4293WAT     H117892   4.850   5.005   3.117
 4293WAT     H217893   4.981   5.010   3.158
 4293WAT    EPW17894   4.921   5.038   3.115
 4294WAT      O17895   5.197   6.135   3.285
 4294WAT     H117896   5.217   6.165   3.364
 4294WAT     H217897   5.191   6.207   3.236
 4294WAT    EPW17898   5.199   6.150   3.289
 4295WAT      O17899   5.150   6.557   3.709
 4295WAT     H117900   5.075   6.555   3.665
 4295WAT     H217901   5.167   6.642   3.718
 4295WAT    EPW17902   5.142   6.569   3.704
 4296WAT      O17903   4.674   5.483   3.626
 4296WAT     H117904   4.642   5.426   3.569
 4296WAT     H217905   4.638   5.559   3.602
 4296WAT    EPW17906   4.664   5.486   3.614
 4297WAT      O17907   4.754   4.809   2.089
 4297WAT     H117908   4.761   4.833   2.006
 4297WAT     H217909   4.679   4.846   2.115
 4297WAT    EPW17910   4.744   4.818   2.081
 4298WAT      O17911   5.678   5.999   3.231
 4298WAT     H117912   5.675   5.913   3.217
 4298WAT     H217913   5.609   6.029   3.187
 4298WAT    EPW17914   5.667   5.991   3.222
 4299WAT      O17915   4.517   6.519   3.651
 4299WAT     H117916   4.522   6.532   3.737
 4299WAT     H217917   4.583   6.463   3.636
 4299WAT    EPW17918   4.528   6.513   3.662
 4300WAT      O17919   5.489   6.325   3.110
 4300WAT     H117920   5.541   6.317   3.041
 4300WAT     H217921   5.449   6.247   3.116
 4300WAT    EPW17922   5.491   6.312   3.101
 4301WAT      O17923   4.235   4.984   3.333
 4301WAT     H117924   4.201   4.907   3.310
 4301WAT     H217925   4.166   5.036   3.340
 4301WAT    EPW17926   4.220   4.980   3.331
 4302WAT      O17927   5.140   4.870   3.031
 4302WAT     H117928   5.207   4.924   3.044
 4302WAT     H217929   5.090   4.912   2.974
 4302WAT    EPW17930   5.142   4.884   3.024
 4303WAT      O17931   4.277   6.357   3.787
 4303WAT     H117932   4.336   6.400   3.834
 4303WAT     H217933   4.240   6.420   3.738
 4303WAT    EPW17934   4.280   6.373   3.787
 4304WAT      O17935   5.076   5.450   2.780
 4304WAT     H117936   5.131   5.390   2.810
 4304WAT     H217937   5.033   5.477   2.852
 4304WAT    EPW17938   5.078   5.445   2.795
 4305WAT      O17939   4.101   5.315   2.729
 4305WAT     H117940   4.064   5.346   2.802
 4305WAT     H217941   4.154   5.252   2.757
 4305WAT    EPW17942   4.103   5.311   2.744
 4306WAT      O17943   5.273   5.633   2.437
 4306WAT     H117944   5.280   5.548   2.455
 4306WAT     H217945   5.191   5.642   2.409
 4306WAT    EPW17946   5.262   5.622   2.435
 4307WAT      O17947   4.248   6.483   2.358
 4307WAT     H117948   4.234   6.498   2.273
 4307WAT     H217949   4.335   6.491   2.365
 4307WAT    EPW17950   4.259   6.486   2.346
 4308WAT      O17951   4.665   5.723   2.330
 4308WAT     H117952   4.675   5.736   2.245
 4308WAT     H217953   4.747   5.717   2.360
 4308WAT    EPW17954   4.678   5.724   2.322
 4309WAT      O17955   5.581   6.529   2.078
 4309WAT     H117956   5.644   6.516   2.136
 4309WAT     H217957   5.547   6.450   2.067
 4309WAT    EPW17958   5.585   6.515   2.085
 4310WAT      O17959   5.600   5.771   3.752
 4310WAT     H117960   5.664   5.754   3.809
 4310WAT     H217961   5.642   5.811   3.686
 4310WAT    EPW17962   5.616   5.774   3.751
 4311WAT      O17963   5.188   6.155   2.311
 4311WAT     H117964   5.163   6.143   2.393
 4311WAT     H217965   5.157   6.086   2.268
 4311WAT    EPW17966   5.180   6.143   2.317
 4312WAT      O17967   5.663   5.227   3.825
 4312WAT     H117968   5.643   5.292   3.881
 4312WAT     H217969   5.591   5.178   3.825
 4312WAT    EPW17970   5.649   5.229   3.834
 4313WAT      O17971   5.653   5.321   3.123
 4313WAT     H117972   5.569   5.346   3.115
 4313WAT     H217973   5.647   5.237   3.145
 4313WAT    EPW17974   5.640   5.313   3.125
 4314WAT      O17975   4.579   5.020   3.642
 4314WAT     H117976   4.602   4.962   3.581
 4314WAT     H217977   4.494   5.002   3.656
 4314WAT    EPW17978   4.570   5.009   3.635
 4315WAT      O17979   5.341   5.782   3.887
 4315WAT     H117980   5.428   5.778   3.884
 4315WAT     H217981   5.319   5.824   3.814
 4315WAT    EPW17982   5.351   5.787   3.876
 4316WAT      O17983   4.317   6.364   3.005
 4316WAT     H117984   4.309   6.283   2.974
 4316WAT     H217985   4.272   6.413   2.948
 4316WAT    EPW17986   4.309   6.360   2.992
 4317WAT      O17987   4.877   5.976   2.254
 4317WAT     H117988   4.949   5.942   2.218
 4317WAT     H217989   4.873   6.056   2.219
 4317WAT    EPW17990   4.887   5.983   2.243
 4318WAT      O17991   4.074   6.589   3.363
 4318WAT     H117992   4.123   6.583   3.435
 4318WAT     H217993   4.093   6.515   3.320
 4318WAT    EPW17994   4.084   6.577   3.368
 4319WAT      O17995   5.018   4.840   0.677
 4319WAT     H117996   4.993   4.889   0.609
 4319WAT     H217997   5.104   4.833   0.667
 4319WAT    EPW17998   5.027   4.846   0.666
 4320WAT      O17999   4.999   5.532   1.145
 4320WAT     H118000   4.946   5.592   1.181
 4320WAT     H218001   5.038   5.495   1.213
 4320WAT    EPW18002   4.997   5.535   1.160
 4321WAT      O18003   3.986   5.946   0.690
 4321WAT     H118004   3.941   5.958   0.764
 4321WAT     H218005   3.957   5.868   0.662
 4321WAT    EPW18006   3.975   5.936   0.697
 4322WAT      O18007   5.613   6.276   0.442
 4322WAT     H118008   5.683   6.224   0.441
 4322WAT     H218009   5.554   6.232   0.395
 4322WAT    EPW18010   5.615   6.262   0.435
 4323WAT      O18011   3.960   5.325   0.341
 4323WAT     H118012   3.882   5.341   0.305
 4323WAT     H218013   3.964   5.238   0.343
 4323WAT    EPW18014   3.949   5.315   0.336
 4324WAT      O18015   4.274   5.851   0.208
 4324WAT     H118016   4.235   5.814   0.139
 4324WAT     H218017   4.266   5.792   0.271
 4324WAT    EPW18018   4.267   5.837   0.207
 4325WAT      O18019   5.266   5.639   0.812
 4325WAT     H118020   5.274   5.639   0.725
 4325WAT     H218021   5.207   5.575   0.827
 4325WAT    EPW18022   5.258   5.629   0.802
 4326WAT      O18023   4.236   6.016   0.598
 4326WAT     H118024   4.297   5.999   0.658
 4326WAT     H218025   4.161   6.002   0.640
 4326WAT    EPW18026   4.234   6.011   0.613
 4327WAT      O18027   4.665   4.949   0.593
 4327WAT     H118028   4.658   5.017   0.538
 4327WAT     H218029   4.739   4.910   0.568
 4327WAT    EPW18030   4.675   4.953   0.581
 4328WAT      O18031   4.126   6.325   0.206
 4328WAT     H118032   4.172   6.333   0.133
 4328WAT     H218033   4.171   6.267   0.253
 4328WAT    EPW18034   4.139   6.317   0.202
 4329WAT      O18035   3.980   6.219   1.316
 4329WAT     H118036   3.992   6.191   1.397
 4329WAT     H218037   3.919   6.165   1.285
 4329WAT    EPW18038   3.972   6.207   1.323
 4330WAT      O18039   4.637   5.972   1.822
 4330WAT     H118040   4.613   5.972   1.906
 4330WAT     H218041   4.562   5.957   1.780
 4330WAT    EPW18042   4.622   5.970   1.828
 4331WAT      O18043   4.124   5.672   0.736
 4331WAT     H118044   4.078   5.632   0.673
 4331WAT     H218045   4.194   5.620   0.745
 4331WAT    EPW18046   4.128   5.658   0.728
 4332WAT      O18047   4.575   5.233   1.271
 4332WAT     H118048   4.643   5.234   1.216
 4332WAT     H218049   4.570   5.149   1.295
 4332WAT    EPW18050   4.584   5.220   1.266
 4333WAT      O18051   4.635   6.291   1.549
 4333WAT     H118052   4.649   6.367   1.508
 4333WAT     H218053   4.714   6.255   1.551
 4333WAT    EPW18054   4.649   6.297   1.543
 4334WAT      O18055   4.324   5.482   0.738
 4334WAT     H118056   4.406   5.463   0.762
 4334WAT     H218057   4.277   5.420   0.778
 4334WAT    EPW18058   4.329   5.470   0.748
 4335WAT      O18059   4.745   6.080   0.999
 4335WAT     H118060   4.779   6.000   1.002
 4335WAT     H218061   4.811   6.130   0.974
 4335WAT    EPW18062   4.760   6.075   0.996
 4336WAT      O18063   4.750   6.025   0.620
 4336WAT     H118064   4.783   5.960   0.669
 4336WAT     H218065   4.774   6.003   0.539
 4336WAT    EPW18066   4.759   6.012   0.615
 4337WAT      O18067   4.947   5.438   1.754
 4337WAT     H118068   4.862   5.428   1.736
 4337WAT     H218069   4.950   5.512   1.800
 4337WAT    EPW18070   4.935   5.447   1.758
 4338WAT      O18071   4.384   4.991   0.665
 4338WAT     H118072   4.354   5.041   0.600
 4338WAT     H218073   4.471   4.999   0.659
 4338WAT    EPW18074   4.392   5.000   0.654
 4339WAT      O18075   5.403   4.734   1.666
 4339WAT     H118076   5.387   4.811   1.627
 4339WAT     H218077   5.326   4.712   1.700
 4339WAT    EPW18078   5.389   4.742   1.665
 4340WAT      O18079   4.682   4.905   0.887
 4340WAT     H118080   4.689   4.991   0.900
 4340WAT     H218081   4.678   4.898   0.800
 4340WAT    EPW18082   4.682   4.917   0.876
 4341WAT      O18083   3.970   5.448   1.037
 4341WAT     H118084   3.944   5.531   1.030
 4341WAT     H218085   3.903   5.409   1.079
 4341WAT    EPW18086   3.956   5.454   1.042
 4342WAT      O18087   3.961   6.419   0.827
 4342WAT     H118088   3.902   6.474   0.796
 4342WAT     H218089   4.003   6.392   0.756
 4342WAT    EPW18090   3.958   6.423   0.812
 4343WAT      O18091   4.545   6.203   0.575
 4343WAT     H118092   4.487   6.176   0.634
 4343WAT     H218093   4.607   6.142   0.578
 4343WAT    EPW18094   4.545   6.190   0.584
 4344WAT      O18095   5.159   6.432   0.327
 4344WAT     H118096   5.232   6.479   0.338
 4344WAT     H218097   5.182   6.352   0.355
 4344WAT    EPW18098   5.173   6.427   0.333
 4345WAT      O18099   4.976   6.471   0.526
 4345WAT     H118100   4.997   6.524   0.593
 4345WAT     H218101   5.053   6.454   0.488
 4345WAT    EPW18102   4.990   6.476   0.531
 4346WAT      O18103   4.273   4.929   1.086
 4346WAT     H118104   4.221   4.867   1.055
 4346WAT     H218105   4.332   4.886   1.133
 4346WAT    EPW18106   4.274   4.914   1.089
 4347WAT      O18107   4.603   5.143   2.016
 4347WAT     H118108   4.615   5.097   1.942
 4347WAT     H218109   4.632   5.222   1.996
 4347WAT    EPW18110   4.609   5.148   2.002
 4348WAT      O18111   4.115   6.286   0.620
 4348WAT     H118112   4.181   6.228   0.622
 4348WAT     H218113   4.154   6.361   0.598
 4348WAT    EPW18114   4.131   6.288   0.617
 4349WAT      O18115   5.689   5.195   0.746
 4349WAT     H118116   5.654   5.263   0.789
 4349WAT     H218117   5.625   5.135   0.748
 4349WAT    EPW18118   5.674   5.196   0.753
 4350WAT      O18119   5.220   6.472   1.357
 4350WAT     H118120   5.294   6.518   1.356
 4350WAT     H218121   5.208   6.451   1.273
 4350WAT    EPW18122   5.229   6.476   1.344
 4351WAT      O18123   4.177   5.102   1.914
 4351WAT     H118124   4.099   5.063   1.907
 4351WAT     H218125   4.226   5.061   1.855
 4351WAT    EPW18126   4.172   5.090   1.905
 4352WAT      O18127   4.197   6.134   0.970
 4352WAT     H118128   4.239   6.099   0.903
 4352WAT     H218129   4.229   6.092   1.039
 4352WAT    EPW18130   4.208   6.123   0.971
 4353WAT      O18131   4.520   6.420   0.900
 4353WAT     H118132   4.605   6.430   0.880
 4353WAT     H218133   4.490   6.501   0.907
 4353WAT    EPW18134   4.528   6.433   0.898
 4354WAT      O18135   4.841   4.867   1.831
 4354WAT     H118136   4.859   4.786   1.804
 4354WAT     H218137   4.827   4.911   1.757
 4354WAT    EPW18138   4.842   4.861   1.816
 4355WAT      O18139   4.901   5.359   0.709
 4355WAT     H118140   4.930   5.336   0.630
 4355WAT     H218141   4.974   5.367   0.755
 4355WAT    EPW18142   4.916   5.357   0.704
 4356WAT      O18143   4.973   5.393   0.221
 4356WAT     H118144   5.001   5.472   0.246
 4356WAT     H218145   4.895   5.410   0.184
 4356WAT    EPW18146   4.966   5.407   0.219
 4357WAT      O18147   5.377   6.591   0.367
 4357WAT     H118148   5.444   6.576   0.313
 4357WAT     H218149   5.413   6.582   0.446
 4357WAT    EPW18150   5.392   6.587   0.371
 4358WAT      O18151   4.420   6.541   1.474
 4358WAT     H118152   4.449   6.535   1.556
 4358WAT     H218153   4.357   6.481   1.469
 4358WAT    EPW18154   4.415   6.532   1.485
 4359WAT      O18155   5.656   5.027   1.283
 4359WAT     H118156   5.732   5.035   1.241
 4359WAT     H218157   5.662   4.950   1.323
 4359WAT    EPW18158   5.668   5.017   1.283
 4360WAT      O18159   3.911   5.157   1.673
 4360WAT     H118160   3.911   5.216   1.738
 4360WAT     H218161   3.971   5.188   1.617
 4360WAT    EPW18162   3.920   5.170   1.674
 4361WAT      O18163   5.145   6.191   1.727
 4361WAT     H118164   5.142   6.229   1.806
 4361WAT     H218165   5.231   6.186   1.710
 4361WAT    EPW18166   5.157   6.196   1.736
 4362WAT      O18167   4.859   6.210   0.202
 4362WAT     H118168   4.841   6.265   0.268
 4362WAT     H218169   4.936   6.239   0.172
 4362WAT    EPW18170   4.868   6.223   0.208
 4363WAT      O18171   5.210   5.000   0.308
 4363WAT     H118172   5.264   4.932   0.315
 4363WAT     H218173   5.216   5.040   0.385
 4363WAT    EPW18174   5.219   4.996   0.320
 4364WAT      O18175   4.005   5.117   0.565
 4364WAT     H118176   3.994   5.030   0.568
 4364WAT     H218177   3.958   5.146   0.632
 4364WAT    EPW18178   3.996   5.108   0.575
 4365WAT      O18179   4.219   6.358   1.386
 4365WAT     H118180   4.149   6.307   1.399
 4365WAT     H218181   4.245   6.337   1.305
 4365WAT    EPW18182   4.213   6.347   1.376
 4366WAT      O18183   4.935   5.237   0.439
 4366WAT     H118184   4.885   5.171   0.414
 4366WAT     H218185   4.941   5.288   0.368
 4366WAT    EPW18186   4.929   5.235   0.425
 4367WAT      O18187   4.990   6.507   1.477
 4367WAT     H118188   5.067   6.499   1.436
 4367WAT     H218189   4.932   6.495   1.413
 4367WAT    EPW18190   4.993   6.504   1.462
 4368WAT      O18191   4.935   4.932   0.428
 4368WAT     H118192   4.890   4.891   0.366
 4368WAT     H218193   5.013   4.947   0.391
 4368WAT    EPW18194   4.940   4.928   0.413
 4369WAT      O18195   5.618   6.567   0.767
 4369WAT     H118196   5.573   6.639   0.787
 4369WAT     H218197   5.557   6.510   0.743
 4369WAT    EPW18198   5.602   6.569   0.767
 4370WAT      O18199   4.795   5.168   0.880
 4370WAT     H118200   4.803   5.225   0.815
 4370WAT     H218201   4.807   5.217   0.951
 4370WAT    EPW18202   4.798   5.184   0.881
 4371WAT      O18203   5.318   6.152   0.722
 4371WAT     H118204   5.388   6.104   0.740
 4371WAT     H218205   5.252   6.095   0.726
 4371WAT    EPW18206   5.318   6.136   0.725
 4372WAT      O18207   4.355   6.243   1.643
 4372WAT     H118208   4.439   6.249   1.621
 4372WAT     H218209   4.352   6.282   1.720
 4372WAT    EPW18210   4.367   6.250   1.651
 4373WAT      O18211   4.256   4.751   0.715
 4373WAT     H118212   4.310   4.819   0.714
 4373WAT     H218213   4.256   4.723   0.632
 4373WAT    EPW18214   4.264   4.757   0.703
 4374WAT      O18215   4.552   5.794   1.118
 4374WAT     H118216   4.569   5.773   1.201
 4374WAT     H218217   4.486   5.740   1.096
 4374WAT    EPW18218   4.545   5.783   1.127
 4375WAT      O18219   5.174   5.185   1.469
 4375WAT     H118220   5.165   5.217   1.550
 4375WAT     H218221   5.115   5.121   1.465
 4375WAT    EPW18222   5.164   5.180   1.481
 4376WAT      O18223   4.627   5.788   1.377
 4376WAT     H118224   4.632   5.872   1.397
 4376WAT     H218225   4.598   5.751   1.450
 4376WAT    EPW18226   4.623   5.795   1.390
 4377WAT      O18227   5.244   5.857   1.290
 4377WAT     H118228   5.193   5.816   1.347
 4377WAT     H218229   5.232   5.942   1.308
 4377WAT    EPW18230   5.235   5.864   1.301
 4378WAT      O18231   5.300   4.780   0.753
 4378WAT     H118232   5.305   4.748   0.834
 4378WAT     H218233   5.332   4.715   0.703
 4378WAT    EPW18234   5.306   4.765   0.757
 4379WAT      O18235   3.909   6.225   1.998
 4379WAT     H118236   3.984   6.260   2.024
 4379WAT     H218237   3.926   6.139   1.992
 4379WAT    EPW18238   3.923   6.217   2.001
 4380WAT      O18239   5.546   5.203   1.584
 4380WAT     H118240   5.624   5.181   1.617
 4380WAT     H218241   5.499   5.225   1.654
 4380WAT    EPW18242   5.551   5.203   1.599
 4381WAT      O18243   4.301   5.132   0.881
 4381WAT     H118244   4.328   5.089   0.810
 4381WAT     H218245   4.283   5.068   0.938
 4381WAT    EPW18246   4.302   5.116   0.879
 4382WAT      O18247   5.570   5.901   0.302
 4382WAT     H118248   5.582   5.872   0.384
 4382WAT     H218249   5.650   5.903   0.269
 4382WAT    EPW18250   5.583   5.897   0.310
 4383WAT      O18251   4.283   5.874   0.835
 4383WAT     H118252   4.368   5.866   0.818
 4383WAT     H218253   4.248   5.806   0.794
 4383WAT    EPW18254   4.291   5.863   0.827
 4384WAT      O18255   4.160   6.547   0.959
 4384WAT     H118256   4.093   6.497   0.935
 4384WAT     H218257   4.200   6.565   0.884
 4384WAT    EPW18258   4.156   6.542   0.944
 4385WAT      O18259   4.115   5.242   1.189
 4385WAT     H118260   4.199   5.264   1.184
 4385WAT     H218261   4.076   5.299   1.136
 4385WAT    EPW18262   4.122   5.253   1.180
 4386WAT      O18263   5.793   6.352   1.728
 4386WAT     H118264   5.725   6.383   1.683
 4386WAT     H218265   5.756   6.306   1.792
 4386WAT    EPW18266   5.777   6.350   1.731
 4387WAT      O18267   5.359   5.555   0.261
 4387WAT     H118268   5.337   5.628   0.219
 4387WAT     H218269   5.314   5.560   0.336
 4387WAT    EPW18270   5.349   5.566   0.266
 4388WAT      O18271   4.520   5.875   0.659
 4388WAT     H118272   4.591   5.924   0.668
 4388WAT     H218273   4.542   5.818   0.596
 4388WAT    EPW18274   4.534   5.874   0.651
 4389WAT      O18275   5.778   5.041   0.206
 4389WAT     H118276   5.712   4.984   0.208
 4389WAT     H218277   5.759   5.092   0.138
 4389WAT    EPW18278   5.765   5.040   0.196
 4390WAT      O18279   3.936   6.039   0.991
 4390WAT     H118280   3.869   6.088   1.019
 4390WAT     H218281   4.004   6.094   0.994
 4390WAT    EPW18282   3.936   6.054   0.995
 4391WAT      O18283   4.700   5.410   2.001
 4391WAT     H118284   4.652   5.468   2.045
 4391WAT     H218285   4.698   5.440   1.918
 4391WAT    EPW18286   4.693   5.423   1.995
 4392WAT      O18287   5.810   5.479   1.462
 4392WAT     H118288   5.832   5.399   1.434
 4392WAT     H218289   5.725   5.485   1.443
 4392WAT    EPW18290   5.801   5.468   1.455
 4393WAT      O18291   3.942   5.708   0.501
 4393WAT     H118292   3.924   5.624   0.516
 4393WAT     H218293   4.008   5.704   0.444
 4393WAT    EPW18294   3.949   5.695   0.495
 4394WAT      O18295   5.578   4.997   0.434
 4394WAT     H118296   5.653   4.956   0.454
 4394WAT     H218297   5.604   5.068   0.392
 4394WAT    EPW18298   5.593   5.001   0.431
 4395WAT      O18299   4.972   6.245   0.892
 4395WAT     H118300   4.920   6.309   0.862
 4395WAT     H218301   5.003   6.209   0.819
 4395WAT    EPW18302   4.969   6.249   0.877
 4396WAT      O18303   3.959   6.124   0.459
 4396WAT     H118304   4.015   6.181   0.495
 4396WAT     H218305   3.936   6.073   0.525
 4396WAT    EPW18306   3.964   6.125   0.474
 4397WAT      O18307   4.380   6.024   1.168
 4397WAT     H118308   4.427   6.053   1.235
 4397WAT     H218309   4.437   5.976   1.122
 4397WAT    EPW18310   4.395   6.021   1.171
 4398WAT      O18311   5.223   5.225   0.941
 4398WAT     H118312   5.258   5.241   1.020
 4398WAT     H218313   5.178   5.152   0.953
 4398WAT    EPW18314   5.222   5.217   0.955
 4399WAT      O18315   3.942   5.969   0.222
 4399WAT     H118316   4.018   5.926   0.227
 4399WAT     H218317   3.944   6.022   0.291
 4399WAT    EPW18318   3.954   5.970   0.233
 4400WAT      O18319   4.036   5.791   1.022
 4400WAT     H118320   4.080   5.778   0.947
 4400WAT     H218321   4.016   5.876   1.019
 4400WAT    EPW18322   4.040   5.802   1.011
 4401WAT      O18323   4.671   5.147   0.387
 4401WAT     H118324   4.671   5.136   0.301
 4401WAT     H218325   4.653   5.232   0.396
 4401WAT    EPW18326   4.668   5.158   0.376
 4402WAT      O18327   5.576   6.390   1.537
 4402WAT     H118328   5.509   6.442   1.559
 4402WAT     H218329   5.583   6.400   1.450
 4402WAT    EPW18330   5.567   6.399   1.527
 4403WAT      O18331   4.445   6.143   0.850
 4403WAT     H118332   4.457   6.227   0.869
 4403WAT     H218333   4.512   6.103   0.890
 4403WAT    EPW18334   4.457   6.149   0.859
 4404WAT      O18335   4.258   5.491   1.836
 4404WAT     H118336   4.204   5.440   1.883
 4404WAT     H218337   4.260   5.452   1.758
 4404WAT    EPW18338   4.250   5.478   1.832
 4405WAT      O18339   4.306   5.431   0.350
 4405WAT     H118340   4.294   5.386   0.424
 4405WAT     H218341   4.248   5.396   0.295
 4405WAT    EPW18342   4.296   5.419   0.353
 4406WAT      O18343   4.323   5.614   1.010
 4406WAT     H118344   4.245   5.608   0.972
 4406WAT     H218345   4.330   5.538   1.054
 4406WAT    EPW18346   4.313   5.602   1.011
 4407WAT      O18347   4.366   5.587   1.357
 4407WAT     H118348   4.369   5.520   1.302
 4407WAT     H218349   4.301   5.637   1.326
 4407WAT    EPW18350   4.357   5.585   1.344
 4408WAT      O18351   5.356   5.359   1.197
 4408WAT     H118352   5.289   5.391   1.243
 4408WAT     H218353   5.374   5.422   1.140
 4408WAT    EPW18354   5.349   5.373   1.195
 4409WAT      O18355   4.776   6.465   1.296
 4409WAT     H118356   4.748   6.401   1.244
 4409WAT     H218357   4.755   6.538   1.253
 4409WAT    EPW18358   4.769   6.466   1.282
 4410WAT      O18359   5.020   4.949   1.540
 4410WAT     H118360   5.035   4.867   1.515
 4410WAT     H218361   5.058   4.955   1.618
 4410WAT    EPW18362   5.028   4.938   1.548
 4411WAT      O18363   5.175   5.156   0.548
 4411WAT     H118364   5.224   5.227   0.540
 4411WAT     H218365   5.096   5.182   0.522
 4411WAT    EPW18366   5.170   5.170   0.543
 4412WAT      O18367   4.146   5.723   1.913
 4412WAT     H118368   4.142   5.773   1.842
 4412WAT     H218369   4.179   5.648   1.884
 4412WAT    EPW18370   4.150   5.719   1.898
 4413WAT      O18371   5.306   5.943   1.739
 4413WAT     H118372   5.355   6.015   1.749
 4413WAT     H218373   5.346   5.901   1.674
 4413WAT    EPW18374   5.319   5.948   1.731
 4414WAT      O18375   4.736   6.228   1.857
 4414WAT     H118376   4.771   6.210   1.934
 4414WAT     H218377   4.692   6.155   1.837
 4414WAT    EPW18378   4.735   6.214   1.865
 4415WAT      O18379   4.833   5.303   1.120
 4415WAT     H118380   4.881   5.372   1.141
 4415WAT     H218381   4.870   5.238   1.165
 4415WAT    EPW18382   4.846   5.303   1.130
 4416WAT      O18383   5.052   5.619   0.348
 4416WAT     H118384   5.051   5.692   0.299
 4416WAT     H218385   4.988   5.633   0.405
 4416WAT    EPW18386   5.042   5.632   0.349
 4417WAT      O18387   5.549   6.006   0.746
 4417WAT     H118388   5.585   5.971   0.817
 4417WAT     H218389   5.548   5.940   0.689
 4417WAT    EPW18390   5.554   5.991   0.748
 4418WAT      O18391   5.154   6.313   1.130
 4418WAT     H118392   5.093   6.283   1.075
 4418WAT     H218393   5.208   6.358   1.079
 4418WAT    EPW18394   5.153   6.315   1.114
 4419WAT      O18395   5.155   5.998   1.070
 4419WAT     H118396   5.075   6.021   1.098
 4419WAT     H218397   5.181   5.939   1.129
 4419WAT    EPW18398   5.147   5.993   1.083
 4420WAT      O18399   4.544   6.479   0.515
 4420WAT     H118400   4.529   6.402   0.552
 4420WAT     H218401   4.613   6.465   0.464
 4420WAT    EPW18402   4.552   6.466   0.513
 4421WAT      O18403   4.511   4.854   0.314
 4421WAT     H118404   4.521   4.843   0.400
 4421WAT     H218405   4.440   4.904   0.307
 4421WAT    EPW18406   4.502   4.860   0.326
 4422WAT      O18407   4.773   6.431   0.355
 4422WAT     H118408   4.836   6.447   0.414
 4422WAT     H218409   4.777   6.500   0.302
 4422WAT    EPW18410   4.783   6.444   0.356
 4423WAT      O18411   5.481   5.798   1.555
 4423WAT     H118412   5.486   5.810   1.469
 4423WAT     H218413   5.556   5.830   1.585
 4423WAT    EPW18414   5.493   5.804   1.547
 4424WAT      O18415   5.100   6.333   1.983
 4424WAT     H118416   5.116   6.361   2.063
 4424WAT     H218417   5.126   6.399   1.932
 4424WAT    EPW18418   5.106   6.347   1.987
 4425WAT      O18419   5.584   4.828   1.854
 4425WAT     H118420   5.520   4.788   1.809
 4425WAT     H218421   5.587   4.785   1.929
 4425WAT    EPW18422   5.575   4.816   1.858
 4426WAT      O18423   4.223   5.684   0.438
 4426WAT     H118424   4.256   5.606   0.416
 4426WAT     H218425   4.288   5.721   0.484
 4426WAT    EPW18426   4.238   5.678   0.442
 4427WAT      O18427   5.054   5.779   1.515
 4427WAT     H118428   5.039   5.840   1.575
 4427WAT     H218429   5.107   5.723   1.555
 4427WAT    EPW18430   5.060   5.779   1.530
 4428WAT      O18431   3.923   4.850   0.535
 4428WAT     H118432   3.936   4.780   0.486
 4428WAT     H218433   3.886   4.819   0.607
 4428WAT    EPW18434   3.920   4.835   0.538
 4429WAT      O18435   4.892   5.619   0.581
 4429WAT     H118436   4.898   5.684   0.639
 4429WAT     H218437   4.874   5.549   0.630
 4429WAT    EPW18438   4.891   5.618   0.596
 4430WAT      O18439   5.415   6.051   1.168
 4430WAT     H118440   5.367   6.081   1.101
 4430WAT     H218441   5.379   5.974   1.185
 4430WAT    EPW18442   5.403   6.044   1.160
 4431WAT      O18443   4.342   5.070   0.232
 4431WAT     H118444   4.291   5.076   0.161
 4431WAT     H218445   4.420   5.094   0.202
 4431WAT    EPW18446   4.346   5.075   0.217
 4432WAT      O18447   4.815   5.823   1.024
 4432WAT     H118448   4.730   5.804   1.032
 4432WAT     H218449   4.847   5.807   1.103
 4432WAT    EPW18450   4.807   5.818   1.037
 4433WAT      O18451   4.200   5.793   1.255
 4433WAT     H118452   4.272   5.841   1.252
 4433WAT     H218453   4.173   5.790   1.172
 4433WAT    EPW18454   4.206   5.799   1.243
 4434WAT      O18455   4.523   5.310   0.929
 4434WAT     H118456   4.607   5.291   0.939
 4434WAT     H218457   4.486   5.232   0.915
 4434WAT    EPW18458   4.530   5.295   0.928
 4435WAT      O18459   5.784   6.468   0.362
 4435WAT     H118460   5.854   6.421   0.337
 4435WAT     H218461   5.730   6.408   0.395
 4435WAT    EPW18462   5.787   6.452   0.363
 4436WAT      O18463   4.005   5.443   0.594
 4436WAT     H118464   4.054   5.414   0.660
 4436WAT     H218465   4.018   5.384   0.532
 4436WAT    EPW18466   4.014   5.430   0.595
 4437WAT      O18467   5.508   5.746   1.279
 4437WAT     H118468   5.507   5.668   1.319
 4437WAT     H218469   5.424   5.769   1.279
 4437WAT    EPW18470   5.496   5.738   1.285
 4438WAT      O18471   4.139   5.898   1.683
 4438WAT     H118472   4.097   5.846   1.627
 4438WAT     H218473   4.104   5.976   1.669
 4438WAT    EPW18474   4.128   5.902   1.673
 4439WAT      O18475   5.634   5.753   1.023
 4439WAT     H118476   5.605   5.793   1.095
 4439WAT     H218477   5.720   5.747   1.036
 4439WAT    EPW18478   5.642   5.758   1.036
 4440WAT      O18479   4.603   5.433   0.414
 4440WAT     H118480   4.630   5.516   0.421
 4440WAT     H218481   4.516   5.440   0.404
 4440WAT    EPW18482   4.594   5.446   0.413
 4441WAT      O18483   5.400   5.145   1.877
 4441WAT     H118484   5.347   5.191   1.930
 4441WAT     H218485   5.364   5.066   1.877
 4441WAT    EPW18486   5.387   5.140   1.885
 4442WAT      O18487   3.951   5.030   1.068
 4442WAT     H118488   3.955   5.064   0.987
 4442WAT     H218489   4.026   5.054   1.104
 4442WAT    EPW18490   3.962   5.039   1.061
 4443WAT      O18491   5.747   6.316   1.076
 4443WAT     H118492   5.776   6.342   0.998
 4443WAT     H218493   5.816   6.326   1.128
 4443WAT    EPW18494   5.761   6.321   1.072
 4444WAT      O18495   5.249   5.502   1.885
 4444WAT     H118496   5.256   5.512   1.971
 4444WAT     H218497   5.186   5.558   1.863
 4444WAT    EPW18498   5.241   5.512   1.894
 4445WAT      O18499   5.476   5.534   1.721
 4445WAT     H118500   5.508   5.613   1.742
 4445WAT     H218501   5.439   5.507   1.796
 4445WAT    EPW18502   5.475   5.542   1.735
 4446WAT      O18503   5.407   6.176   0.274
 4446WAT     H118504   5.441   6.096   0.278
 4446WAT     H218505   5.332   6.169   0.317
 4446WAT    EPW18506   5.401   6.163   0.281
 4447WAT      O18507   5.456   5.360   0.840
 4447WAT     H118508   5.381   5.327   0.872
 4447WAT     H218509   5.456   5.442   0.868
 4447WAT    EPW18510   5.445   5.367   0.849
 4448WAT      O18511   5.746   5.588   1.995
 4448WAT     H118512   5.741   5.554   1.915
 4448WAT     H218513   5.819   5.635   1.993
 4448WAT    EPW18514   5.756   5.590   1.983
 4449WAT      O18515   5.700   5.956   1.615
 4449WAT     H118516   5.762   5.901   1.590
 4449WAT     H218517   5.693   6.012   1.549
 4449WAT    EPW18518   5.708   5.956   1.602
 4450WAT      O18519   5.145   5.964   0.215
 4450WAT     H118520   5.213   5.912   0.198
 4450WAT     H218521   5.103   5.968   0.138
 4450WAT    EPW18522   5.149   5.957   0.201
 4451WAT      O18523   4.613   6.079   1.345
 4451WAT     H118524   4.583   6.138   1.402
 4451WAT     H218525   4.618   6.123   1.270
 4451WAT    EPW18526   4.609   6.094   1.342
 4452WAT      O18527   4.411   5.974   1.685
 4452WAT     H118528   4.330   5.945   1.701
 4452WAT     H218529   4.402   6.061   1.685
 4452WAT    EPW18530   4.398   5.982   1.687
 4453WAT      O18531   5.347   4.993   1.586
 4453WAT     H118532   5.421   5.038   1.580
 4453WAT     H218533   5.290   5.040   1.539
 4453WAT    EPW18534   5.349   5.006   1.578
 4454WAT      O18535   4.865   5.721   1.294
 4454WAT     H118536   4.912   5.759   1.357
 4454WAT     H218537   4.782   5.735   1.320
 4454WAT    EPW18538   4.859   5.729   1.307
 4455WAT      O18539   4.536   5.281   1.568
 4455WAT     H118540   4.552   5.207   1.611
 4455WAT     H218541   4.531   5.257   1.485
 4455WAT    EPW18542   4.537   5.267   1.562
 4456WAT      O18543   4.791   6.460   0.817
 4456WAT     H118544   4.846   6.528   0.822
 4456WAT     H218545   4.756   6.469   0.737
 4456WAT    EPW18546   4.794   6.472   0.806
 4457WAT      O18547   5.475   4.791   1.353
 4457WAT     H118548   5.447   4.873   1.349
 4457WAT     H218549   5.547   4.796   1.403
 4457WAT    EPW18550   5.482   4.804   1.360
 4458WAT      O18551   4.711   4.862   1.556
 4458WAT     H118552   4.781   4.894   1.516
 4458WAT     H218553   4.735   4.782   1.579
 4458WAT    EPW18554   4.725   4.855   1.554
 4459WAT      O18555   4.609   6.283   1.156
 4459WAT     H118556   4.547   6.341   1.138
 4459WAT     H218557   4.634   6.255   1.077
 4459WAT    EPW18558   4.604   6.288   1.141
 4460WAT      O18559   5.040   5.947   1.855
 4460WAT     H118560   5.116   5.975   1.822
 4460WAT     H218561   4.985   5.952   1.787
 4460WAT    EPW18562   5.043   5.952   1.840
 4461WAT      O18563   5.431   6.202   1.705
 4461WAT     H118564   5.466   6.229   1.780
 4461WAT     H218565   5.460   6.260   1.647
 4461WAT    EPW18566   5.441   6.214   1.708
 4462WAT      O18567   5.617   5.416   0.239
 4462WAT     H118568   5.655   5.484   0.199
 4462WAT     H218569   5.533   5.439   0.242
 4462WAT    EPW18570   5.610   5.430   0.233
 4463WAT      O18571   4.362   5.368   1.162
 4463WAT     H118572   4.406   5.357   1.088
 4463WAT     H218573   4.416   5.336   1.223
 4463WAT    EPW18574   4.376   5.361   1.160
 4464WAT      O18575   5.163   5.278   1.721
 4464WAT     H118576   5.098   5.325   1.756
 4464WAT     H218577   5.220   5.269   1.787
 4464WAT    EPW18578   5.162   5.283   1.736
 4465WAT      O18579   5.132   5.431   1.351
 4465WAT     H118580   5.162   5.473   1.422
 4465WAT     H218581   5.136   5.347   1.374
 4465WAT    EPW18582   5.137   5.425   1.365
 4466WAT      O18583   4.875   6.448   1.744
 4466WAT     H118584   4.922   6.388   1.702
 4466WAT     H218585   4.839   6.404   1.810
 4466WAT    EPW18586   4.876   6.433   1.747
 4467WAT      O18587   5.387   5.376   0.576
 4467WAT     H118588   5.408   5.356   0.659
 4467WAT     H218589   5.462   5.403   0.542
 4467WAT    EPW18590   5.401   5.377   0.584
 4468WAT      O18591   4.716   4.866   1.167
 4468WAT     H118592   4.634   4.851   1.191
 4468WAT     H218593   4.712   4.870   1.080
 4468WAT    EPW18594   4.704   4.864   1.158
 4469WAT      O18595   5.489   4.984   0.724
 4469WAT     H118596   5.418   4.937   0.741
 4469WAT     H218597   5.473   5.019   0.645
 4469WAT    EPW18598   5.476   4.983   0.715
 4470WAT      O18599   5.533   5.779   0.562
 4470WAT     H118600   5.581   5.706   0.557
 4470WAT     H218601   5.451   5.750   0.554
 4470WAT    EPW18602   5.528   5.764   0.560
 4471WAT      O18603   4.880   5.970   1.646
 4471WAT     H118604   4.801   5.964   1.681
 4471WAT     H218605   4.888   6.055   1.626
 4471WAT    EPW18606   4.870   5.982   1.648
 4472WAT      O18607   3.973   4.906   1.770
 4472WAT     H118608   3.959   4.985   1.737
 4472WAT     H218609   3.894   4.882   1.799
 4472WAT    EPW18610   3.959   4.914   1.770
 4473WAT      O18611   4.463   6.591   1.177
 4473WAT     H118612   4.465   6.597   1.264
 4473WAT     H218613   4.421   6.516   1.162
 4473WAT    EPW18614   4.457   6.581   1.188
 4474WAT      O18615   4.279   5.180   0.493
 4474WAT     H118616   4.292   5.147   0.413
 4474WAT     H218617   4.198   5.155   0.513
 4474WAT    EPW18618   4.269   5.172   0.484
 4475WAT      O18619   5.155   5.896   0.797
 4475WAT     H118620   5.163   5.930   0.877
 4475WAT     H218621   5.172   5.811   0.809
 4475WAT    EPW18622   5.159   5.888   0.811
 4476WAT      O18623   4.907   5.823   0.754
 4476WAT     H118624   4.877   5.791   0.830
 4476WAT     H218625   4.977   5.870   0.777
 4476WAT    EPW18626   4.913   5.825   0.769
 4477WAT      O18627   4.929   6.235   1.557
 4477WAT     H118628   4.998   6.223   1.609
 4477WAT     H218629   4.943   6.314   1.522
 4477WAT    EPW18630   4.941   6.245   1.559
 4478WAT      O18631   5.747   5.496   1.738
 4478WAT     H118632   5.661   5.483   1.750
 4478WAT     H218633   5.762   5.456   1.661
 4478WAT    EPW18634   5.737   5.488   1.728
 4479WAT      O18635   5.198   5.562   1.595
 4479WAT     H118636   5.173   5.490   1.637
 4479WAT     H218637   5.280   5.574   1.622
 4479WAT    EPW18638   5.207   5.553   1.605
 4480WAT      O18639   4.140   6.541   1.722
 4480WAT     H118640   4.074   6.484   1.731
 4480WAT     H218641   4.102   6.618   1.737
 4480WAT    EPW18642   4.125   6.544   1.725
 4481WAT      O18643   4.992   5.681   1.914
 4481WAT     H118644   5.024   5.750   1.871
 4481WAT     H218645   4.921   5.713   1.954
 4481WAT    EPW18646   4.986   5.696   1.913
 4482WAT      O18647   5.300   6.519   1.007
 4482WAT     H118648   5.255   6.583   1.045
 4482WAT     H218649   5.371   6.511   1.057
 4482WAT    EPW18650   5.304   6.527   1.020
 4483WAT      O18651   4.970   6.028   1.300
 4483WAT     H118652   4.901   6.068   1.334
 4483WAT     H218653   5.038   6.071   1.334
 4483WAT    EPW18654   4.970   6.040   1.310
 4484WAT      O18655   5.508   6.287   1.958
 4484WAT     H118656   5.585   6.248   1.966
 4484WAT     H218657   5.461   6.253   2.023
 4484WAT    EPW18658   5.512   6.276   1.969
 4485WAT      O18659   4.277   5.381   1.535
 4485WAT     H118660   4.314   5.443   1.486
 4485WAT     H218661   4.344   5.334   1.563
 4485WAT    EPW18662   4.292   5.384   1.532
 4486WAT      O18663   4.054   5.226   1.462
 4486WAT     H118664   4.062   5.209   1.377
 4486WAT     H218665   4.129   5.267   1.482
 4486WAT    EPW18666   4.067   5.230   1.452
 4487WAT      O18667   5.610   5.490   0.506
 4487WAT     H118668   5.621   5.484   0.420
 4487WAT     H218669   5.684   5.457   0.538
 4487WAT    EPW18670   5.623   5.484   0.498
 4488WAT      O18671   4.310   4.967   1.703
 4488WAT     H118672   4.302   4.883   1.724
 4488WAT     H218673   4.278   4.972   1.622
 4488WAT    EPW18674   4.304   4.955   1.694
 4489WAT      O18675   5.002   6.187   0.617
 4489WAT     H118676   4.982   6.270   0.601
 4489WAT     H218677   4.925   6.148   0.629
 4489WAT    EPW18678   4.988   6.193   0.616
 4490WAT      O18679   5.521   5.505   1.442
 4490WAT     H118680   5.520   5.418   1.454
 4490WAT     H218681   5.527   5.537   1.522
 4490WAT    EPW18682   5.522   5.497   1.455
 4491WAT      O18683   3.994   5.749   1.484
 4491WAT     H118684   4.026   5.771   1.406
 4491WAT     H218685   3.984   5.662   1.479
 4491WAT    EPW18686   3.997   5.739   1.472
 4492WAT      O18687   5.108   4.985   1.820
 4492WAT     H118688   5.118   5.056   1.869
 4492WAT     H218689   5.045   4.940   1.860
 4492WAT    EPW18690   5.100   4.989   1.833
 4493WAT      O18691   5.008   5.004   0.905
 4493WAT     H118692   4.938   5.056   0.900
 4493WAT     H218693   5.012   4.966   0.827
 4493WAT    EPW18694   4.998   5.006   0.893
 4494WAT      O18695   4.539   6.213   0.258
 4494WAT     H118696   4.583   6.221   0.332
 4494WAT     H218697   4.458   6.191   0.283
 4494WAT    EPW18698   4.533   6.211   0.273
 4495WAT      O18699   5.368   5.055   1.185
 4495WAT     H118700   5.453   5.065   1.200
 4495WAT     H218701   5.331   5.111   1.242
 4495WAT    EPW18702   5.375   5.065   1.196
 4496WAT      O18703   4.470   5.678   1.623
 4496WAT     H118704   4.431   5.755   1.630
 4496WAT     H218705   4.430   5.641   1.555
 4496WAT    EPW18706   4.459   5.684   1.614
 4497WAT      O18707   5.398   5.583   1.034
 4497WAT     H118708   5.465   5.637   1.050
 4497WAT     H218709   5.364   5.614   0.960
 4497WAT    EPW18710   5.403   5.596   1.026
 4498WAT      O18711   5.429   6.390   0.615
 4498WAT     H118712   5.412   6.325   0.670
 4498WAT     H218713   5.501   6.363   0.573
 4498WAT    EPW18714   5.437   6.376   0.617
 4499WAT      O18715   4.271   6.120   0.318
 4499WAT     H118716   4.247   6.089   0.396
 4499WAT     H218717   4.268   6.050   0.266
 4499WAT    EPW18718   4.267   6.105   0.322
 4500WAT      O18719   4.553   5.944   0.192
 4500WAT     H118720   4.472   5.918   0.206
 4500WAT     H218721   4.551   6.030   0.211
 4500WAT    EPW18722   4.541   5.953   0.197
 4501WAT      O18723   4.513   4.976   1.368
 4501WAT     H118724   4.427   4.984   1.376
 4501WAT     H218725   4.535   4.924   1.435
 4501WAT    EPW18726   4.504   4.969   1.379
 4502WAT      O18727   5.715   4.839   1.501
 4502WAT     H118728   5.710   4.835   1.588
 4502WAT     H218729   5.784   4.789   1.482
 4502WAT    EPW18730   5.725   4.831   1.511
 4503WAT      O18731   4.924   5.050   1.205
 4503WAT     H118732   4.850   5.005   1.217
 4503WAT     H218733   4.981   5.010   1.258
 4503WAT    EPW18734   4.921   5.038   1.215
 4504WAT      O18735   5.197   6.135   1.384
 4504WAT     H118736   5.217   6.165   1.463
 4504WAT     H218737   5.191   6.207   1.336
 4504WAT    EPW18738   5.199   6.150   1.389
 4505WAT      O18739   5.150   6.557   1.809
 4505WAT     H118740   5.075   6.555   1.765
 4505WAT     H218741   5.167   6.642   1.817
 4505WAT    EPW18742   5.142   6.569   1.803
 4506WAT      O18743   4.674   5.483   1.726
 4506WAT     H118744   4.642   5.426   1.669
 4506WAT     H218745   4.638   5.559   1.701
 4506WAT    EPW18746   4.664   5.486   1.714
 4507WAT      O18747   5.678   5.999   1.330
 4507WAT     H118748   5.675   5.913   1.316
 4507WAT     H218749   5.609   6.029   1.287
 4507WAT    EPW18750   5.667   5.991   1.322
 4508WAT      O18751   4.517   6.519   1.751
 4508WAT     H118752   4.522   6.532   1.837
 4508WAT     H218753   4.583   6.463   1.735
 4508WAT    EPW18754   4.528   6.513   1.761
 4509WAT      O18755   5.489   6.325   1.210
 4509WAT     H118756   5.541   6.317   1.141
 4509WAT     H218757   5.449   6.247   1.215
 4509WAT    EPW18758   5.491   6.312   1.200
 4510WAT      O18759   4.235   4.984   1.433
 4510WAT     H118760   4.201   4.907   1.409
 4510WAT     H218761   4.166   5.036   1.439
 4510WAT    EPW18762   4.220   4.980   1.430
 4511WAT      O18763   5.140   4.870   1.130
 4511WAT     H118764   5.207   4.924   1.143
 4511WAT     H218765   5.090   4.912   1.073
 4511WAT    EPW18766   5.142   4.884   1.124
 4512WAT      O18767   4.277   6.357   1.887
 4512WAT     H118768   4.336   6.400   1.934
 4512WAT     H218769   4.240   6.420   1.838
 4512WAT    EPW18770   4.280   6.373   1.886
 4513WAT      O18771   5.076   5.450   0.880
 4513WAT     H118772   5.131   5.390   0.910
 4513WAT     H218773   5.033   5.477   0.951
 4513WAT    EPW18774   5.078   5.445   0.895
 4514WAT      O18775   4.101   5.315   0.828
 4514WAT     H118776   4.064   5.346   0.901
 4514WAT     H218777   4.154   5.252   0.857
 4514WAT    EPW18778   4.103   5.311   0.843
 4515WAT      O18779   4.069   6.156   1.579
 4515WAT     H118780   4.012   6.198   1.630
 4515WAT     H218781   4.143   6.203   1.589
 4515WAT    EPW18782   4.072   6.169   1.588
 4516WAT      O18783   5.273   5.633   0.536
 4516WAT     H118784   5.280   5.548   0.554
 4516WAT     H218785   5.191   5.642   0.508
 4516WAT    EPW18786   5.262   5.622   0.535
 4517WAT      O18787   4.248   6.483   0.457
 4517WAT     H118788   4.234   6.498   0.372
 4517WAT     H218789   4.335   6.491   0.465
 4517WAT    EPW18790   4.259   6.486   0.446
 4518WAT      O18791   4.665   5.723   0.430
 4518WAT     H118792   4.675   5.736   0.344
 4518WAT     H218793   4.747   5.717   0.459
 4518WAT    EPW18794   4.678   5.724   0.421
 4519WAT      O18795   5.581   6.529   0.178
 4519WAT     H118796   5.644   6.516   0.236
 4519WAT     H218797   5.547   6.450   0.166
 4519WAT    EPW18798   5.585   6.515   0.185
 4520WAT      O18799   5.600   5.771   1.851
 4520WAT     H118800   5.664   5.754   1.908
 4520WAT     H218801   5.642   5.811   1.786
 4520WAT    EPW18802   5.616   5.774   1.850
 4521WAT      O18803   5.188   6.155   0.410
 4521WAT     H118804   5.163   6.143   0.493
 4521WAT     H218805   5.157   6.086   0.368
 4521WAT    EPW18806   5.180   6.143   0.416
 4522WAT      O18807   5.663   5.227   1.925
 4522WAT     H118808   5.643   5.292   1.980
 4522WAT     H218809   5.591   5.178   1.924
 4522WAT    EPW18810   5.649   5.229   1.933
 4523WAT      O18811   5.653   5.321   1.222
 4523WAT     H118812   5.569   5.346   1.215
 4523WAT     H218813   5.647   5.237   1.245
 4523WAT    EPW18814   5.640   5.313   1.224
 4524WAT      O18815   4.579   5.020   1.741
 4524WAT     H118816   4.602   4.962   1.680
 4524WAT     H218817   4.494   5.002   1.755
 4524WAT    EPW18818   4.570   5.009   1.734
 4525WAT      O18819   5.341   5.782   1.987
 4525WAT     H118820   5.428   5.778   1.983
 4525WAT     H218821   5.319   5.824   1.913
 4525WAT    EPW18822   5.351   5.787   1.975
 4526WAT      O18823   4.317   6.364   1.105
 4526WAT     H118824   4.309   6.283   1.073
 4526WAT     H218825   4.272   6.413   1.047
 4526WAT    EPW18826   4.309   6.360   1.092
 4527WAT      O18827   4.877   5.976   0.353
 4527WAT     H118828   4.949   5.942   0.317
 4527WAT     H218829   4.873   6.056   0.318
 4527WAT    EPW18830   4.887   5.983   0.343
 4528WAT      O18831   4.074   6.589   1.463
 4528WAT     H118832   4.123   6.583   1.535
 4528WAT     H218833   4.093   6.515   1.419
 4528WAT    EPW18834   4.084   6.577   1.467
 4529WAT      O18835   5.018   2.993   6.379
 4529WAT     H118836   4.993   3.041   6.311
 4529WAT     H218837   5.104   2.985   6.369
 4529WAT    EPW18838   5.027   2.999   6.368
 4530WAT      O18839   4.999   3.684   6.846
 4530WAT     H118840   4.946   3.744   6.883
 4530WAT     H218841   5.038   3.647   6.915
 4530WAT    EPW18842   4.997   3.688   6.862
 4531WAT      O18843   3.986   4.098   6.392
 4531WAT     H118844   3.941   4.110   6.466
 4531WAT     H218845   3.957   4.021   6.363
 4531WAT    EPW18846   3.975   4.088   6.399
 4532WAT      O18847   5.613   4.428   6.143
 4532WAT     H118848   5.683   4.376   6.143
 4532WAT     H218849   5.554   4.384   6.097
 4532WAT    EPW18850   5.615   4.414   6.136
 4533WAT      O18851   3.960   3.477   6.043
 4533WAT     H118852   3.882   3.494   6.007
 4533WAT     H218853   3.964   3.390   6.045
 4533WAT    EPW18854   3.949   3.467   6.038
 4534WAT      O18855   4.274   4.004   5.910
 4534WAT     H118856   4.235   3.967   5.841
 4534WAT     H218857   4.266   3.944   5.973
 4534WAT    EPW18858   4.267   3.989   5.909
 4535WAT      O18859   5.266   3.791   6.514
 4535WAT     H118860   5.274   3.791   6.427
 4535WAT     H218861   5.207   3.728   6.529
 4535WAT    EPW18862   5.258   3.782   6.503
 4536WAT      O18863   4.665   3.101   6.295
 4536WAT     H118864   4.658   3.169   6.240
 4536WAT     H218865   4.739   3.062   6.270
 4536WAT    EPW18866   4.675   3.106   6.283
 4537WAT      O18867   4.126   4.477   5.908
 4537WAT     H118868   4.172   4.485   5.834
 4537WAT     H218869   4.171   4.419   5.954
 4537WAT    EPW18870   4.139   4.470   5.904
 4538WAT      O18871   3.980   4.372   7.017
 4538WAT     H118872   3.992   4.344   7.099
 4538WAT     H218873   3.919   4.318   6.987
 4538WAT    EPW18874   3.972   4.360   7.025
 4539WAT      O18875   4.637   4.124   7.524
 4539WAT     H118876   4.613   4.124   7.608
 4539WAT     H218877   4.562   4.109   7.482
 4539WAT    EPW18878   4.622   4.122   7.530
 4540WAT      O18879   4.124   3.824   6.438
 4540WAT     H118880   4.078   3.785   6.375
 4540WAT     H218881   4.194   3.772   6.447
 4540WAT    EPW18882   4.128   3.810   6.430
 4541WAT      O18883   4.575   3.385   6.972
 4541WAT     H118884   4.643   3.387   6.917
 4541WAT     H218885   4.570   3.301   6.997
 4541WAT    EPW18886   4.584   3.373   6.968
 4542WAT      O18887   4.635   4.443   7.250
 4542WAT     H118888   4.649   4.519   7.210
 4542WAT     H218889   4.714   4.407   7.253
 4542WAT    EPW18890   4.649   4.449   7.245
 4543WAT      O18891   4.324   3.634   6.440
 4543WAT     H118892   4.406   3.615   6.464
 4543WAT     H218893   4.277   3.572   6.480
 4543WAT    EPW18894   4.329   3.622   6.449
 4544WAT      O18895   4.745   4.232   6.701
 4544WAT     H118896   4.779   4.152   6.704
 4544WAT     H218897   4.811   4.282   6.675
 4544WAT    EPW18898   4.760   4.227   6.698
 4545WAT      O18899   4.750   4.177   6.322
 4545WAT     H118900   4.783   4.112   6.371
 4545WAT     H218901   4.774   4.156   6.241
 4545WAT    EPW18902   4.759   4.164   6.317
 4546WAT      O18903   4.947   3.590   7.456
 4546WAT     H118904   4.862   3.580   7.438
 4546WAT     H218905   4.950   3.664   7.501
 4546WAT    EPW18906   4.935   3.599   7.460
 4547WAT      O18907   4.384   3.143   6.367
 4547WAT     H118908   4.354   3.193   6.302
 4547WAT     H218909   4.471   3.151   6.361
 4547WAT    EPW18910   4.392   3.152   6.356
 4548WAT      O18911   5.403   2.886   7.367
 4548WAT     H118912   5.387   2.963   7.329
 4548WAT     H218913   5.326   2.864   7.402
 4548WAT    EPW18914   5.389   2.894   7.367
 4549WAT      O18915   4.682   3.057   6.589
 4549WAT     H118916   4.689   3.143   6.602
 4549WAT     H218917   4.678   3.050   6.502
 4549WAT    EPW18918   4.682   3.069   6.578
 4550WAT      O18919   5.149   3.350   5.819
 4550WAT     H118920   5.104   3.418   5.849
 4550WAT     H218921   5.161   3.300   5.889
 4550WAT    EPW18922   5.144   3.353   5.834
 4551WAT      O18923   3.970   3.600   6.739
 4551WAT     H118924   3.944   3.683   6.731
 4551WAT     H218925   3.903   3.562   6.781
 4551WAT    EPW18926   3.956   3.606   6.744
 4552WAT      O18927   3.961   4.571   6.529
 4552WAT     H118928   3.902   4.627   6.498
 4552WAT     H218929   4.003   4.544   6.458
 4552WAT    EPW18930   3.958   4.575   6.514
 4553WAT      O18931   4.545   4.355   6.277
 4553WAT     H118932   4.487   4.328   6.336
 4553WAT     H218933   4.607   4.294   6.279
 4553WAT    EPW18934   4.545   4.342   6.286
 4554WAT      O18935   5.159   4.584   6.029
 4554WAT     H118936   5.232   4.631   6.039
 4554WAT     H218937   5.182   4.505   6.057
 4554WAT    EPW18938   5.173   4.579   6.035
 4555WAT      O18939   4.976   4.623   6.228
 4555WAT     H118940   4.997   4.676   6.294
 4555WAT     H218941   5.053   4.606   6.190
 4555WAT    EPW18942   4.990   4.628   6.232
 4556WAT      O18943   4.273   3.082   6.788
 4556WAT     H118944   4.221   3.019   6.757
 4556WAT     H218945   4.332   3.038   6.835
 4556WAT    EPW18946   4.274   3.066   6.790
 4557WAT      O18947   4.115   4.438   6.322
 4557WAT     H118948   4.181   4.380   6.324
 4557WAT     H218949   4.154   4.513   6.300
 4557WAT    EPW18950   4.131   4.440   6.319
 4558WAT      O18951   5.689   3.347   6.448
 4558WAT     H118952   5.654   3.415   6.491
 4558WAT     H218953   5.625   3.287   6.450
 4558WAT    EPW18954   5.674   3.348   6.455
 4559WAT      O18955   5.220   4.624   7.059
 4559WAT     H118956   5.294   4.670   7.058
 4559WAT     H218957   5.208   4.603   6.975
 4559WAT    EPW18958   5.229   4.628   7.046
 4560WAT      O18959   4.177   3.255   7.616
 4560WAT     H118960   4.099   3.216   7.609
 4560WAT     H218961   4.226   3.213   7.557
 4560WAT    EPW18962   4.172   3.243   7.606
 4561WAT      O18963   4.197   4.287   6.672
 4561WAT     H118964   4.239   4.251   6.605
 4561WAT     H218965   4.229   4.244   6.741
 4561WAT    EPW18966   4.208   4.275   6.672
 4562WAT      O18967   4.520   4.572   6.602
 4562WAT     H118968   4.605   4.582   6.582
 4562WAT     H218969   4.490   4.654   6.608
 4562WAT    EPW18970   4.528   4.585   6.600
 4563WAT      O18971   4.841   3.019   7.533
 4563WAT     H118972   4.859   2.938   7.506
 4563WAT     H218973   4.827   3.063   7.459
 4563WAT    EPW18974   4.842   3.013   7.518
 4564WAT      O18975   4.901   3.511   6.410
 4564WAT     H118976   4.930   3.488   6.331
 4564WAT     H218977   4.974   3.519   6.457
 4564WAT    EPW18978   4.916   3.509   6.406
 4565WAT      O18979   4.973   3.545   5.922
 4565WAT     H118980   5.001   3.624   5.947
 4565WAT     H218981   4.895   3.562   5.886
 4565WAT    EPW18982   4.966   3.559   5.921
 4566WAT      O18983   5.377   4.743   6.069
 4566WAT     H118984   5.444   4.728   6.015
 4566WAT     H218985   5.413   4.734   6.148
 4566WAT    EPW18986   5.392   4.739   6.073
 4567WAT      O18987   4.420   4.694   7.176
 4567WAT     H118988   4.449   4.687   7.258
 4567WAT     H218989   4.357   4.633   7.171
 4567WAT    EPW18990   4.415   4.684   7.187
 4568WAT      O18991   5.656   3.180   6.985
 4568WAT     H118992   5.732   3.187   6.942
 4568WAT     H218993   5.662   3.102   7.025
 4568WAT    EPW18994   5.668   3.169   6.985
 4569WAT      O18995   3.911   3.309   7.375
 4569WAT     H118996   3.911   3.368   7.439
 4569WAT     H218997   3.971   3.341   7.319
 4569WAT    EPW18998   3.920   3.323   7.376
 4570WAT      O18999   5.145   4.343   7.429
 4570WAT     H119000   5.142   4.381   7.507
 4570WAT     H219001   5.231   4.339   7.412
 4570WAT    EPW19002   5.157   4.348   7.438
 4571WAT      O19003   4.859   4.362   5.904
 4571WAT     H119004   4.841   4.417   5.970
 4571WAT     H219005   4.936   4.391   5.874
 4571WAT    EPW19006   4.868   4.375   5.909
 4572WAT      O19007   5.210   3.152   6.009
 4572WAT     H119008   5.264   3.084   6.017
 4572WAT     H219009   5.216   3.192   6.087
 4572WAT    EPW19010   5.219   3.148   6.022
 4573WAT      O19011   4.219   4.510   7.088
 4573WAT     H119012   4.149   4.459   7.100
 4573WAT     H219013   4.245   4.489   7.007
 4573WAT    EPW19014   4.213   4.499   7.078
 4574WAT      O19015   4.935   3.390   6.141
 4574WAT     H119016   4.885   3.323   6.115
 4574WAT     H219017   4.941   3.440   6.070
 4574WAT    EPW19018   4.929   3.387   6.127
 4575WAT      O19019   4.990   4.659   7.179
 4575WAT     H119020   5.067   4.651   7.138
 4575WAT     H219021   4.932   4.647   7.115
 4575WAT    EPW19022   4.993   4.656   7.163
 4576WAT      O19023   4.935   3.084   6.130
 4576WAT     H119024   4.890   3.044   6.067
 4576WAT     H219025   5.013   3.099   6.092
 4576WAT    EPW19026   4.940   3.080   6.115
 4577WAT      O19027   5.618   4.719   6.469
 4577WAT     H119028   5.573   4.791   6.489
 4577WAT     H219029   5.557   4.662   6.445
 4577WAT    EPW19030   5.602   4.722   6.468
 4578WAT      O19031   4.795   3.320   6.582
 4578WAT     H119032   4.803   3.377   6.516
 4578WAT     H219033   4.807   3.370   6.653
 4578WAT    EPW19034   4.798   3.336   6.583
 4579WAT      O19035   5.318   4.304   6.423
 4579WAT     H119036   5.388   4.256   6.442
 4579WAT     H219037   5.252   4.247   6.428
 4579WAT    EPW19038   5.318   4.288   6.427
 4580WAT      O19039   4.355   4.395   7.345
 4580WAT     H119040   4.439   4.401   7.322
 4580WAT     H219041   4.352   4.435   7.422
 4580WAT    EPW19042   4.367   4.402   7.353
 4581WAT      O19043   4.256   2.903   6.417
 4581WAT     H119044   4.310   2.972   6.416
 4581WAT     H219045   4.256   2.875   6.334
 4581WAT    EPW19046   4.264   2.909   6.405
 4582WAT      O19047   4.552   3.946   6.819
 4582WAT     H119048   4.569   3.925   6.902
 4582WAT     H219049   4.486   3.893   6.798
 4582WAT    EPW19050   4.545   3.935   6.829
 4583WAT      O19051   5.174   3.337   7.171
 4583WAT     H119052   5.165   3.369   7.252
 4583WAT     H219053   5.115   3.274   7.167
 4583WAT    EPW19054   5.164   3.333   7.182
 4584WAT      O19055   4.627   3.940   7.078
 4584WAT     H119056   4.632   4.025   7.099
 4584WAT     H219057   4.598   3.903   7.152
 4584WAT    EPW19058   4.623   3.947   7.092
 4585WAT      O19059   5.244   4.009   6.991
 4585WAT     H119060   5.193   3.968   7.049
 4585WAT     H219061   5.232   4.094   7.010
 4585WAT    EPW19062   5.235   4.016   7.003
 4586WAT      O19063   5.300   2.932   6.455
 4586WAT     H119064   5.305   2.900   6.536
 4586WAT     H219065   5.332   2.867   6.405
 4586WAT    EPW19066   5.306   2.918   6.459
 4587WAT      O19067   5.546   3.355   7.285
 4587WAT     H119068   5.624   3.333   7.319
 4587WAT     H219069   5.499   3.377   7.355
 4587WAT    EPW19070   5.551   3.355   7.301
 4588WAT      O19071   4.301   3.284   6.582
 4588WAT     H119072   4.328   3.241   6.512
 4588WAT     H219073   4.283   3.220   6.639
 4588WAT    EPW19074   4.302   3.268   6.580
 4589WAT      O19075   5.570   4.053   6.004
 4589WAT     H119076   5.582   4.025   6.086
 4589WAT     H219077   5.650   4.055   5.971
 4589WAT    EPW19078   5.583   4.049   6.011
 4590WAT      O19079   4.283   4.026   6.537
 4590WAT     H119080   4.368   4.018   6.520
 4590WAT     H219081   4.248   3.958   6.496
 4590WAT    EPW19082   4.291   4.015   6.529
 4591WAT      O19083   4.160   4.699   6.661
 4591WAT     H119084   4.093   4.649   6.636
 4591WAT     H219085   4.200   4.717   6.586
 4591WAT    EPW19086   4.156   4.694   6.646
 4592WAT      O19087   4.115   3.394   6.891
 4592WAT     H119088   4.199   3.416   6.886
 4592WAT     H219089   4.076   3.451   6.837
 4592WAT    EPW19090   4.122   3.406   6.882
 4593WAT      O19091   5.793   4.504   7.430
 4593WAT     H119092   5.725   4.535   7.385
 4593WAT     H219093   5.756   4.458   7.494
 4593WAT    EPW19094   5.777   4.502   7.432
 4594WAT      O19095   5.359   3.707   5.963
 4594WAT     H119096   5.337   3.780   5.920
 4594WAT     H219097   5.314   3.712   6.037
 4594WAT    EPW19098   5.349   3.718   5.967
 4595WAT      O19099   4.520   4.027   6.361
 4595WAT     H119100   4.591   4.077   6.370
 4595WAT     H219101   4.542   3.970   6.298
 4595WAT    EPW19102   4.534   4.026   6.353
 4596WAT      O19103   5.778   3.193   5.908
 4596WAT     H119104   5.712   3.136   5.910
 4596WAT     H219105   5.759   3.244   5.840
 4596WAT    EPW19106   5.765   3.192   5.898
 4597WAT      O19107   3.936   4.191   6.693
 4597WAT     H119108   3.869   4.240   6.720
 4597WAT     H219109   4.004   4.246   6.696
 4597WAT    EPW19110   3.936   4.207   6.697
 4598WAT      O19111   5.810   3.631   7.164
 4598WAT     H119112   5.832   3.551   7.136
 4598WAT     H219113   5.725   3.637   7.145
 4598WAT    EPW19114   5.801   3.620   7.157
 4599WAT      O19115   3.942   3.860   6.203
 4599WAT     H119116   3.924   3.776   6.218
 4599WAT     H219117   4.008   3.856   6.146
 4599WAT    EPW19118   3.949   3.847   6.197
 4600WAT      O19119   5.578   3.149   6.136
 4600WAT     H119120   5.653   3.108   6.156
 4600WAT     H219121   5.604   3.220   6.093
 4600WAT    EPW19122   5.593   3.153   6.133
 4601WAT      O19123   4.972   4.397   6.593
 4601WAT     H119124   4.920   4.461   6.564
 4601WAT     H219125   5.003   4.361   6.521
 4601WAT    EPW19126   4.969   4.401   6.578
 4602WAT      O19127   3.959   4.276   6.161
 4602WAT     H119128   4.015   4.333   6.197
 4602WAT     H219129   3.936   4.225   6.227
 4602WAT    EPW19130   3.964   4.277   6.176
 4603WAT      O19131   4.380   4.176   6.869
 4603WAT     H119132   4.427   4.205   6.937
 4603WAT     H219133   4.437   4.128   6.824
 4603WAT    EPW19134   4.395   4.173   6.873
 4604WAT      O19135   5.223   3.378   6.643
 4604WAT     H119136   5.258   3.393   6.722
 4604WAT     H219137   5.178   3.304   6.654
 4604WAT    EPW19138   5.222   3.369   6.656
 4605WAT      O19139   3.942   4.121   5.923
 4605WAT     H119140   4.018   4.078   5.929
 4605WAT     H219141   3.944   4.174   5.992
 4605WAT    EPW19142   3.954   4.123   5.934
 4606WAT      O19143   4.036   3.943   6.724
 4606WAT     H119144   4.080   3.930   6.649
 4606WAT     H219145   4.016   4.028   6.721
 4606WAT    EPW19146   4.040   3.954   6.712
 4607WAT      O19147   4.671   3.300   6.089
 4607WAT     H119148   4.671   3.288   6.002
 4607WAT     H219149   4.653   3.384   6.098
 4607WAT    EPW19150   4.668   3.310   6.077
 4608WAT      O19151   5.576   4.542   7.239
 4608WAT     H119152   5.509   4.594   7.260
 4608WAT     H219153   5.583   4.552   7.152
 4608WAT    EPW19154   5.567   4.551   7.229
 4609WAT      O19155   4.445   4.295   6.552
 4609WAT     H119156   4.457   4.379   6.571
 4609WAT     H219157   4.512   4.255   6.592
 4609WAT    EPW19158   4.457   4.301   6.561
 4610WAT      O19159   4.258   3.643   7.538
 4610WAT     H119160   4.204   3.593   7.585
 4610WAT     H219161   4.260   3.604   7.460
 4610WAT    EPW19162   4.250   3.630   7.534
 4611WAT      O19163   4.306   3.583   6.052
 4611WAT     H119164   4.294   3.538   6.126
 4611WAT     H219165   4.248   3.549   5.997
 4611WAT    EPW19166   4.296   3.571   6.055
 4612WAT      O19167   4.323   3.766   6.712
 4612WAT     H119168   4.245   3.760   6.674
 4612WAT     H219169   4.330   3.691   6.756
 4612WAT    EPW19170   4.313   3.754   6.713
 4613WAT      O19171   4.366   3.740   7.059
 4613WAT     H119172   4.369   3.672   7.004
 4613WAT     H219173   4.301   3.789   7.028
 4613WAT    EPW19174   4.357   3.737   7.046
 4614WAT      O19175   5.356   3.511   6.899
 4614WAT     H119176   5.289   3.544   6.945
 4614WAT     H219177   5.374   3.574   6.842
 4614WAT    EPW19178   5.349   3.525   6.897
 4615WAT      O19179   4.776   4.617   6.998
 4615WAT     H119180   4.748   4.553   6.946
 4615WAT     H219181   4.755   4.690   6.954
 4615WAT    EPW19182   4.769   4.619   6.984
 4616WAT      O19183   5.020   3.101   7.241
 4616WAT     H119184   5.035   3.019   7.217
 4616WAT     H219185   5.058   3.107   7.320
 4616WAT    EPW19186   5.028   3.090   7.249
 4617WAT      O19187   5.175   3.308   6.250
 4617WAT     H119188   5.224   3.379   6.242
 4617WAT     H219189   5.096   3.334   6.223
 4617WAT    EPW19190   5.170   3.322   6.245
 4618WAT      O19191   4.146   3.875   7.615
 4618WAT     H119192   4.142   3.925   7.543
 4618WAT     H219193   4.179   3.800   7.585
 4618WAT    EPW19194   4.150   3.871   7.600
 4619WAT      O19195   5.306   4.096   7.441
 4619WAT     H119196   5.355   4.167   7.450
 4619WAT     H219197   5.346   4.053   7.376
 4619WAT    EPW19198   5.319   4.100   7.432
 4620WAT      O19199   4.736   4.380   7.558
 4620WAT     H119200   4.771   4.362   7.636
 4620WAT     H219201   4.692   4.307   7.538
 4620WAT    EPW19202   4.735   4.367   7.567
 4621WAT      O19203   4.833   3.455   6.822
 4621WAT     H119204   4.881   3.525   6.843
 4621WAT     H219205   4.870   3.390   6.867
 4621WAT    EPW19206   4.846   3.456   6.832
 4622WAT      O19207   5.052   3.772   6.050
 4622WAT     H119208   5.051   3.844   6.001
 4622WAT     H219209   4.988   3.785   6.107
 4622WAT    EPW19210   5.042   3.784   6.051
 4623WAT      O19211   5.549   4.159   6.448
 4623WAT     H119212   5.585   4.124   6.519
 4623WAT     H219213   5.548   4.093   6.391
 4623WAT    EPW19214   5.554   4.144   6.450
 4624WAT      O19215   5.154   4.465   6.832
 4624WAT     H119216   5.093   4.436   6.776
 4624WAT     H219217   5.208   4.510   6.781
 4624WAT    EPW19218   5.153   4.468   6.816
 4625WAT      O19219   5.155   4.150   6.772
 4625WAT     H119220   5.075   4.173   6.799
 4625WAT     H219221   5.181   4.091   6.831
 4625WAT    EPW19222   5.147   4.145   6.785
 4626WAT      O19223   4.544   4.632   6.217
 4626WAT     H119224   4.529   4.554   6.254
 4626WAT     H219225   4.613   4.617   6.165
 4626WAT    EPW19226   4.552   4.618   6.215
 4627WAT      O19227   4.511   3.006   6.016
 4627WAT     H119228   4.521   2.995   6.102
 4627WAT     H219229   4.440   3.056   6.009
 4627WAT    EPW19230   4.502   3.012   6.027
 4628WAT      O19231   4.773   4.583   6.057
 4628WAT     H119232   4.836   4.599   6.116
 4628WAT     H219233   4.777   4.652   6.004
 4628WAT    EPW19234   4.783   4.596   6.058
 4629WAT      O19235   5.481   3.950   7.257
 4629WAT     H119236   5.486   3.963   7.170
 4629WAT     H219237   5.556   3.982   7.287
 4629WAT    EPW19238   5.493   3.957   7.248
 4630WAT      O19239   5.584   2.980   7.555
 4630WAT     H119240   5.520   2.940   7.511
 4630WAT     H219241   5.587   2.937   7.631
 4630WAT    EPW19242   5.575   2.968   7.560
 4631WAT      O19243   4.223   3.837   6.140
 4631WAT     H119244   4.256   3.759   6.118
 4631WAT     H219245   4.288   3.873   6.185
 4631WAT    EPW19246   4.238   3.830   6.143
 4632WAT      O19247   5.054   3.931   7.217
 4632WAT     H119248   5.039   3.992   7.277
 4632WAT     H219249   5.107   3.875   7.257
 4632WAT    EPW19250   5.060   3.932   7.232
 4633WAT      O19251   3.923   3.003   6.237
 4633WAT     H119252   3.936   2.932   6.188
 4633WAT     H219253   3.886   2.971   6.309
 4633WAT    EPW19254   3.920   2.987   6.240
 4634WAT      O19255   4.892   3.771   6.282
 4634WAT     H119256   4.898   3.836   6.340
 4634WAT     H219257   4.874   3.701   6.332
 4634WAT    EPW19258   4.891   3.770   6.298
 4635WAT      O19259   5.415   4.204   6.869
 4635WAT     H119260   5.367   4.233   6.803
 4635WAT     H219261   5.379   4.126   6.887
 4635WAT    EPW19262   5.403   4.197   6.862
 4636WAT      O19263   4.342   3.222   5.934
 4636WAT     H119264   4.291   3.228   5.863
 4636WAT     H219265   4.420   3.246   5.904
 4636WAT    EPW19266   4.346   3.227   5.919
 4637WAT      O19267   4.815   3.975   6.726
 4637WAT     H119268   4.730   3.956   6.734
 4637WAT     H219269   4.847   3.959   6.805
 4637WAT    EPW19270   4.807   3.970   6.738
 4638WAT      O19271   4.490   4.648   5.814
 4638WAT     H119272   4.534   4.579   5.843
 4638WAT     H219273   4.511   4.711   5.871
 4638WAT    EPW19274   4.500   4.647   5.827
 4639WAT      O19275   4.200   3.945   6.957
 4639WAT     H119276   4.272   3.994   6.953
 4639WAT     H219277   4.173   3.942   6.874
 4639WAT    EPW19278   4.206   3.952   6.944
 4640WAT      O19279   4.523   3.462   6.631
 4640WAT     H119280   4.607   3.443   6.640
 4640WAT     H219281   4.486   3.384   6.617
 4640WAT    EPW19282   4.530   3.448   6.630
 4641WAT      O19283   5.784   4.620   6.063
 4641WAT     H119284   5.854   4.574   6.039
 4641WAT     H219285   5.730   4.560   6.097
 4641WAT    EPW19286   5.787   4.604   6.065
 4642WAT      O19287   4.005   3.596   6.296
 4642WAT     H119288   4.054   3.566   6.362
 4642WAT     H219289   4.018   3.536   6.233
 4642WAT    EPW19290   4.014   3.583   6.297
 4643WAT      O19291   5.508   3.898   6.981
 4643WAT     H119292   5.507   3.820   7.021
 4643WAT     H219293   5.424   3.921   6.981
 4643WAT    EPW19294   5.496   3.890   6.987
 4644WAT      O19295   4.457   3.739   5.845
 4644WAT     H119296   4.396   3.699   5.892
 4644WAT     H219297   4.419   3.751   5.767
 4644WAT    EPW19298   4.442   3.735   5.840
 4645WAT      O19299   4.139   4.050   7.385
 4645WAT     H119300   4.097   3.998   7.329
 4645WAT     H219301   4.104   4.129   7.371
 4645WAT    EPW19302   4.128   4.054   7.375
 4646WAT      O19303   5.634   3.905   6.725
 4646WAT     H119304   5.605   3.945   6.797
 4646WAT     H219305   5.720   3.899   6.738
 4646WAT    EPW19306   5.642   3.910   6.737
 4647WAT      O19307   4.603   3.585   6.116
 4647WAT     H119308   4.630   3.668   6.122
 4647WAT     H219309   4.516   3.593   6.106
 4647WAT    EPW19310   4.594   3.598   6.115
 4648WAT      O19311   5.400   3.297   7.579
 4648WAT     H119312   5.347   3.343   7.631
 4648WAT     H219313   5.364   3.218   7.578
 4648WAT    EPW19314   5.387   3.292   7.587
 4649WAT      O19315   3.951   3.182   6.769
 4649WAT     H119316   3.955   3.217   6.689
 4649WAT     H219317   4.026   3.206   6.806
 4649WAT    EPW19318   3.962   3.191   6.763
 4650WAT      O19319   5.747   4.468   6.778
 4650WAT     H119320   5.776   4.494   6.700
 4650WAT     H219321   5.816   4.478   6.830
 4650WAT    EPW19322   5.761   4.473   6.774
 4651WAT      O19323   5.249   3.654   7.587
 4651WAT     H119324   5.256   3.665   7.673
 4651WAT     H219325   5.186   3.710   7.564
 4651WAT    EPW19326   5.241   3.664   7.596
 4652WAT      O19327   5.476   3.686   7.423
 4652WAT     H119328   5.508   3.765   7.443
 4652WAT     H219329   5.439   3.659   7.497
 4652WAT    EPW19330   5.475   3.694   7.437
 4653WAT      O19331   5.407   4.329   5.976
 4653WAT     H119332   5.441   4.248   5.980
 4653WAT     H219333   5.332   4.321   6.019
 4653WAT    EPW19334   5.401   4.316   5.983
 4654WAT      O19335   5.456   3.512   6.542
 4654WAT     H119336   5.381   3.480   6.574
 4654WAT     H219337   5.456   3.595   6.570
 4654WAT    EPW19338   5.445   3.519   6.551
 4655WAT      O19339   5.700   4.108   7.317
 4655WAT     H119340   5.762   4.053   7.292
 4655WAT     H219341   5.693   4.164   7.251
 4655WAT    EPW19342   5.708   4.108   7.304
 4656WAT      O19343   5.145   4.116   5.916
 4656WAT     H119344   5.213   4.065   5.899
 4656WAT     H219345   5.103   4.121   5.840
 4656WAT    EPW19346   5.149   4.109   5.903
 4657WAT      O19347   4.613   4.231   7.047
 4657WAT     H119348   4.583   4.290   7.103
 4657WAT     H219349   4.618   4.275   6.972
 4657WAT    EPW19350   4.609   4.246   7.044
 4658WAT      O19351   4.411   4.126   7.387
 4658WAT     H119352   4.330   4.097   7.403
 4658WAT     H219353   4.402   4.213   7.387
 4658WAT    EPW19354   4.398   4.135   7.389
 4659WAT      O19355   5.347   3.145   7.288
 4659WAT     H119356   5.421   3.190   7.282
 4659WAT     H219357   5.290   3.192   7.241
 4659WAT    EPW19358   5.349   3.159   7.280
 4660WAT      O19359   4.865   3.873   6.996
 4660WAT     H119360   4.912   3.911   7.059
 4660WAT     H219361   4.782   3.887   7.022
 4660WAT    EPW19362   4.859   3.881   7.009
 4661WAT      O19363   4.536   3.434   7.270
 4661WAT     H119364   4.552   3.359   7.313
 4661WAT     H219365   4.531   3.409   7.186
 4661WAT    EPW19366   4.537   3.419   7.264
 4662WAT      O19367   4.791   4.613   6.519
 4662WAT     H119368   4.846   4.681   6.524
 4662WAT     H219369   4.756   4.621   6.439
 4662WAT    EPW19370   4.794   4.624   6.508
 4663WAT      O19371   5.475   2.943   7.055
 4663WAT     H119372   5.447   3.025   7.051
 4663WAT     H219373   5.547   2.948   7.105
 4663WAT    EPW19374   5.482   2.956   7.062
 4664WAT      O19375   4.711   3.014   7.258
 4664WAT     H119376   4.781   3.046   7.218
 4664WAT     H219377   4.735   2.934   7.281
 4664WAT    EPW19378   4.725   3.007   7.255
 4665WAT      O19379   4.609   4.435   6.858
 4665WAT     H119380   4.547   4.494   6.839
 4665WAT     H219381   4.634   4.407   6.779
 4665WAT    EPW19382   4.604   4.440   6.843
 4666WAT      O19383   5.040   4.099   7.556
 4666WAT     H119384   5.116   4.127   7.524
 4666WAT     H219385   4.985   4.104   7.489
 4666WAT    EPW19386   5.043   4.104   7.542
 4667WAT      O19387   5.431   4.354   7.407
 4667WAT     H119388   5.466   4.381   7.482
 4667WAT     H219389   5.460   4.412   7.349
 4667WAT    EPW19390   5.441   4.366   7.409
 4668WAT      O19391   5.617   3.568   5.941
 4668WAT     H119392   5.655   3.636   5.901
 4668WAT     H219393   5.533   3.591   5.944
 4668WAT    EPW19394   5.610   3.582   5.935
 4669WAT      O19395   4.769   3.913   5.849
 4669WAT     H119396   4.688   3.895   5.821
 4669WAT     H219397   4.765   3.998   5.868
 4669WAT    EPW19398   4.756   3.923   5.848
 4670WAT      O19399   4.362   3.520   6.864
 4670WAT     H119400   4.406   3.509   6.789
 4670WAT     H219401   4.416   3.488   6.925
 4670WAT    EPW19402   4.376   3.514   6.862
 4671WAT      O19403   5.163   3.430   7.423
 4671WAT     H119404   5.098   3.477   7.458
 4671WAT     H219405   5.220   3.421   7.489
 4671WAT    EPW19406   5.162   3.436   7.438
 4672WAT      O19407   5.132   3.584   7.053
 4672WAT     H119408   5.162   3.626   7.123
 4672WAT     H219409   5.136   3.500   7.076
 4672WAT    EPW19410   5.137   3.577   7.067
 4673WAT      O19411   4.875   4.600   7.446
 4673WAT     H119412   4.922   4.540   7.404
 4673WAT     H219413   4.839   4.556   7.512
 4673WAT    EPW19414   4.876   4.585   7.449
 4674WAT      O19415   5.387   3.528   6.278
 4674WAT     H119416   5.408   3.508   6.361
 4674WAT     H219417   5.462   3.555   6.244
 4674WAT    EPW19418   5.401   3.529   6.285
 4675WAT      O19419   4.716   3.018   6.869
 4675WAT     H119420   4.634   3.003   6.892
 4675WAT     H219421   4.712   3.022   6.782
 4675WAT    EPW19422   4.704   3.017   6.859
 4676WAT      O19423   5.489   3.137   6.426
 4676WAT     H119424   5.418   3.090   6.443
 4676WAT     H219425   5.473   3.171   6.347
 4676WAT    EPW19426   5.476   3.135   6.417
 4677WAT      O19427   5.533   3.931   6.264
 4677WAT     H119428   5.581   3.858   6.259
 4677WAT     H219429   5.451   3.902   6.256
 4677WAT    EPW19430   5.528   3.916   6.262
 4678WAT      O19431   4.880   4.122   7.348
 4678WAT     H119432   4.801   4.116   7.383
 4678WAT     H219433   4.888   4.207   7.328
 4678WAT    EPW19434   4.870   4.134   7.350
 4679WAT      O19435   3.973   3.058   7.472
 4679WAT     H119436   3.959   3.138   7.439
 4679WAT     H219437   3.894   3.034   7.501
 4679WAT    EPW19438   3.959   3.066   7.472
 4680WAT      O19439   4.463   4.743   6.879
 4680WAT     H119440   4.465   4.749   6.966
 4680WAT     H219441   4.421   4.668   6.864
 4680WAT    EPW19442   4.457   4.733   6.890
 4681WAT      O19443   4.279   3.332   6.195
 4681WAT     H119444   4.292   3.300   6.115
 4681WAT     H219445   4.198   3.308   6.215
 4681WAT    EPW19446   4.269   3.324   6.186
 4682WAT      O19447   5.155   4.048   6.499
 4682WAT     H119448   5.163   4.082   6.579
 4682WAT     H219449   5.172   3.963   6.511
 4682WAT    EPW19450   5.159   4.040   6.513
 4683WAT      O19451   4.907   3.975   6.456
 4683WAT     H119452   4.877   3.944   6.531
 4683WAT     H219453   4.977   4.022   6.479
 4683WAT    EPW19454   4.913   3.977   6.470
 4684WAT      O19455   4.929   4.387   7.258
 4684WAT     H119456   4.998   4.376   7.311
 4684WAT     H219457   4.943   4.466   7.224
 4684WAT    EPW19458   4.941   4.397   7.261
 4685WAT      O19459   5.747   3.648   7.439
 4685WAT     H119460   5.661   3.636   7.452
 4685WAT     H219461   5.762   3.608   7.363
 4685WAT    EPW19462   5.737   3.640   7.430
 4686WAT      O19463   5.198   3.714   7.297
 4686WAT     H119464   5.173   3.642   7.339
 4686WAT     H219465   5.280   3.726   7.324
 4686WAT    EPW19466   5.207   3.705   7.307
 4687WAT      O19467   4.140   4.693   7.423
 4687WAT     H119468   4.074   4.636   7.433
 4687WAT     H219469   4.102   4.770   7.439
 4687WAT    EPW19470   4.125   4.696   7.427
 4688WAT      O19471   4.992   3.833   7.616
 4688WAT     H119472   5.024   3.902   7.573
 4688WAT     H219473   4.921   3.866   7.656
 4688WAT    EPW19474   4.986   3.848   7.615
 4689WAT      O19475   5.300   4.671   6.709
 4689WAT     H119476   5.255   4.735   6.747
 4689WAT     H219477   5.371   4.663   6.759
 4689WAT    EPW19478   5.304   4.679   6.722
 4690WAT      O19479   4.970   4.180   7.002
 4690WAT     H119480   4.901   4.220   7.036
 4690WAT     H219481   5.038   4.223   7.036
 4690WAT    EPW19482   4.970   4.192   7.012
 4691WAT      O19483   4.277   3.534   7.236
 4691WAT     H119484   4.314   3.595   7.188
 4691WAT     H219485   4.344   3.486   7.265
 4691WAT    EPW19486   4.292   3.536   7.233
 4692WAT      O19487   4.054   3.378   7.164
 4692WAT     H119488   4.062   3.361   7.079
 4692WAT     H219489   4.129   3.419   7.184
 4692WAT    EPW19490   4.067   3.382   7.154
 4693WAT      O19491   5.610   3.642   6.208
 4693WAT     H119492   5.621   3.637   6.121
 4693WAT     H219493   5.684   3.609   6.240
 4693WAT    EPW19494   5.623   3.637   6.200
 4694WAT      O19495   4.310   3.119   7.405
 4694WAT     H119496   4.302   3.035   7.426
 4694WAT     H219497   4.278   3.124   7.324
 4694WAT    EPW19498   4.304   3.108   7.396
 4695WAT      O19499   5.002   4.339   6.319
 4695WAT     H119500   4.982   4.422   6.303
 4695WAT     H219501   4.925   4.301   6.331
 4695WAT    EPW19502   4.988   4.346   6.318
 4696WAT      O19503   5.521   3.657   7.143
 4696WAT     H119504   5.520   3.571   7.156
 4696WAT     H219505   5.527   3.689   7.224
 4696WAT    EPW19506   5.522   3.649   7.157
 4697WAT      O19507   3.994   3.901   7.186
 4697WAT     H119508   4.026   3.923   7.108
 4697WAT     H219509   3.984   3.814   7.181
 4697WAT    EPW19510   3.997   3.891   7.174
 4698WAT      O19511   4.140   3.495   5.848
 4698WAT     H119512   4.073   3.496   5.904
 4698WAT     H219513   4.149   3.410   5.830
 4698WAT    EPW19514   4.131   3.482   5.854
 4699WAT      O19515   5.108   3.137   7.522
 4699WAT     H119516   5.118   3.208   7.571
 4699WAT     H219517   5.045   3.092   7.561
 4699WAT    EPW19518   5.100   3.141   7.535
 4700WAT      O19519   5.008   3.156   6.607
 4700WAT     H119520   4.938   3.208   6.601
 4700WAT     H219521   5.012   3.118   6.529
 4700WAT    EPW19522   4.998   3.158   6.595
 4701WAT      O19523   4.539   4.365   5.959
 4701WAT     H119524   4.583   4.373   6.034
 4701WAT     H219525   4.458   4.343   5.985
 4701WAT    EPW19526   4.533   4.363   5.974
 4702WAT      O19527   5.368   3.208   6.887
 4702WAT     H119528   5.453   3.217   6.902
 4702WAT     H219529   5.331   3.263   6.944
 4702WAT    EPW19530   5.375   3.217   6.898
 4703WAT      O19531   4.470   3.830   7.325
 4703WAT     H119532   4.431   3.908   7.332
 4703WAT     H219533   4.430   3.793   7.257
 4703WAT    EPW19534   4.459   3.836   7.316
 4704WAT      O19535   5.398   3.736   6.736
 4704WAT     H119536   5.465   3.790   6.752
 4704WAT     H219537   5.364   3.767   6.662
 4704WAT    EPW19538   5.403   3.748   6.728
 4705WAT      O19539   5.429   4.542   6.317
 4705WAT     H119540   5.412   4.477   6.372
 4705WAT     H219541   5.501   4.515   6.275
 4705WAT    EPW19542   5.437   4.528   6.319
 4706WAT      O19543   4.271   4.272   6.020
 4706WAT     H119544   4.247   4.241   6.098
 4706WAT     H219545   4.268   4.202   5.968
 4706WAT    EPW19546   4.267   4.257   6.023
 4707WAT      O19547   4.553   4.097   5.894
 4707WAT     H119548   4.472   4.070   5.908
 4707WAT     H219549   4.551   4.182   5.912
 4707WAT    EPW19550   4.541   4.105   5.899
 4708WAT      O19551   4.513   3.128   7.070
 4708WAT     H119552   4.427   3.136   7.078
 4708WAT     H219553   4.535   3.076   7.137
 4708WAT    EPW19554   4.504   3.122   7.081
 4709WAT      O19555   5.715   2.991   7.203
 4709WAT     H119556   5.710   2.987   7.290
 4709WAT     H219557   5.784   2.941   7.184
 4709WAT    EPW19558   5.725   2.983   7.213
 4710WAT      O19559   4.924   3.203   6.907
 4710WAT     H119560   4.850   3.157   6.918
 4710WAT     H219561   4.981   3.162   6.959
 4710WAT    EPW19562   4.921   3.190   6.917
 4711WAT      O19563   5.197   4.287   7.086
 4711WAT     H119564   5.217   4.318   7.165
 4711WAT     H219565   5.191   4.360   7.037
 4711WAT    EPW19566   5.199   4.303   7.090
 4712WAT      O19567   5.150   4.709   7.511
 4712WAT     H119568   5.075   4.707   7.466
 4712WAT     H219569   5.167   4.794   7.519
 4712WAT    EPW19570   5.142   4.721   7.505
 4713WAT      O19571   4.674   3.636   7.428
 4713WAT     H119572   4.642   3.578   7.371
 4713WAT     H219573   4.638   3.711   7.403
 4713WAT    EPW19574   4.664   3.638   7.416
 4714WAT      O19575   4.754   2.961   5.890
 4714WAT     H119576   4.761   2.985   5.807
 4714WAT     H219577   4.679   2.998   5.916
 4714WAT    EPW19578   4.744   2.970   5.882
 4715WAT      O19579   5.678   4.151   7.032
 4715WAT     H119580   5.675   4.065   7.018
 4715WAT     H219581   5.609   4.182   6.988
 4715WAT    EPW19582   5.667   4.143   7.023
 4716WAT      O19583   4.517   4.671   7.452
 4716WAT     H119584   4.522   4.684   7.539
 4716WAT     H219585   4.583   4.615   7.437
 4716WAT    EPW19586   4.528   4.665   7.463
 4717WAT      O19587   5.489   4.477   6.911
 4717WAT     H119588   5.541   4.469   6.842
 4717WAT     H219589   5.449   4.400   6.917
 4717WAT    EPW19590   5.491   4.465   6.902
 4718WAT      O19591   4.235   3.136   7.135
 4718WAT     H119592   4.201   3.059   7.111
 4718WAT     H219593   4.166   3.189   7.141
 4718WAT    EPW19594   4.220   3.133   7.132
 4719WAT      O19595   5.140   3.022   6.832
 4719WAT     H119596   5.207   3.076   6.845
 4719WAT     H219597   5.090   3.064   6.775
 4719WAT    EPW19598   5.142   3.036   6.826
 4720WAT      O19599   4.277   4.509   7.588
 4720WAT     H119600   4.336   4.553   7.636
 4720WAT     H219601   4.240   4.572   7.539
 4720WAT    EPW19602   4.280   4.525   7.588
 4721WAT      O19603   5.076   3.603   6.582
 4721WAT     H119604   5.131   3.542   6.612
 4721WAT     H219605   5.033   3.629   6.653
 4721WAT    EPW19606   5.078   3.597   6.596
 4722WAT      O19607   4.101   3.468   6.530
 4722WAT     H119608   4.064   3.498   6.603
 4722WAT     H219609   4.154   3.405   6.559
 4722WAT    EPW19610   4.103   3.463   6.545
 4723WAT      O19611   4.069   4.308   7.281
 4723WAT     H119612   4.012   4.350   7.332
 4723WAT     H219613   4.143   4.355   7.291
 4723WAT    EPW19614   4.072   4.321   7.290
 4724WAT      O19615   5.273   3.786   6.238
 4724WAT     H119616   5.280   3.701   6.256
 4724WAT     H219617   5.191   3.794   6.210
 4724WAT    EPW19618   5.262   3.774   6.236
 4725WAT      O19619   4.248   4.635   6.159
 4725WAT     H119620   4.234   4.651   6.074
 4725WAT     H219621   4.335   4.643   6.167
 4725WAT    EPW19622   4.259   4.639   6.147
 4726WAT      O19623   4.665   3.875   6.132
 4726WAT     H119624   4.675   3.889   6.046
 4726WAT     H219625   4.747   3.869   6.161
 4726WAT    EPW19626   4.678   3.876   6.123
 4727WAT      O19627   5.581   4.681   5.880
 4727WAT     H119628   5.644   4.668   5.938
 4727WAT     H219629   5.547   4.602   5.868
 4727WAT    EPW19630   5.585   4.667   5.886
 4728WAT      O19631   5.600   3.923   7.553
 4728WAT     H119632   5.664   3.906   7.610
 4728WAT     H219633   5.642   3.963   7.488
 4728WAT    EPW19634   5.616   3.926   7.552
 4729WAT      O19635   5.188   4.308   6.112
 4729WAT     H119636   5.163   4.295   6.194
 4729WAT     H219637   5.157   4.238   6.070
 4729WAT    EPW19638   5.180   4.296   6.118
 4730WAT      O19639   5.663   3.379   7.627
 4730WAT     H119640   5.643   3.444   7.682
 4730WAT     H219641   5.591   3.330   7.626
 4730WAT    EPW19642   5.649   3.382   7.635
 4731WAT      O19643   5.653   3.473   6.924
 4731WAT     H119644   5.569   3.498   6.917
 4731WAT     H219645   5.647   3.389   6.947
 4731WAT    EPW19646   5.640   3.465   6.926
 4732WAT      O19647   4.579   3.172   7.443
 4732WAT     H119648   4.602   3.115   7.382
 4732WAT     H219649   4.494   3.154   7.457
 4732WAT    EPW19650   4.570   3.161   7.436
 4733WAT      O19651   5.341   3.934   7.688
 4733WAT     H119652   5.428   3.930   7.685
 4733WAT     H219653   5.319   3.976   7.615
 4733WAT    EPW19654   5.351   3.940   7.677
 4734WAT      O19655   4.317   4.517   6.806
 4734WAT     H119656   4.309   4.436   6.775
 4734WAT     H219657   4.272   4.565   6.749
 4734WAT    EPW19658   4.309   4.512   6.793
 4735WAT      O19659   4.877   4.128   6.055
 4735WAT     H119660   4.949   4.094   6.019
 4735WAT     H219661   4.873   4.208   6.020
 4735WAT    EPW19662   4.887   4.135   6.044
 4736WAT      O19663   4.074   4.741   7.165
 4736WAT     H119664   4.123   4.735   7.236
 4736WAT     H219665   4.093   4.668   7.121
 4736WAT    EPW19666   4.084   4.729   7.169
 4737WAT      O19667   4.999   3.684   4.946
 4737WAT     H119668   4.946   3.744   4.982
 4737WAT     H219669   5.038   3.647   5.014
 4737WAT    EPW19670   4.997   3.688   4.961
 4738WAT      O19671   5.613   4.428   4.243
 4738WAT     H119672   5.683   4.376   4.242
 4738WAT     H219673   5.554   4.384   4.196
 4738WAT    EPW19674   5.615   4.414   4.236
 4739WAT      O19675   5.266   3.791   4.613
 4739WAT     H119676   5.274   3.791   4.526
 4739WAT     H219677   5.207   3.728   4.628
 4739WAT    EPW19678   5.258   3.782   4.603
 4740WAT      O19679   4.665   3.101   4.394
 4740WAT     H119680   4.658   3.169   4.340
 4740WAT     H219681   4.739   3.062   4.369
 4740WAT    EPW19682   4.675   3.106   4.382
 4741WAT      O19683   4.126   4.477   4.007
 4741WAT     H119684   4.172   4.485   3.934
 4741WAT     H219685   4.171   4.419   4.054
 4741WAT    EPW19686   4.139   4.470   4.003
 4742WAT      O19687   4.637   4.124   5.624
 4742WAT     H119688   4.613   4.124   5.708
 4742WAT     H219689   4.562   4.109   5.581
 4742WAT    EPW19690   4.622   4.122   5.630
 4743WAT      O19691   4.575   3.385   5.072
 4743WAT     H119692   4.643   3.387   5.017
 4743WAT     H219693   4.570   3.301   5.096
 4743WAT    EPW19694   4.584   3.373   5.067
 4744WAT      O19695   4.635   4.443   5.350
 4744WAT     H119696   4.649   4.519   5.309
 4744WAT     H219697   4.714   4.407   5.353
 4744WAT    EPW19698   4.649   4.449   5.344
 4745WAT      O19699   4.745   4.232   4.800
 4745WAT     H119700   4.779   4.152   4.803
 4745WAT     H219701   4.811   4.282   4.775
 4745WAT    EPW19702   4.760   4.227   4.797
 4746WAT      O19703   4.750   4.177   4.421
 4746WAT     H119704   4.783   4.112   4.470
 4746WAT     H219705   4.774   4.156   4.340
 4746WAT    EPW19706   4.759   4.164   4.417
 4747WAT      O19707   4.947   3.590   5.555
 4747WAT     H119708   4.862   3.580   5.538
 4747WAT     H219709   4.950   3.664   5.601
 4747WAT    EPW19710   4.935   3.599   5.559
 4748WAT      O19711   5.403   2.886   5.467
 4748WAT     H119712   5.387   2.963   5.429
 4748WAT     H219713   5.326   2.864   5.501
 4748WAT    EPW19714   5.389   2.894   5.466
 4749WAT      O19715   4.682   3.057   4.688
 4749WAT     H119716   4.689   3.143   4.701
 4749WAT     H219717   4.678   3.050   4.601
 4749WAT    EPW19718   4.682   3.069   4.677
 4750WAT      O19719   5.149   3.350   3.918
 4750WAT     H119720   5.104   3.418   3.949
 4750WAT     H219721   5.161   3.300   3.988
 4750WAT    EPW19722   5.144   3.353   3.933
 4751WAT      O19723   5.159   4.584   4.129
 4751WAT     H119724   5.232   4.631   4.139
 4751WAT     H219725   5.182   4.505   4.157
 4751WAT    EPW19726   5.173   4.579   4.134
 4752WAT      O19727   4.976   4.623   4.328
 4752WAT     H119728   4.997   4.676   4.394
 4752WAT     H219729   5.053   4.606   4.290
 4752WAT    EPW19730   4.990   4.628   4.332
 4753WAT      O19731   4.603   3.295   5.817
 4753WAT     H119732   4.615   3.249   5.744
 4753WAT     H219733   4.632   3.375   5.797
 4753WAT    EPW19734   4.609   3.300   5.803
 4754WAT      O19735   5.689   3.347   4.548
 4754WAT     H119736   5.654   3.415   4.590
 4754WAT     H219737   5.625   3.287   4.549
 4754WAT    EPW19738   5.674   3.348   4.554
 4755WAT      O19739   5.220   4.624   5.158
 4755WAT     H119740   5.294   4.670   5.157
 4755WAT     H219741   5.208   4.603   5.074
 4755WAT    EPW19742   5.229   4.628   5.146
 4756WAT      O19743   4.177   3.255   5.716
 4756WAT     H119744   4.099   3.216   5.708
 4756WAT     H219745   4.226   3.213   5.657
 4756WAT    EPW19746   4.172   3.243   5.706
 4757WAT      O19747   4.841   3.019   5.632
 4757WAT     H119748   4.859   2.938   5.605
 4757WAT     H219749   4.827   3.063   5.559
 4757WAT    EPW19750   4.842   3.013   5.617
 4758WAT      O19751   4.901   3.511   4.510
 4758WAT     H119752   4.930   3.488   4.431
 4758WAT     H219753   4.974   3.519   4.557
 4758WAT    EPW19754   4.916   3.509   4.505
 4759WAT      O19755   4.973   3.545   4.022
 4759WAT     H119756   5.001   3.624   4.047
 4759WAT     H219757   4.895   3.562   3.986
 4759WAT    EPW19758   4.966   3.559   4.020
 4760WAT      O19759   5.377   4.743   4.169
 4760WAT     H119760   5.444   4.728   4.114
 4760WAT     H219761   5.413   4.734   4.248
 4760WAT    EPW19762   5.392   4.739   4.172
 4761WAT      O19763   5.656   3.180   5.085
 4761WAT     H119764   5.732   3.187   5.042
 4761WAT     H219765   5.662   3.102   5.124
 4761WAT    EPW19766   5.668   3.169   5.084
 4762WAT      O19767   5.145   4.343   5.528
 4762WAT     H119768   5.142   4.381   5.607
 4762WAT     H219769   5.231   4.339   5.511
 4762WAT    EPW19770   5.157   4.348   5.538
 4763WAT      O19771   4.859   4.362   4.003
 4763WAT     H119772   4.841   4.417   4.069
 4763WAT     H219773   4.936   4.391   3.973
 4763WAT    EPW19774   4.868   4.375   4.009
 4764WAT      O19775   5.210   3.152   4.109
 4764WAT     H119776   5.264   3.084   4.116
 4764WAT     H219777   5.216   3.192   4.186
 4764WAT    EPW19778   5.219   3.148   4.121
 4765WAT      O19779   4.935   3.390   4.240
 4765WAT     H119780   4.885   3.323   4.215
 4765WAT     H219781   4.941   3.440   4.169
 4765WAT    EPW19782   4.929   3.387   4.226
 4766WAT      O19783   4.990   4.659   5.278
 4766WAT     H119784   5.067   4.651   5.238
 4766WAT     H219785   4.932   4.647   5.214
 4766WAT    EPW19786   4.993   4.656   5.263
 4767WAT      O19787   4.935   3.084   4.229
 4767WAT     H119788   4.890   3.044   4.167
 4767WAT     H219789   5.013   3.099   4.192
 4767WAT    EPW19790   4.940   3.080   4.215
 4768WAT      O19791   5.618   4.719   4.568
 4768WAT     H119792   5.573   4.791   4.588
 4768WAT     H219793   5.557   4.662   4.544
 4768WAT    EPW19794   5.602   4.722   4.568
 4769WAT      O19795   4.795   3.320   4.682
 4769WAT     H119796   4.803   3.377   4.616
 4769WAT     H219797   4.807   3.370   4.753
 4769WAT    EPW19798   4.798   3.336   4.682
 4770WAT      O19799   4.355   4.395   5.444
 4770WAT     H119800   4.439   4.401   5.422
 4770WAT     H219801   4.352   4.435   5.522
 4770WAT    EPW19802   4.367   4.402   5.452
 4771WAT      O19803   5.174   3.337   5.270
 4771WAT     H119804   5.165   3.369   5.351
 4771WAT     H219805   5.115   3.274   5.267
 4771WAT    EPW19806   5.164   3.333   5.282
 4772WAT      O19807   4.627   3.940   5.178
 4772WAT     H119808   4.632   4.025   5.198
 4772WAT     H219809   4.598   3.903   5.252
 4772WAT    EPW19810   4.623   3.947   5.192
 4773WAT      O19811   5.244   4.009   5.091
 4773WAT     H119812   5.193   3.968   5.148
 4773WAT     H219813   5.232   4.094   5.109
 4773WAT    EPW19814   5.235   4.016   5.102
 4774WAT      O19815   5.300   2.932   4.554
 4774WAT     H119816   5.305   2.900   4.635
 4774WAT     H219817   5.332   2.867   4.505
 4774WAT    EPW19818   5.306   2.918   4.559
 4775WAT      O19819   3.909   4.377   5.799
 4775WAT     H119820   3.984   4.412   5.825
 4775WAT     H219821   3.926   4.292   5.793
 4775WAT    EPW19822   3.923   4.369   5.802
 4776WAT      O19823   5.546   3.355   5.385
 4776WAT     H119824   5.624   3.333   5.418
 4776WAT     H219825   5.499   3.377   5.455
 4776WAT    EPW19826   5.551   3.355   5.400
 4777WAT      O19827   5.570   4.053   4.104
 4777WAT     H119828   5.582   4.025   4.185
 4777WAT     H219829   5.650   4.055   4.071
 4777WAT    EPW19830   5.583   4.049   4.111
 4778WAT      O19831   5.793   4.504   5.529
 4778WAT     H119832   5.725   4.535   5.484
 4778WAT     H219833   5.756   4.458   5.593
 4778WAT    EPW19834   5.777   4.502   5.532
 4779WAT      O19835   5.359   3.707   4.062
 4779WAT     H119836   5.337   3.780   4.020
 4779WAT     H219837   5.314   3.712   4.137
 4779WAT    EPW19838   5.349   3.718   4.067
 4780WAT      O19839   5.778   3.193   4.007
 4780WAT     H119840   5.712   3.136   4.010
 4780WAT     H219841   5.759   3.244   3.939
 4780WAT    EPW19842   5.765   3.192   3.998
 4781WAT      O19843   4.700   3.562   5.802
 4781WAT     H119844   4.652   3.620   5.846
 4781WAT     H219845   4.698   3.592   5.720
 4781WAT    EPW19846   4.693   3.575   5.796
 4782WAT      O19847   5.810   3.631   5.263
 4782WAT     H119848   5.832   3.551   5.235
 4782WAT     H219849   5.725   3.637   5.244
 4782WAT    EPW19850   5.801   3.620   5.256
 4783WAT      O19851   5.578   3.149   4.235
 4783WAT     H119852   5.653   3.108   4.255
 4783WAT     H219853   5.604   3.220   4.193
 4783WAT    EPW19854   5.593   3.153   4.232
 4784WAT      O19855   4.972   4.397   4.693
 4784WAT     H119856   4.920   4.461   4.664
 4784WAT     H219857   5.003   4.361   4.620
 4784WAT    EPW19858   4.969   4.401   4.678
 4785WAT      O19859   4.380   4.176   4.969
 4785WAT     H119860   4.427   4.205   5.037
 4785WAT     H219861   4.437   4.128   4.923
 4785WAT    EPW19862   4.395   4.173   4.972
 4786WAT      O19863   5.223   3.378   4.743
 4786WAT     H119864   5.258   3.393   4.821
 4786WAT     H219865   5.178   3.304   4.754
 4786WAT    EPW19866   5.222   3.369   4.756
 4787WAT      O19867   4.671   3.300   4.188
 4787WAT     H119868   4.671   3.288   4.102
 4787WAT     H219869   4.653   3.384   4.197
 4787WAT    EPW19870   4.668   3.310   4.177
 4788WAT      O19871   4.258   3.643   5.638
 4788WAT     H119872   4.204   3.593   5.684
 4788WAT     H219873   4.260   3.604   5.560
 4788WAT    EPW19874   4.250   3.630   5.633
 4789WAT      O19875   4.366   3.740   5.158
 4789WAT     H119876   4.369   3.672   5.103
 4789WAT     H219877   4.301   3.789   5.127
 4789WAT    EPW19878   4.357   3.737   5.146
 4790WAT      O19879   5.356   3.511   4.998
 4790WAT     H119880   5.289   3.544   5.044
 4790WAT     H219881   5.374   3.574   4.941
 4790WAT    EPW19882   5.349   3.525   4.996
 4791WAT      O19883   4.776   4.617   5.098
 4791WAT     H119884   4.748   4.553   5.045
 4791WAT     H219885   4.755   4.690   5.054
 4791WAT    EPW19886   4.769   4.619   5.083
 4792WAT      O19887   5.020   3.101   5.341
 4792WAT     H119888   5.035   3.019   5.317
 4792WAT     H219889   5.058   3.107   5.419
 4792WAT    EPW19890   5.028   3.090   5.349
 4793WAT      O19891   5.175   3.308   4.349
 4793WAT     H119892   5.224   3.379   4.341
 4793WAT     H219893   5.096   3.334   4.323
 4793WAT    EPW19894   5.170   3.322   4.344
 4794WAT      O19895   4.146   3.875   5.714
 4794WAT     H119896   4.142   3.925   5.643
 4794WAT     H219897   4.179   3.800   5.685
 4794WAT    EPW19898   4.150   3.871   5.699
 4795WAT      O19899   5.306   4.096   5.540
 4795WAT     H119900   5.355   4.167   5.550
 4795WAT     H219901   5.346   4.053   5.475
 4795WAT    EPW19902   5.319   4.100   5.532
 4796WAT      O19903   4.736   4.380   5.658
 4796WAT     H119904   4.771   4.362   5.735
 4796WAT     H219905   4.692   4.307   5.638
 4796WAT    EPW19906   4.735   4.367   5.666
 4797WAT      O19907   4.833   3.455   4.922
 4797WAT     H119908   4.881   3.525   4.942
 4797WAT     H219909   4.870   3.390   4.967
 4797WAT    EPW19910   4.846   3.456   4.931
 4798WAT      O19911   5.549   4.159   4.547
 4798WAT     H119912   5.585   4.124   4.619
 4798WAT     H219913   5.548   4.093   4.490
 4798WAT    EPW19914   5.554   4.144   4.549
 4799WAT      O19915   5.154   4.465   4.931
 4799WAT     H119916   5.093   4.436   4.876
 4799WAT     H219917   5.208   4.510   4.881
 4799WAT    EPW19918   5.153   4.468   4.916
 4800WAT      O19919   5.155   4.150   4.871
 4800WAT     H119920   5.075   4.173   4.899
 4800WAT     H219921   5.181   4.091   4.930
 4800WAT    EPW19922   5.147   4.145   4.884
 4801WAT      O19923   4.773   4.583   4.156
 4801WAT     H119924   4.836   4.599   4.215
 4801WAT     H219925   4.777   4.652   4.103
 4801WAT    EPW19926   4.783   4.596   4.157
 4802WAT      O19927   5.481   3.950   5.356
 4802WAT     H119928   5.486   3.963   5.270
 4802WAT     H219929   5.556   3.982   5.386
 4802WAT    EPW19930   5.493   3.957   5.348
 4803WAT      O19931   5.100   4.485   5.784
 4803WAT     H119932   5.116   4.513   5.865
 4803WAT     H219933   5.126   4.551   5.733
 4803WAT    EPW19934   5.106   4.499   5.788
 4804WAT      O19935   5.584   2.980   5.655
 4804WAT     H119936   5.520   2.940   5.611
 4804WAT     H219937   5.587   2.937   5.731
 4804WAT    EPW19938   5.575   2.968   5.659
 4805WAT      O19939   5.054   3.931   5.316
 4805WAT     H119940   5.039   3.992   5.376
 4805WAT     H219941   5.107   3.875   5.357
 4805WAT    EPW19942   5.060   3.932   5.331
 4806WAT      O19943   4.892   3.771   4.382
 4806WAT     H119944   4.898   3.836   4.440
 4806WAT     H219945   4.874   3.701   4.431
 4806WAT    EPW19946   4.891   3.770   4.398
 4807WAT      O19947   5.415   4.204   4.969
 4807WAT     H119948   5.367   4.233   4.902
 4807WAT     H219949   5.379   4.126   4.987
 4807WAT    EPW19950   5.403   4.197   4.962
 4808WAT      O19951   4.815   3.975   4.825
 4808WAT     H119952   4.730   3.956   4.833
 4808WAT     H219953   4.847   3.959   4.904
 4808WAT    EPW19954   4.807   3.970   4.838
 4809WAT      O19955   4.490   4.648   3.914
 4809WAT     H119956   4.534   4.579   3.942
 4809WAT     H219957   4.511   4.711   3.971
 4809WAT    EPW19958   4.500   4.647   3.926
 4810WAT      O19959   4.200   3.945   5.057
 4810WAT     H119960   4.272   3.994   5.053
 4810WAT     H219961   4.173   3.942   4.974
 4810WAT    EPW19962   4.206   3.952   5.044
 4811WAT      O19963   5.784   4.620   4.163
 4811WAT     H119964   5.854   4.574   4.138
 4811WAT     H219965   5.730   4.560   4.196
 4811WAT    EPW19966   5.787   4.604   4.164
 4812WAT      O19967   5.508   3.898   5.081
 4812WAT     H119968   5.507   3.820   5.120
 4812WAT     H219969   5.424   3.921   5.080
 4812WAT    EPW19970   5.496   3.890   5.086
 4813WAT      O19971   5.634   3.905   4.824
 4813WAT     H119972   5.605   3.945   4.896
 4813WAT     H219973   5.720   3.899   4.837
 4813WAT    EPW19974   5.642   3.910   4.837
 4814WAT      O19975   4.603   3.585   4.215
 4814WAT     H119976   4.630   3.668   4.222
 4814WAT     H219977   4.516   3.593   4.206
 4814WAT    EPW19978   4.594   3.598   4.215
 4815WAT      O19979   5.400   3.297   5.678
 4815WAT     H119980   5.347   3.343   5.731
 4815WAT     H219981   5.364   3.218   5.678
 4815WAT    EPW19982   5.387   3.292   5.686
 4816WAT      O19983   5.747   4.468   4.877
 4816WAT     H119984   5.776   4.494   4.799
 4816WAT     H219985   5.816   4.478   4.929
 4816WAT    EPW19986   5.761   4.473   4.873
 4817WAT      O19987   5.249   3.654   5.686
 4817WAT     H119988   5.256   3.665   5.772
 4817WAT     H219989   5.186   3.710   5.664
 4817WAT    EPW19990   5.241   3.664   5.695
 4818WAT      O19991   5.476   3.686   5.522
 4818WAT     H119992   5.508   3.765   5.543
 4818WAT     H219993   5.439   3.659   5.597
 4818WAT    EPW19994   5.475   3.694   5.536
 4819WAT      O19995   5.407   4.329   4.075
 4819WAT     H119996   5.441   4.248   4.079
 4819WAT     H219997   5.332   4.321   4.118
 4819WAT    EPW19998   5.401   4.316   4.082
 4820WAT      O19999   5.456   3.512   4.641
 4820WAT     H120000   5.381   3.480   4.673
 4820WAT     H220001   5.456   3.595   4.669
 4820WAT    EPW20002   5.445   3.519   4.650
 4821WAT      O20003   5.746   3.740   5.796
 4821WAT     H120004   5.741   3.706   5.716
 4821WAT     H220005   5.819   3.787   5.794
 4821WAT    EPW20006   5.756   3.742   5.784
 4822WAT      O20007   5.700   4.108   5.417
 4822WAT     H120008   5.762   4.053   5.391
 4822WAT     H220009   5.693   4.164   5.350
 4822WAT    EPW20010   5.708   4.108   5.403
 4823WAT      O20011   5.145   4.116   4.016
 4823WAT     H120012   5.213   4.065   3.999
 4823WAT     H220013   5.103   4.121   3.939
 4823WAT    EPW20014   5.149   4.109   4.002
 4824WAT      O20015   4.613   4.231   5.146
 4824WAT     H120016   4.583   4.290   5.203
 4824WAT     H220017   4.618   4.275   5.071
 4824WAT    EPW20018   4.609   4.246   5.143
 4825WAT      O20019   4.411   4.126   5.486
 4825WAT     H120020   4.330   4.097   5.503
 4825WAT     H220021   4.402   4.213   5.487
 4825WAT    EPW20022   4.398   4.135   5.488
 4826WAT      O20023   5.347   3.145   5.387
 4826WAT     H120024   5.421   3.190   5.381
 4826WAT     H220025   5.290   3.192   5.341
 4826WAT    EPW20026   5.349   3.159   5.380
 4827WAT      O20027   4.865   3.873   5.095
 4827WAT     H120028   4.912   3.911   5.158
 4827WAT     H220029   4.782   3.887   5.121
 4827WAT    EPW20030   4.859   3.881   5.108
 4828WAT      O20031   4.536   3.434   5.369
 4828WAT     H120032   4.552   3.359   5.412
 4828WAT     H220033   4.531   3.409   5.286
 4828WAT    EPW20034   4.537   3.419   5.363
 4829WAT      O20035   5.475   2.943   5.154
 4829WAT     H120036   5.447   3.025   5.150
 4829WAT     H220037   5.547   2.948   5.204
 4829WAT    EPW20038   5.482   2.956   5.161
 4830WAT      O20039   4.609   4.435   4.957
 4830WAT     H120040   4.547   4.494   4.939
 4830WAT     H220041   4.634   4.407   4.878
 4830WAT    EPW20042   4.604   4.440   4.943
 4831WAT      O20043   5.040   4.099   5.656
 4831WAT     H120044   5.116   4.127   5.623
 4831WAT     H220045   4.985   4.104   5.588
 4831WAT    EPW20046   5.043   4.104   5.641
 4832WAT      O20047   5.431   4.354   5.506
 4832WAT     H120048   5.466   4.381   5.582
 4832WAT     H220049   5.460   4.412   5.448
 4832WAT    EPW20050   5.441   4.366   5.509
 4833WAT      O20051   5.617   3.568   4.040
 4833WAT     H120052   5.655   3.636   4.000
 4833WAT     H220053   5.533   3.591   4.043
 4833WAT    EPW20054   5.610   3.582   4.035
 4834WAT      O20055   4.769   3.913   3.948
 4834WAT     H120056   4.688   3.895   3.920
 4834WAT     H220057   4.765   3.998   3.968
 4834WAT    EPW20058   4.756   3.923   3.947
 4835WAT      O20059   4.362   3.520   4.963
 4835WAT     H120060   4.406   3.509   4.889
 4835WAT     H220061   4.416   3.488   5.024
 4835WAT    EPW20062   4.376   3.514   4.961
 4836WAT      O20063   5.163   3.430   5.523
 4836WAT     H120064   5.098   3.477   5.557
 4836WAT     H220065   5.220   3.421   5.589
 4836WAT    EPW20066   5.162   3.436   5.538
 4837WAT      O20067   5.132   3.584   5.152
 4837WAT     H120068   5.162   3.626   5.223
 4837WAT     H220069   5.136   3.500   5.176
 4837WAT    EPW20070   5.137   3.577   5.166
 4838WAT      O20071   4.875   4.600   5.545
 4838WAT     H120072   4.922   4.540   5.503
 4838WAT     H220073   4.839   4.556   5.611
 4838WAT    EPW20074   4.876   4.585   5.549
 4839WAT      O20075   5.387   3.528   4.378
 4839WAT     H120076   5.408   3.508   4.460
 4839WAT     H220077   5.462   3.555   4.343
 4839WAT    EPW20078   5.401   3.529   4.385
 4840WAT      O20079   4.716   3.018   4.968
 4840WAT     H120080   4.634   3.003   4.992
 4840WAT     H220081   4.712   3.022   4.881
 4840WAT    EPW20082   4.704   3.017   4.959
 4841WAT      O20083   5.489   3.137   4.525
 4841WAT     H120084   5.418   3.090   4.542
 4841WAT     H220085   5.473   3.171   4.446
 4841WAT    EPW20086   5.476   3.135   4.516
 4842WAT      O20087   5.533   3.931   4.363
 4842WAT     H120088   5.581   3.858   4.358
 4842WAT     H220089   5.451   3.902   4.355
 4842WAT    EPW20090   5.528   3.916   4.361
 4843WAT      O20091   4.463   4.743   4.979
 4843WAT     H120092   4.465   4.749   5.066
 4843WAT     H220093   4.421   4.668   4.964
 4843WAT    EPW20094   4.457   4.733   4.989
 4844WAT      O20095   5.155   4.048   4.599
 4844WAT     H120096   5.163   4.082   4.678
 4844WAT     H220097   5.172   3.963   4.611
 4844WAT    EPW20098   5.159   4.040   4.612
 4845WAT      O20099   4.907   3.975   4.555
 4845WAT     H120100   4.877   3.944   4.631
 4845WAT     H220101   4.977   4.022   4.579
 4845WAT    EPW20102   4.913   3.977   4.570
 4846WAT      O20103   4.929   4.387   5.358
 4846WAT     H120104   4.998   4.376   5.410
 4846WAT     H220105   4.943   4.466   5.323
 4846WAT    EPW20106   4.941   4.397   5.360
 4847WAT      O20107   5.747   3.648   5.539
 4847WAT     H120108   5.661   3.636   5.551
 4847WAT     H220109   5.762   3.608   5.463
 4847WAT    EPW20110   5.737   3.640   5.529
 4848WAT      O20111   5.198   3.714   5.396
 4848WAT     H120112   5.173   3.642   5.439
 4848WAT     H220113   5.280   3.726   5.423
 4848WAT    EPW20114   5.207   3.705   5.407
 4849WAT      O20115   4.992   3.833   5.715
 4849WAT     H120116   5.024   3.902   5.672
 4849WAT     H220117   4.921   3.866   5.755
 4849WAT    EPW20118   4.986   3.848   5.715
 4850WAT      O20119   5.300   4.671   4.808
 4850WAT     H120120   5.255   4.735   4.846
 4850WAT     H220121   5.371   4.663   4.859
 4850WAT    EPW20122   5.304   4.679   4.821
 4851WAT      O20123   4.970   4.180   5.101
 4851WAT     H120124   4.901   4.220   5.135
 4851WAT     H220125   5.038   4.223   5.135
 4851WAT    EPW20126   4.970   4.192   5.111
 4852WAT      O20127   5.508   4.439   5.759
 4852WAT     H120128   5.585   4.400   5.767
 4852WAT     H220129   5.461   4.405   5.825
 4852WAT    EPW20130   5.512   4.428   5.770
 4853WAT      O20131   4.277   3.534   5.336
 4853WAT     H120132   4.314   3.595   5.287
 4853WAT     H220133   4.344   3.486   5.364
 4853WAT    EPW20134   4.292   3.536   5.333
 4854WAT      O20135   5.610   3.642   4.307
 4854WAT     H120136   5.621   3.637   4.221
 4854WAT     H220137   5.684   3.609   4.339
 4854WAT    EPW20138   5.623   3.637   4.299
 4855WAT      O20139   4.310   3.119   5.504
 4855WAT     H120140   4.302   3.035   5.525
 4855WAT     H220141   4.278   3.124   5.423
 4855WAT    EPW20142   4.304   3.108   5.495
 4856WAT      O20143   5.002   4.339   4.418
 4856WAT     H120144   4.982   4.422   4.402
 4856WAT     H220145   4.925   4.301   4.430
 4856WAT    EPW20146   4.988   4.346   4.417
 4857WAT      O20147   5.521   3.657   5.243
 4857WAT     H120148   5.520   3.571   5.255
 4857WAT     H220149   5.527   3.689   5.324
 4857WAT    EPW20150   5.522   3.649   5.257
 4858WAT      O20151   5.108   3.137   5.621
 4858WAT     H120152   5.118   3.208   5.670
 4858WAT     H220153   5.045   3.092   5.661
 4858WAT    EPW20154   5.100   3.141   5.634
 4859WAT      O20155   5.008   3.156   4.706
 4859WAT     H120156   4.938   3.208   4.701
 4859WAT     H220157   5.012   3.118   4.628
 4859WAT    EPW20158   4.998   3.158   4.694
 4860WAT      O20159   4.539   4.365   4.059
 4860WAT     H120160   4.583   4.373   4.134
 4860WAT     H220161   4.458   4.343   4.085
 4860WAT    EPW20162   4.533   4.363   4.074
 4861WAT      O20163   5.368   3.208   4.986
 4861WAT     H120164   5.453   3.217   5.001
 4861WAT     H220165   5.331   3.263   5.043
 4861WAT    EPW20166   5.375   3.217   4.997
 4862WAT      O20167   4.470   3.830   5.424
 4862WAT     H120168   4.431   3.908   5.432
 4862WAT     H220169   4.430   3.793   5.357
 4862WAT    EPW20170   4.459   3.836   5.415
 4863WAT      O20171   5.398   3.736   4.836
 4863WAT     H120172   5.465   3.790   4.852
 4863WAT     H220173   5.364   3.767   4.762
 4863WAT    EPW20174   5.403   3.748   4.827
 4864WAT      O20175   5.429   4.542   4.416
 4864WAT     H120176   5.412   4.477   4.471
 4864WAT     H220177   5.501   4.515   4.374
 4864WAT    EPW20178   5.437   4.528   4.418
 4865WAT      O20179   4.553   4.097   3.993
 4865WAT     H120180   4.472   4.070   4.007
 4865WAT     H220181   4.551   4.182   4.012
 4865WAT    EPW20182   4.541   4.105   3.998
 4866WAT      O20183   4.513   3.128   5.169
 4866WAT     H120184   4.427   3.136   5.177
 4866WAT     H220185   4.535   3.076   5.236
 4866WAT    EPW20186   4.504   3.122   5.180
 4867WAT      O20187   5.715   2.991   5.302
 4867WAT     H120188   5.710   2.987   5.389
 4867WAT     H220189   5.784   2.941   5.283
 4867WAT    EPW20190   5.725   2.983   5.312
 4868WAT      O20191   4.924   3.203   5.007
 4868WAT     H120192   4.850   3.157   5.018
 4868WAT     H220193   4.981   3.162   5.059
 4868WAT    EPW20194   4.921   3.190   5.016
 4869WAT      O20195   5.197   4.287   5.185
 4869WAT     H120196   5.217   4.318   5.265
 4869WAT     H220197   5.191   4.360   5.137
 4869WAT    EPW20198   5.199   4.303   5.190
 4870WAT      O20199   5.150   4.709   5.610
 4870WAT     H120200   5.075   4.707   5.566
 4870WAT     H220201   5.167   4.794   5.618
 4870WAT    EPW20202   5.142   4.721   5.605
 4871WAT      O20203   4.674   3.636   5.527
 4871WAT     H120204   4.642   3.578   5.470
 4871WAT     H220205   4.638   3.711   5.502
 4871WAT    EPW20206   4.664   3.638   5.515
 4872WAT      O20207   5.678   4.151   5.131
 4872WAT     H120208   5.675   4.065   5.118
 4872WAT     H220209   5.609   4.182   5.088
 4872WAT    EPW20210   5.667   4.143   5.123
 4873WAT      O20211   4.517   4.671   5.552
 4873WAT     H120212   4.522   4.684   5.638
 4873WAT     H220213   4.583   4.615   5.536
 4873WAT    EPW20214   4.528   4.665   5.562
 4874WAT      O20215   5.489   4.477   5.011
 4874WAT     H120216   5.541   4.469   4.942
 4874WAT     H220217   5.449   4.400   5.016
 4874WAT    EPW20218   5.491   4.465   5.001
 4875WAT      O20219   5.140   3.022   4.932
 4875WAT     H120220   5.207   3.076   4.944
 4875WAT     H220221   5.090   3.064   4.874
 4875WAT    EPW20222   5.142   3.036   4.925
 4876WAT      O20223   4.277   4.509   5.688
 4876WAT     H120224   4.336   4.553   5.735
 4876WAT     H220225   4.240   4.572   5.639
 4876WAT    EPW20226   4.280   4.525   5.687
 4877WAT      O20227   5.076   3.603   4.681
 4877WAT     H120228   5.131   3.542   4.711
 4877WAT     H220229   5.033   3.629   4.752
 4877WAT    EPW20230   5.078   3.597   4.696
 4878WAT      O20231   5.273   3.786   4.337
 4878WAT     H120232   5.280   3.701   4.355
 4878WAT     H220233   5.191   3.794   4.309
 4878WAT    EPW20234   5.262   3.774   4.336
 4879WAT      O20235   5.581   4.681   3.979
 4879WAT     H120236   5.644   4.668   4.037
 4879WAT     H220237   5.547   4.602   3.967
 4879WAT    EPW20238   5.585   4.667   3.986
 4880WAT      O20239   5.600   3.923   5.652
 4880WAT     H120240   5.664   3.906   5.710
 4880WAT     H220241   5.642   3.963   5.587
 4880WAT    EPW20242   5.616   3.926   5.651
 4881WAT      O20243   5.188   4.308   4.211
 4881WAT     H120244   5.163   4.295   4.294
 4881WAT     H220245   5.157   4.238   4.169
 4881WAT    EPW20246   5.180   4.296   4.217
 4882WAT      O20247   5.663   3.379   5.726
 4882WAT     H120248   5.643   3.444   5.782
 4882WAT     H220249   5.591   3.330   5.725
 4882WAT    EPW20250   5.649   3.382   5.734
 4883WAT      O20251   5.653   3.473   5.023
 4883WAT     H120252   5.569   3.498   5.016
 4883WAT     H220253   5.647   3.389   5.046
 4883WAT    EPW20254   5.640   3.465   5.025
 4884WAT      O20255   4.579   3.172   5.543
 4884WAT     H120256   4.602   3.115   5.481
 4884WAT     H220257   4.494   3.154   5.557
 4884WAT    EPW20258   4.570   3.161   5.536
 4885WAT      O20259   5.341   3.934   5.788
 4885WAT     H120260   5.428   3.930   5.784
 4885WAT     H220261   5.319   3.976   5.715
 4885WAT    EPW20262   5.351   3.940   5.776
 4886WAT      O20263   4.877   4.128   4.154
 4886WAT     H120264   4.949   4.094   4.119
 4886WAT     H220265   4.873   4.208   4.119
 4886WAT    EPW20266   4.887   4.135   4.144
 4887WAT      O20267   4.999   3.684   3.045
 4887WAT     H120268   4.946   3.744   3.081
 4887WAT     H220269   5.038   3.647   3.114
 4887WAT    EPW20270   4.997   3.688   3.061
 4888WAT      O20271   5.613   4.428   2.342
 4888WAT     H120272   5.683   4.376   2.342
 4888WAT     H220273   5.554   4.384   2.295
 4888WAT    EPW20274   5.615   4.414   2.335
 4889WAT      O20275   5.266   3.791   2.713
 4889WAT     H120276   5.274   3.791   2.626
 4889WAT     H220277   5.207   3.728   2.728
 4889WAT    EPW20278   5.258   3.782   2.702
 4890WAT      O20279   4.126   4.477   2.106
 4890WAT     H120280   4.172   4.485   2.033
 4890WAT     H220281   4.171   4.419   2.153
 4890WAT    EPW20282   4.139   4.470   2.102
 4891WAT      O20283   4.750   4.177   2.521
 4891WAT     H120284   4.783   4.112   2.569
 4891WAT     H220285   4.774   4.156   2.440
 4891WAT    EPW20286   4.759   4.164   2.516
 4892WAT      O20287   5.403   2.886   3.566
 4892WAT     H120288   5.387   2.963   3.528
 4892WAT     H220289   5.326   2.864   3.601
 4892WAT    EPW20290   5.389   2.894   3.566
 4893WAT      O20291   5.149   3.350   2.018
 4893WAT     H120292   5.104   3.418   2.048
 4893WAT     H220293   5.161   3.300   2.088
 4893WAT    EPW20294   5.144   3.353   2.032
 4894WAT      O20295   4.545   4.355   2.476
 4894WAT     H120296   4.487   4.328   2.535
 4894WAT     H220297   4.607   4.294   2.478
 4894WAT    EPW20298   4.545   4.342   2.485
 4895WAT      O20299   5.159   4.584   2.228
 4895WAT     H120300   5.232   4.631   2.238
 4895WAT     H220301   5.182   4.505   2.256
 4895WAT    EPW20302   5.173   4.579   2.234
 4896WAT      O20303   4.976   4.623   2.427
 4896WAT     H120304   4.997   4.676   2.493
 4896WAT     H220305   5.053   4.606   2.389
 4896WAT    EPW20306   4.990   4.628   2.431
 4897WAT      O20307   5.689   3.347   2.647
 4897WAT     H120308   5.654   3.415   2.690
 4897WAT     H220309   5.625   3.287   2.649
 4897WAT    EPW20310   5.674   3.348   2.654
 4898WAT      O20311   5.220   4.624   3.257
 4898WAT     H120312   5.294   4.670   3.256
 4898WAT     H220313   5.208   4.603   3.174
 4898WAT    EPW20314   5.229   4.628   3.245
 4899WAT      O20315   4.901   3.511   2.609
 4899WAT     H120316   4.930   3.488   2.530
 4899WAT     H220317   4.974   3.519   2.656
 4899WAT    EPW20318   4.916   3.509   2.604
 4900WAT      O20319   5.377   4.743   2.268
 4900WAT     H120320   5.444   4.728   2.213
 4900WAT     H220321   5.413   4.734   2.347
 4900WAT    EPW20322   5.392   4.739   2.272
 4901WAT      O20323   4.420   4.694   3.374
 4901WAT     H120324   4.449   4.687   3.456
 4901WAT     H220325   4.357   4.633   3.370
 4901WAT    EPW20326   4.415   4.684   3.386
 4902WAT      O20327   5.656   3.180   3.184
 4902WAT     H120328   5.732   3.187   3.141
 4902WAT     H220329   5.662   3.102   3.224
 4902WAT    EPW20330   5.668   3.169   3.183
 4903WAT      O20331   5.145   4.343   3.628
 4903WAT     H120332   5.142   4.381   3.706
 4903WAT     H220333   5.231   4.339   3.611
 4903WAT    EPW20334   5.157   4.348   3.637
 4904WAT      O20335   5.210   3.152   2.208
 4904WAT     H120336   5.264   3.084   2.216
 4904WAT     H220337   5.216   3.192   2.286
 4904WAT    EPW20338   5.219   3.148   2.221
 4905WAT      O20339   4.990   4.659   3.378
 4905WAT     H120340   5.067   4.651   3.337
 4905WAT     H220341   4.932   4.647   3.314
 4905WAT    EPW20342   4.993   4.656   3.362
 4906WAT      O20343   4.935   3.084   2.329
 4906WAT     H120344   4.890   3.044   2.266
 4906WAT     H220345   5.013   3.099   2.291
 4906WAT    EPW20346   4.940   3.080   2.314
 4907WAT      O20347   5.618   4.719   2.668
 4907WAT     H120348   5.573   4.791   2.688
 4907WAT     H220349   5.557   4.662   2.644
 4907WAT    EPW20350   5.602   4.722   2.667
 4908WAT      O20351   5.318   4.304   2.622
 4908WAT     H120352   5.388   4.256   2.641
 4908WAT     H220353   5.252   4.247   2.627
 4908WAT    EPW20354   5.318   4.288   2.626
 4909WAT      O20355   5.174   3.337   3.370
 4909WAT     H120356   5.165   3.369   3.450
 4909WAT     H220357   5.115   3.274   3.366
 4909WAT    EPW20358   5.164   3.333   3.381
 4910WAT      O20359   5.244   4.009   3.190
 4910WAT     H120360   5.193   3.968   3.247
 4910WAT     H220361   5.232   4.094   3.208
 4910WAT    EPW20362   5.235   4.016   3.201
 4911WAT      O20363   5.300   2.932   2.653
 4911WAT     H120364   5.305   2.900   2.734
 4911WAT     H220365   5.332   2.867   2.604
 4911WAT    EPW20366   5.306   2.918   2.658
 4912WAT      O20367   5.546   3.355   3.484
 4912WAT     H120368   5.624   3.333   3.518
 4912WAT     H220369   5.499   3.377   3.554
 4912WAT    EPW20370   5.551   3.355   3.499
 4913WAT      O20371   5.793   4.504   3.628
 4913WAT     H120372   5.725   4.535   3.584
 4913WAT     H220373   5.756   4.458   3.693
 4913WAT    EPW20374   5.777   4.502   3.631
 4914WAT      O20375   5.359   3.707   2.161
 4914WAT     H120376   5.337   3.780   2.119
 4914WAT     H220377   5.314   3.712   2.236
 4914WAT    EPW20378   5.349   3.718   2.166
 4915WAT      O20379   5.778   3.193   2.107
 4915WAT     H120380   5.712   3.136   2.109
 4915WAT     H220381   5.759   3.244   2.039
 4915WAT    EPW20382   5.765   3.192   2.097
 4916WAT      O20383   4.700   3.562   3.901
 4916WAT     H120384   4.652   3.620   3.945
 4916WAT     H220385   4.698   3.592   3.819
 4916WAT    EPW20386   4.693   3.575   3.896
 4917WAT      O20387   5.810   3.631   3.362
 4917WAT     H120388   5.832   3.551   3.335
 4917WAT     H220389   5.725   3.637   3.343
 4917WAT    EPW20390   5.801   3.620   3.355
 4918WAT      O20391   5.578   3.149   2.335
 4918WAT     H120392   5.653   3.108   2.355
 4918WAT     H220393   5.604   3.220   2.292
 4918WAT    EPW20394   5.593   3.153   2.331
 4919WAT      O20395   5.223   3.378   2.842
 4919WAT     H120396   5.258   3.393   2.921
 4919WAT     H220397   5.178   3.304   2.853
 4919WAT    EPW20398   5.222   3.369   2.855
 4920WAT      O20399   3.942   4.121   2.122
 4920WAT     H120400   4.018   4.078   2.128
 4920WAT     H220401   3.944   4.174   2.191
 4920WAT    EPW20402   3.954   4.123   2.133
 4921WAT      O20403   5.576   4.542   3.437
 4921WAT     H120404   5.509   4.594   3.459
 4921WAT     H220405   5.583   4.552   3.351
 4921WAT    EPW20406   5.567   4.551   3.428
 4922WAT      O20407   5.356   3.511   3.097
 4922WAT     H120408   5.289   3.544   3.144
 4922WAT     H220409   5.374   3.574   3.040
 4922WAT    EPW20410   5.349   3.525   3.096
 4923WAT      O20411   5.175   3.308   2.448
 4923WAT     H120412   5.224   3.379   2.441
 4923WAT     H220413   5.096   3.334   2.422
 4923WAT    EPW20414   5.170   3.322   2.443
 4924WAT      O20415   5.306   4.096   3.639
 4924WAT     H120416   5.355   4.167   3.649
 4924WAT     H220417   5.346   4.053   3.574
 4924WAT    EPW20418   5.319   4.100   3.631
 4925WAT      O20419   4.736   4.380   3.757
 4925WAT     H120420   4.771   4.362   3.835
 4925WAT     H220421   4.692   4.307   3.737
 4925WAT    EPW20422   4.735   4.367   3.766
 4926WAT      O20423   5.052   3.772   2.248
 4926WAT     H120424   5.051   3.844   2.199
 4926WAT     H220425   4.988   3.785   2.306
 4926WAT    EPW20426   5.042   3.784   2.250
 4927WAT      O20427   5.549   4.159   2.646
 4927WAT     H120428   5.585   4.124   2.718
 4927WAT     H220429   5.548   4.093   2.589
 4927WAT    EPW20430   5.554   4.144   2.649
 4928WAT      O20431   4.544   4.632   2.416
 4928WAT     H120432   4.529   4.554   2.453
 4928WAT     H220433   4.613   4.617   2.364
 4928WAT    EPW20434   4.552   4.618   2.414
 4929WAT      O20435   4.773   4.583   2.256
 4929WAT     H120436   4.836   4.599   2.315
 4929WAT     H220437   4.777   4.652   2.203
 4929WAT    EPW20438   4.783   4.596   2.257
 4930WAT      O20439   5.481   3.950   3.455
 4930WAT     H120440   5.486   3.963   3.369
 4930WAT     H220441   5.556   3.982   3.486
 4930WAT    EPW20442   5.493   3.957   3.447
 4931WAT      O20443   5.100   4.485   3.883
 4931WAT     H120444   5.116   4.513   3.964
 4931WAT     H220445   5.126   4.551   3.833
 4931WAT    EPW20446   5.106   4.499   3.888
 4932WAT      O20447   5.584   2.980   3.754
 4932WAT     H120448   5.520   2.940   3.710
 4932WAT     H220449   5.587   2.937   3.830
 4932WAT    EPW20450   5.575   2.968   3.759
 4933WAT      O20451   5.054   3.931   3.415
 4933WAT     H120452   5.039   3.992   3.476
 4933WAT     H220453   5.107   3.875   3.456
 4933WAT    EPW20454   5.060   3.932   3.430
 4934WAT      O20455   4.892   3.771   2.481
 4934WAT     H120456   4.898   3.836   2.539
 4934WAT     H220457   4.874   3.701   2.530
 4934WAT    EPW20458   4.891   3.770   2.497
 4935WAT      O20459   5.415   4.204   3.068
 4935WAT     H120460   5.367   4.233   3.002
 4935WAT     H220461   5.379   4.126   3.086
 4935WAT    EPW20462   5.403   4.197   3.061
 4936WAT      O20463   4.490   4.648   2.013
 4936WAT     H120464   4.534   4.579   2.042
 4936WAT     H220465   4.511   4.711   2.070
 4936WAT    EPW20466   4.500   4.647   2.026
 4937WAT      O20467   5.784   4.620   2.262
 4937WAT     H120468   5.854   4.574   2.237
 4937WAT     H220469   5.730   4.560   2.296
 4937WAT    EPW20470   5.787   4.604   2.263
 4938WAT      O20471   5.508   3.898   3.180
 4938WAT     H120472   5.507   3.820   3.220
 4938WAT     H220473   5.424   3.921   3.179
 4938WAT    EPW20474   5.496   3.890   3.186
 4939WAT      O20475   5.634   3.905   2.924
 4939WAT     H120476   5.605   3.945   2.996
 4939WAT     H220477   5.720   3.899   2.936
 4939WAT    EPW20478   5.642   3.910   2.936
 4940WAT      O20479   5.747   4.468   2.977
 4940WAT     H120480   5.776   4.494   2.899
 4940WAT     H220481   5.816   4.478   3.029
 4940WAT    EPW20482   5.761   4.473   2.973
 4941WAT      O20483   5.249   3.654   3.785
 4941WAT     H120484   5.256   3.665   3.872
 4941WAT     H220485   5.186   3.710   3.763
 4941WAT    EPW20486   5.241   3.664   3.795
 4942WAT      O20487   5.476   3.686   3.622
 4942WAT     H120488   5.508   3.765   3.642
 4942WAT     H220489   5.439   3.659   3.696
 4942WAT    EPW20490   5.475   3.694   3.636
 4943WAT      O20491   5.407   4.329   2.175
 4943WAT     H120492   5.441   4.248   2.178
 4943WAT     H220493   5.332   4.321   2.218
 4943WAT    EPW20494   5.401   4.316   2.182
 4944WAT      O20495   5.746   3.740   3.895
 4944WAT     H120496   5.741   3.706   3.815
 4944WAT     H220497   5.819   3.787   3.893
 4944WAT    EPW20498   5.756   3.742   3.883
 4945WAT      O20499   5.700   4.108   3.516
 4945WAT     H120500   5.762   4.053   3.490
 4945WAT     H220501   5.693   4.164   3.450
 4945WAT    EPW20502   5.708   4.108   3.502
 4946WAT      O20503   5.145   4.116   2.115
 4946WAT     H120504   5.213   4.065   2.098
 4946WAT     H220505   5.103   4.121   2.039
 4946WAT    EPW20506   5.149   4.109   2.101
 4947WAT      O20507   5.347   3.145   3.487
 4947WAT     H120508   5.421   3.190   3.481
 4947WAT     H220509   5.290   3.192   3.440
 4947WAT    EPW20510   5.349   3.159   3.479
 4948WAT      O20511   5.475   2.943   3.254
 4948WAT     H120512   5.447   3.025   3.249
 4948WAT     H220513   5.547   2.948   3.303
 4948WAT    EPW20514   5.482   2.956   3.261
 4949WAT      O20515   5.040   4.099   3.755
 4949WAT     H120516   5.116   4.127   3.723
 4949WAT     H220517   4.985   4.104   3.687
 4949WAT    EPW20518   5.043   4.104   3.740
 4950WAT      O20519   5.431   4.354   3.606
 4950WAT     H120520   5.466   4.381   3.681
 4950WAT     H220521   5.460   4.412   3.548
 4950WAT    EPW20522   5.441   4.366   3.608
 4951WAT      O20523   5.617   3.568   2.140
 4951WAT     H120524   5.655   3.636   2.100
 4951WAT     H220525   5.533   3.591   2.143
 4951WAT    EPW20526   5.610   3.582   2.134
 4952WAT      O20527   4.769   3.913   2.048
 4952WAT     H120528   4.688   3.895   2.019
 4952WAT     H220529   4.765   3.998   2.067
 4952WAT    EPW20530   4.756   3.923   2.047
 4953WAT      O20531   5.163   3.430   3.622
 4953WAT     H120532   5.098   3.477   3.657
 4953WAT     H220533   5.220   3.421   3.688
 4953WAT    EPW20534   5.162   3.436   3.637
 4954WAT      O20535   5.132   3.584   3.252
 4954WAT     H120536   5.162   3.626   3.322
 4954WAT     H220537   5.136   3.500   3.275
 4954WAT    EPW20538   5.137   3.577   3.266
 4955WAT      O20539   4.875   4.600   3.644
 4955WAT     H120540   4.922   4.540   3.603
 4955WAT     H220541   4.839   4.556   3.711
 4955WAT    EPW20542   4.876   4.585   3.648
 4956WAT      O20543   5.387   3.528   2.477
 4956WAT     H120544   5.408   3.508   2.559
 4956WAT     H220545   5.462   3.555   2.443
 4956WAT    EPW20546   5.401   3.529   2.484
 4957WAT      O20547   5.489   3.137   2.624
 4957WAT     H120548   5.418   3.090   2.642
 4957WAT     H220549   5.473   3.171   2.546
 4957WAT    EPW20550   5.476   3.135   2.615
 4958WAT      O20551   5.533   3.931   2.462
 4958WAT     H120552   5.581   3.858   2.458
 4958WAT     H220553   5.451   3.902   2.455
 4958WAT    EPW20554   5.528   3.916   2.461
 4959WAT      O20555   5.155   4.048   2.698
 4959WAT     H120556   5.163   4.082   2.778
 4959WAT     H220557   5.172   3.963   2.710
 4959WAT    EPW20558   5.159   4.040   2.712
 4960WAT      O20559   4.907   3.975   2.654
 4960WAT     H120560   4.877   3.944   2.730
 4960WAT     H220561   4.977   4.022   2.678
 4960WAT    EPW20562   4.913   3.977   2.669
 4961WAT      O20563   4.929   4.387   3.457
 4961WAT     H120564   4.998   4.376   3.510
 4961WAT     H220565   4.943   4.466   3.423
 4961WAT    EPW20566   4.941   4.397   3.460
 4962WAT      O20567   5.747   3.648   3.638
 4962WAT     H120568   5.661   3.636   3.651
 4962WAT     H220569   5.762   3.608   3.562
 4962WAT    EPW20570   5.737   3.640   3.629
 4963WAT      O20571   5.198   3.714   3.496
 4963WAT     H120572   5.173   3.642   3.538
 4963WAT     H220573   5.280   3.726   3.523
 4963WAT    EPW20574   5.207   3.705   3.506
 4964WAT      O20575   4.140   4.693   3.622
 4964WAT     H120576   4.074   4.636   3.632
 4964WAT     H220577   4.102   4.770   3.637
 4964WAT    EPW20578   4.125   4.696   3.626
 4965WAT      O20579   4.992   3.833   3.815
 4965WAT     H120580   5.024   3.902   3.771
 4965WAT     H220581   4.921   3.866   3.855
 4965WAT    EPW20582   4.986   3.848   3.814
 4966WAT      O20583   5.300   4.671   2.907
 4966WAT     H120584   5.255   4.735   2.945
 4966WAT     H220585   5.371   4.663   2.958
 4966WAT    EPW20586   5.304   4.679   2.921
 4967WAT      O20587   5.508   4.439   3.858
 4967WAT     H120588   5.585   4.400   3.867
 4967WAT     H220589   5.461   4.405   3.924
 4967WAT    EPW20590   5.512   4.428   3.869
 4968WAT      O20591   5.610   3.642   2.407
 4968WAT     H120592   5.621   3.637   2.320
 4968WAT     H220593   5.684   3.609   2.438
 4968WAT    EPW20594   5.623   3.637   2.399
 4969WAT      O20595   5.002   4.339   2.517
 4969WAT     H120596   4.982   4.422   2.501
 4969WAT     H220597   4.925   4.301   2.530
 4969WAT    EPW20598   4.988   4.346   2.517
 4970WAT      O20599   5.521   3.657   3.342
 4970WAT     H120600   5.520   3.571   3.355
 4970WAT     H220601   5.527   3.689   3.423
 4970WAT    EPW20602   5.522   3.649   3.356
 4971WAT      O20603   5.108   3.137   3.720
 4971WAT     H120604   5.118   3.208   3.770
 4971WAT     H220605   5.045   3.092   3.760
 4971WAT    EPW20606   5.100   3.141   3.734
 4972WAT      O20607   4.539   4.365   2.158
 4972WAT     H120608   4.583   4.373   2.233
 4972WAT     H220609   4.458   4.343   2.184
 4972WAT    EPW20610   4.533   4.363   2.173
 4973WAT      O20611   5.368   3.208   3.086
 4973WAT     H120612   5.453   3.217   3.100
 4973WAT     H220613   5.331   3.263   3.142
 4973WAT    EPW20614   5.375   3.217   3.096
 4974WAT      O20615   5.398   3.736   2.935
 4974WAT     H120616   5.465   3.790   2.951
 4974WAT     H220617   5.364   3.767   2.861
 4974WAT    EPW20618   5.403   3.748   2.926
 4975WAT      O20619   5.429   4.542   2.516
 4975WAT     H120620   5.412   4.477   2.571
 4975WAT     H220621   5.501   4.515   2.473
 4975WAT    EPW20622   5.437   4.528   2.518
 4976WAT      O20623   4.271   4.272   2.218
 4976WAT     H120624   4.247   4.241   2.296
 4976WAT     H220625   4.268   4.202   2.167
 4976WAT    EPW20626   4.267   4.257   2.222
 4977WAT      O20627   4.553   4.097   2.093
 4977WAT     H120628   4.472   4.070   2.107
 4977WAT     H220629   4.551   4.182   2.111
 4977WAT    EPW20630   4.541   4.105   2.097
 4978WAT      O20631   5.715   2.991   3.401
 4978WAT     H120632   5.710   2.987   3.488
 4978WAT     H220633   5.784   2.941   3.382
 4978WAT    EPW20634   5.725   2.983   3.411
 4979WAT      O20635   5.678   4.151   3.231
 4979WAT     H120636   5.675   4.065   3.217
 4979WAT     H220637   5.609   4.182   3.187
 4979WAT    EPW20638   5.667   4.143   3.222
 4980WAT      O20639   4.517   4.671   3.651
 4980WAT     H120640   4.522   4.684   3.737
 4980WAT     H220641   4.583   4.615   3.636
 4980WAT    EPW20642   4.528   4.665   3.662
 4981WAT      O20643   5.489   4.477   3.110
 4981WAT     H120644   5.541   4.469   3.041
 4981WAT     H220645   5.449   4.400   3.116
 4981WAT    EPW20646   5.491   4.465   3.101
 4982WAT      O20647   5.140   3.022   3.031
 4982WAT     H120648   5.207   3.076   3.044
 4982WAT     H220649   5.090   3.064   2.974
 4982WAT    EPW20650   5.142   3.036   3.024
 4983WAT      O20651   4.277   4.509   3.787
 4983WAT     H120652   4.336   4.553   3.834
 4983WAT     H220653   4.240   4.572   3.738
 4983WAT    EPW20654   4.280   4.525   3.787
 4984WAT      O20655   5.076   3.603   2.780
 4984WAT     H120656   5.131   3.542   2.810
 4984WAT     H220657   5.033   3.629   2.852
 4984WAT    EPW20658   5.078   3.597   2.795
 4985WAT      O20659   5.273   3.786   2.437
 4985WAT     H120660   5.280   3.701   2.455
 4985WAT     H220661   5.191   3.794   2.409
 4985WAT    EPW20662   5.262   3.774   2.435
 4986WAT      O20663   4.248   4.635   2.358
 4986WAT     H120664   4.234   4.651   2.273
 4986WAT     H220665   4.335   4.643   2.365
 4986WAT    EPW20666   4.259   4.639   2.346
 4987WAT      O20667   4.665   3.875   2.330
 4987WAT     H120668   4.675   3.889   2.245
 4987WAT     H220669   4.747   3.869   2.360
 4987WAT    EPW20670   4.678   3.876   2.322
 4988WAT      O20671   5.581   4.681   2.078
 4988WAT     H120672   5.644   4.668   2.136
 4988WAT     H220673   5.547   4.602   2.067
 4988WAT    EPW20674   5.585   4.667   2.085
 4989WAT      O20675   5.600   3.923   3.752
 4989WAT     H120676   5.664   3.906   3.809
 4989WAT     H220677   5.642   3.963   3.686
 4989WAT    EPW20678   5.616   3.926   3.751
 4990WAT      O20679   5.188   4.308   2.311
 4990WAT     H120680   5.163   4.295   2.393
 4990WAT     H220681   5.157   4.238   2.268
 4990WAT    EPW20682   5.180   4.296   2.317
 4991WAT      O20683   5.663   3.379   3.825
 4991WAT     H120684   5.643   3.444   3.881
 4991WAT     H220685   5.591   3.330   3.825
 4991WAT    EPW20686   5.649   3.382   3.834
 4992WAT      O20687   5.653   3.473   3.123
 4992WAT     H120688   5.569   3.498   3.115
 4992WAT     H220689   5.647   3.389   3.145
 4992WAT    EPW20690   5.640   3.465   3.125
 4993WAT      O20691   5.341   3.934   3.887
 4993WAT     H120692   5.428   3.930   3.884
 4993WAT     H220693   5.319   3.976   3.814
 4993WAT    EPW20694   5.351   3.940   3.876
 4994WAT      O20695   4.877   4.128   2.254
 4994WAT     H120696   4.949   4.094   2.218
 4994WAT     H220697   4.873   4.208   2.219
 4994WAT    EPW20698   4.887   4.135   2.243
 4995WAT      O20699   5.018   2.993   0.677
 4995WAT     H120700   4.993   3.041   0.609
 4995WAT     H220701   5.104   2.985   0.667
 4995WAT    EPW20702   5.027   2.999   0.666
 4996WAT      O20703   4.999   3.684   1.145
 4996WAT     H120704   4.946   3.744   1.181
 4996WAT     H220705   5.038   3.647   1.213
 4996WAT    EPW20706   4.997   3.688   1.160
 4997WAT      O20707   3.986   4.098   0.690
 4997WAT     H120708   3.941   4.110   0.764
 4997WAT     H220709   3.957   4.021   0.662
 4997WAT    EPW20710   3.975   4.088   0.697
 4998WAT      O20711   5.613   4.428   0.442
 4998WAT     H120712   5.683   4.376   0.441
 4998WAT     H220713   5.554   4.384   0.395
 4998WAT    EPW20714   5.615   4.414   0.435
 4999WAT      O20715   3.960   3.477   0.341
 4999WAT     H120716   3.882   3.494   0.305
 4999WAT     H220717   3.964   3.390   0.343
 4999WAT    EPW20718   3.949   3.467   0.336
 5000WAT      O20719   4.274   4.004   0.208
 5000WAT     H120720   4.235   3.967   0.139
 5000WAT     H220721   4.266   3.944   0.271
 5000WAT    EPW20722   4.267   3.989   0.207
 5001WAT      O20723   5.266   3.791   0.812
 5001WAT     H120724   5.274   3.791   0.725
 5001WAT     H220725   5.207   3.728   0.827
 5001WAT    EPW20726   5.258   3.782   0.802
 5002WAT      O20727   4.236   4.168   0.598
 5002WAT     H120728   4.297   4.151   0.658
 5002WAT     H220729   4.161   4.154   0.640
 5002WAT    EPW20730   4.234   4.163   0.613
 5003WAT      O20731   4.665   3.101   0.593
 5003WAT     H120732   4.658   3.169   0.538
 5003WAT     H220733   4.739   3.062   0.568
 5003WAT    EPW20734   4.675   3.106   0.581
 5004WAT      O20735   4.126   4.477   0.206
 5004WAT     H120736   4.172   4.485   0.133
 5004WAT     H220737   4.171   4.419   0.253
 5004WAT    EPW20738   4.139   4.470   0.202
 5005WAT      O20739   3.980   4.372   1.316
 5005WAT     H120740   3.992   4.344   1.397
 5005WAT     H220741   3.919   4.318   1.285
 5005WAT    EPW20742   3.972   4.360   1.323
 5006WAT      O20743   4.637   4.124   1.822
 5006WAT     H120744   4.613   4.124   1.906
 5006WAT     H220745   4.562   4.109   1.780
 5006WAT    EPW20746   4.622   4.122   1.828
 5007WAT      O20747   4.124   3.824   0.736
 5007WAT     H120748   4.078   3.785   0.673
 5007WAT     H220749   4.194   3.772   0.745
 5007WAT    EPW20750   4.128   3.810   0.728
 5008WAT      O20751   4.575   3.385   1.271
 5008WAT     H120752   4.643   3.387   1.216
 5008WAT     H220753   4.570   3.301   1.295
 5008WAT    EPW20754   4.584   3.373   1.266
 5009WAT      O20755   4.635   4.443   1.549
 5009WAT     H120756   4.649   4.519   1.508
 5009WAT     H220757   4.714   4.407   1.551
 5009WAT    EPW20758   4.649   4.449   1.543
 5010WAT      O20759   4.324   3.634   0.738
 5010WAT     H120760   4.406   3.615   0.762
 5010WAT     H220761   4.277   3.572   0.778
 5010WAT    EPW20762   4.329   3.622   0.748
 5011WAT      O20763   4.745   4.232   0.999
 5011WAT     H120764   4.779   4.152   1.002
 5011WAT     H220765   4.811   4.282   0.974
 5011WAT    EPW20766   4.760   4.227   0.996
 5012WAT      O20767   4.750   4.177   0.620
 5012WAT     H120768   4.783   4.112   0.669
 5012WAT     H220769   4.774   4.156   0.539
 5012WAT    EPW20770   4.759   4.164   0.615
 5013WAT      O20771   4.947   3.590   1.754
 5013WAT     H120772   4.862   3.580   1.736
 5013WAT     H220773   4.950   3.664   1.800
 5013WAT    EPW20774   4.935   3.599   1.758
 5014WAT      O20775   4.384   3.143   0.665
 5014WAT     H120776   4.354   3.193   0.600
 5014WAT     H220777   4.471   3.151   0.659
 5014WAT    EPW20778   4.392   3.152   0.654
 5015WAT      O20779   5.403   2.886   1.666
 5015WAT     H120780   5.387   2.963   1.627
 5015WAT     H220781   5.326   2.864   1.700
 5015WAT    EPW20782   5.389   2.894   1.665
 5016WAT      O20783   4.682   3.057   0.887
 5016WAT     H120784   4.689   3.143   0.900
 5016WAT     H220785   4.678   3.050   0.800
 5016WAT    EPW20786   4.682   3.069   0.876
 5017WAT      O20787   3.970   3.600   1.037
 5017WAT     H120788   3.944   3.683   1.030
 5017WAT     H220789   3.903   3.562   1.079
 5017WAT    EPW20790   3.956   3.606   1.042
 5018WAT      O20791   3.961   4.571   0.827
 5018WAT     H120792   3.902   4.627   0.796
 5018WAT     H220793   4.003   4.544   0.756
 5018WAT    EPW20794   3.958   4.575   0.812
 5019WAT      O20795   4.545   4.355   0.575
 5019WAT     H120796   4.487   4.328   0.634
 5019WAT     H220797   4.607   4.294   0.578
 5019WAT    EPW20798   4.545   4.342   0.584
 5020WAT      O20799   5.159   4.584   0.327
 5020WAT     H120800   5.232   4.631   0.338
 5020WAT     H220801   5.182   4.505   0.355
 5020WAT    EPW20802   5.173   4.579   0.333
 5021WAT      O20803   4.976   4.623   0.526
 5021WAT     H120804   4.997   4.676   0.593
 5021WAT     H220805   5.053   4.606   0.488
 5021WAT    EPW20806   4.990   4.628   0.531
 5022WAT      O20807   4.115   4.438   0.620
 5022WAT     H120808   4.181   4.380   0.622
 5022WAT     H220809   4.154   4.513   0.598
 5022WAT    EPW20810   4.131   4.440   0.617
 5023WAT      O20811   5.689   3.347   0.746
 5023WAT     H120812   5.654   3.415   0.789
 5023WAT     H220813   5.625   3.287   0.748
 5023WAT    EPW20814   5.674   3.348   0.753
 5024WAT      O20815   5.220   4.624   1.357
 5024WAT     H120816   5.294   4.670   1.356
 5024WAT     H220817   5.208   4.603   1.273
 5024WAT    EPW20818   5.229   4.628   1.344
 5025WAT      O20819   4.197   4.287   0.970
 5025WAT     H120820   4.239   4.251   0.903
 5025WAT     H220821   4.229   4.244   1.039
 5025WAT    EPW20822   4.208   4.275   0.971
 5026WAT      O20823   4.520   4.572   0.900
 5026WAT     H120824   4.605   4.582   0.880
 5026WAT     H220825   4.490   4.654   0.907
 5026WAT    EPW20826   4.528   4.585   0.898
 5027WAT      O20827   4.841   3.019   1.831
 5027WAT     H120828   4.859   2.938   1.804
 5027WAT     H220829   4.827   3.063   1.757
 5027WAT    EPW20830   4.842   3.013   1.816
 5028WAT      O20831   4.901   3.511   0.709
 5028WAT     H120832   4.930   3.488   0.630
 5028WAT     H220833   4.974   3.519   0.755
 5028WAT    EPW20834   4.916   3.509   0.704
 5029WAT      O20835   4.973   3.545   0.221
 5029WAT     H120836   5.001   3.624   0.246
 5029WAT     H220837   4.895   3.562   0.184
 5029WAT    EPW20838   4.966   3.559   0.219
 5030WAT      O20839   5.377   4.743   0.367
 5030WAT     H120840   5.444   4.728   0.313
 5030WAT     H220841   5.413   4.734   0.446
 5030WAT    EPW20842   5.392   4.739   0.371
 5031WAT      O20843   5.656   3.180   1.283
 5031WAT     H120844   5.732   3.187   1.241
 5031WAT     H220845   5.662   3.102   1.323
 5031WAT    EPW20846   5.668   3.169   1.283
 5032WAT      O20847   5.145   4.343   1.727
 5032WAT     H120848   5.142   4.381   1.806
 5032WAT     H220849   5.231   4.339   1.710
 5032WAT    EPW20850   5.157   4.348   1.736
 5033WAT      O20851   4.859   4.362   0.202
 5033WAT     H120852   4.841   4.417   0.268
 5033WAT     H220853   4.936   4.391   0.172
 5033WAT    EPW20854   4.868   4.375   0.208
 5034WAT      O20855   5.210   3.152   0.308
 5034WAT     H120856   5.264   3.084   0.315
 5034WAT     H220857   5.216   3.192   0.385
 5034WAT    EPW20858   5.219   3.148   0.320
 5035WAT      O20859   4.005   3.269   0.565
 5035WAT     H120860   3.994   3.182   0.568
 5035WAT     H220861   3.958   3.298   0.632
 5035WAT    EPW20862   3.996   3.260   0.575
 5036WAT      O20863   4.219   4.510   1.386
 5036WAT     H120864   4.149   4.459   1.399
 5036WAT     H220865   4.245   4.489   1.305
 5036WAT    EPW20866   4.213   4.499   1.376
 5037WAT      O20867   4.935   3.390   0.439
 5037WAT     H120868   4.885   3.323   0.414
 5037WAT     H220869   4.941   3.440   0.368
 5037WAT    EPW20870   4.929   3.387   0.425
 5038WAT      O20871   4.990   4.659   1.477
 5038WAT     H120872   5.067   4.651   1.436
 5038WAT     H220873   4.932   4.647   1.413
 5038WAT    EPW20874   4.993   4.656   1.462
 5039WAT      O20875   4.935   3.084   0.428
 5039WAT     H120876   4.890   3.044   0.366
 5039WAT     H220877   5.013   3.099   0.391
 5039WAT    EPW20878   4.940   3.080   0.413
 5040WAT      O20879   5.618   4.719   0.767
 5040WAT     H120880   5.573   4.791   0.787
 5040WAT     H220881   5.557   4.662   0.743
 5040WAT    EPW20882   5.602   4.722   0.767
 5041WAT      O20883   4.795   3.320   0.880
 5041WAT     H120884   4.803   3.377   0.815
 5041WAT     H220885   4.807   3.370   0.951
 5041WAT    EPW20886   4.798   3.336   0.881
 5042WAT      O20887   5.318   4.304   0.722
 5042WAT     H120888   5.388   4.256   0.740
 5042WAT     H220889   5.252   4.247   0.726
 5042WAT    EPW20890   5.318   4.288   0.725
 5043WAT      O20891   4.355   4.395   1.643
 5043WAT     H120892   4.439   4.401   1.621
 5043WAT     H220893   4.352   4.435   1.720
 5043WAT    EPW20894   4.367   4.402   1.651
 5044WAT      O20895   4.256   2.903   0.715
 5044WAT     H120896   4.310   2.972   0.714
 5044WAT     H220897   4.256   2.875   0.632
 5044WAT    EPW20898   4.264   2.909   0.703
 5045WAT      O20899   4.552   3.946   1.118
 5045WAT     H120900   4.569   3.925   1.201
 5045WAT     H220901   4.486   3.893   1.096
 5045WAT    EPW20902   4.545   3.935   1.127
 5046WAT      O20903   5.174   3.337   1.469
 5046WAT     H120904   5.165   3.369   1.550
 5046WAT     H220905   5.115   3.274   1.465
 5046WAT    EPW20906   5.164   3.333   1.481
 5047WAT      O20907   4.627   3.940   1.377
 5047WAT     H120908   4.632   4.025   1.397
 5047WAT     H220909   4.598   3.903   1.450
 5047WAT    EPW20910   4.623   3.947   1.390
 5048WAT      O20911   5.244   4.009   1.290
 5048WAT     H120912   5.193   3.968   1.347
 5048WAT     H220913   5.232   4.094   1.308
 5048WAT    EPW20914   5.235   4.016   1.301
 5049WAT      O20915   5.300   2.932   0.753
 5049WAT     H120916   5.305   2.900   0.834
 5049WAT     H220917   5.332   2.867   0.703
 5049WAT    EPW20918   5.306   2.918   0.757
 5050WAT      O20919   3.909   4.377   1.998
 5050WAT     H120920   3.984   4.412   2.024
 5050WAT     H220921   3.926   4.292   1.992
 5050WAT    EPW20922   3.923   4.369   2.001
 5051WAT      O20923   5.546   3.355   1.584
 5051WAT     H120924   5.624   3.333   1.617
 5051WAT     H220925   5.499   3.377   1.654
 5051WAT    EPW20926   5.551   3.355   1.599
 5052WAT      O20927   4.301   3.284   0.881
 5052WAT     H120928   4.328   3.241   0.810
 5052WAT     H220929   4.283   3.220   0.938
 5052WAT    EPW20930   4.302   3.268   0.879
 5053WAT      O20931   5.570   4.053   0.302
 5053WAT     H120932   5.582   4.025   0.384
 5053WAT     H220933   5.650   4.055   0.269
 5053WAT    EPW20934   5.583   4.049   0.310
 5054WAT      O20935   4.283   4.026   0.835
 5054WAT     H120936   4.368   4.018   0.818
 5054WAT     H220937   4.248   3.958   0.794
 5054WAT    EPW20938   4.291   4.015   0.827
 5055WAT      O20939   4.160   4.699   0.959
 5055WAT     H120940   4.093   4.649   0.935
 5055WAT     H220941   4.200   4.717   0.884
 5055WAT    EPW20942   4.156   4.694   0.944
 5056WAT      O20943   4.115   3.394   1.189
 5056WAT     H120944   4.199   3.416   1.184
 5056WAT     H220945   4.076   3.451   1.136
 5056WAT    EPW20946   4.122   3.406   1.180
 5057WAT      O20947   5.793   4.504   1.728
 5057WAT     H120948   5.725   4.535   1.683
 5057WAT     H220949   5.756   4.458   1.792
 5057WAT    EPW20950   5.777   4.502   1.731
 5058WAT      O20951   5.359   3.707   0.261
 5058WAT     H120952   5.337   3.780   0.219
 5058WAT     H220953   5.314   3.712   0.336
 5058WAT    EPW20954   5.349   3.718   0.266
 5059WAT      O20955   4.520   4.027   0.659
 5059WAT     H120956   4.591   4.077   0.668
 5059WAT     H220957   4.542   3.970   0.596
 5059WAT    EPW20958   4.534   4.026   0.651
 5060WAT      O20959   5.778   3.193   0.206
 5060WAT     H120960   5.712   3.136   0.208
 5060WAT     H220961   5.759   3.244   0.138
 5060WAT    EPW20962   5.765   3.192   0.196
 5061WAT      O20963   3.936   4.191   0.991
 5061WAT     H120964   3.869   4.240   1.019
 5061WAT     H220965   4.004   4.246   0.994
 5061WAT    EPW20966   3.936   4.207   0.995
 5062WAT      O20967   5.810   3.631   1.462
 5062WAT     H120968   5.832   3.551   1.434
 5062WAT     H220969   5.725   3.637   1.443
 5062WAT    EPW20970   5.801   3.620   1.455
 5063WAT      O20971   3.942   3.860   0.501
 5063WAT     H120972   3.924   3.776   0.516
 5063WAT     H220973   4.008   3.856   0.444
 5063WAT    EPW20974   3.949   3.847   0.495
 5064WAT      O20975   5.578   3.149   0.434
 5064WAT     H120976   5.653   3.108   0.454
 5064WAT     H220977   5.604   3.220   0.392
 5064WAT    EPW20978   5.593   3.153   0.431
 5065WAT      O20979   4.972   4.397   0.892
 5065WAT     H120980   4.920   4.461   0.862
 5065WAT     H220981   5.003   4.361   0.819
 5065WAT    EPW20982   4.969   4.401   0.877
 5066WAT      O20983   3.959   4.276   0.459
 5066WAT     H120984   4.015   4.333   0.495
 5066WAT     H220985   3.936   4.225   0.525
 5066WAT    EPW20986   3.964   4.277   0.474
 5067WAT      O20987   4.380   4.176   1.168
 5067WAT     H120988   4.427   4.205   1.235
 5067WAT     H220989   4.437   4.128   1.122
 5067WAT    EPW20990   4.395   4.173   1.171
 5068WAT      O20991   5.223   3.378   0.941
 5068WAT     H120992   5.258   3.393   1.020
 5068WAT     H220993   5.178   3.304   0.953
 5068WAT    EPW20994   5.222   3.369   0.955
 5069WAT      O20995   3.942   4.121   0.222
 5069WAT     H120996   4.018   4.078   0.227
 5069WAT     H220997   3.944   4.174   0.291
 5069WAT    EPW20998   3.954   4.123   0.233
 5070WAT      O20999   4.036   3.943   1.022
 5070WAT     H121000   4.080   3.930   0.947
 5070WAT     H221001   4.016   4.028   1.019
 5070WAT    EPW21002   4.040   3.954   1.011
 5071WAT      O21003   4.671   3.300   0.387
 5071WAT     H121004   4.671   3.288   0.301
 5071WAT     H221005   4.653   3.384   0.396
 5071WAT    EPW21006   4.668   3.310   0.376
 5072WAT      O21007   5.576   4.542   1.537
 5072WAT     H121008   5.509   4.594   1.559
 5072WAT     H221009   5.583   4.552   1.450
 5072WAT    EPW21010   5.567   4.551   1.527
 5073WAT      O21011   4.445   4.295   0.850
 5073WAT     H121012   4.457   4.379   0.869
 5073WAT     H221013   4.512   4.255   0.890
 5073WAT    EPW21014   4.457   4.301   0.859
 5074WAT      O21015   4.306   3.583   0.350
 5074WAT     H121016   4.294   3.538   0.424
 5074WAT     H221017   4.248   3.549   0.295
 5074WAT    EPW21018   4.296   3.571   0.353
 5075WAT      O21019   4.323   3.766   1.010
 5075WAT     H121020   4.245   3.760   0.972
 5075WAT     H221021   4.330   3.691   1.054
 5075WAT    EPW21022   4.313   3.754   1.011
 5076WAT      O21023   4.366   3.740   1.357
 5076WAT     H121024   4.369   3.672   1.302
 5076WAT     H221025   4.301   3.789   1.326
 5076WAT    EPW21026   4.357   3.737   1.344
 5077WAT      O21027   5.356   3.511   1.197
 5077WAT     H121028   5.289   3.544   1.243
 5077WAT     H221029   5.374   3.574   1.140
 5077WAT    EPW21030   5.349   3.525   1.195
 5078WAT      O21031   4.776   4.617   1.296
 5078WAT     H121032   4.748   4.553   1.244
 5078WAT     H221033   4.755   4.690   1.253
 5078WAT    EPW21034   4.769   4.619   1.282
 5079WAT      O21035   5.020   3.101   1.540
 5079WAT     H121036   5.035   3.019   1.515
 5079WAT     H221037   5.058   3.107   1.618
 5079WAT    EPW21038   5.028   3.090   1.548
 5080WAT      O21039   5.175   3.308   0.548
 5080WAT     H121040   5.224   3.379   0.540
 5080WAT     H221041   5.096   3.334   0.522
 5080WAT    EPW21042   5.170   3.322   0.543
 5081WAT      O21043   5.306   4.096   1.739
 5081WAT     H121044   5.355   4.167   1.749
 5081WAT     H221045   5.346   4.053   1.674
 5081WAT    EPW21046   5.319   4.100   1.731
 5082WAT      O21047   4.736   4.380   1.857
 5082WAT     H121048   4.771   4.362   1.934
 5082WAT     H221049   4.692   4.307   1.837
 5082WAT    EPW21050   4.735   4.367   1.865
 5083WAT      O21051   4.833   3.455   1.120
 5083WAT     H121052   4.881   3.525   1.141
 5083WAT     H221053   4.870   3.390   1.165
 5083WAT    EPW21054   4.846   3.456   1.130
 5084WAT      O21055   5.052   3.772   0.348
 5084WAT     H121056   5.051   3.844   0.299
 5084WAT     H221057   4.988   3.785   0.405
 5084WAT    EPW21058   5.042   3.784   0.349
 5085WAT      O21059   5.549   4.159   0.746
 5085WAT     H121060   5.585   4.124   0.817
 5085WAT     H221061   5.548   4.093   0.689
 5085WAT    EPW21062   5.554   4.144   0.748
 5086WAT      O21063   5.154   4.465   1.130
 5086WAT     H121064   5.093   4.436   1.075
 5086WAT     H221065   5.208   4.510   1.079
 5086WAT    EPW21066   5.153   4.468   1.114
 5087WAT      O21067   5.155   4.150   1.070
 5087WAT     H121068   5.075   4.173   1.098
 5087WAT     H221069   5.181   4.091   1.129
 5087WAT    EPW21070   5.147   4.145   1.083
 5088WAT      O21071   4.544   4.632   0.515
 5088WAT     H121072   4.529   4.554   0.552
 5088WAT     H221073   4.613   4.617   0.464
 5088WAT    EPW21074   4.552   4.618   0.513
 5089WAT      O21075   4.511   3.006   0.314
 5089WAT     H121076   4.521   2.995   0.400
 5089WAT     H221077   4.440   3.056   0.307
 5089WAT    EPW21078   4.502   3.012   0.326
 5090WAT      O21079   4.773   4.583   0.355
 5090WAT     H121080   4.836   4.599   0.414
 5090WAT     H221081   4.777   4.652   0.302
 5090WAT    EPW21082   4.783   4.596   0.356
 5091WAT      O21083   5.481   3.950   1.555
 5091WAT     H121084   5.486   3.963   1.469
 5091WAT     H221085   5.556   3.982   1.585
 5091WAT    EPW21086   5.493   3.957   1.547
 5092WAT      O21087   5.100   4.485   1.983
 5092WAT     H121088   5.116   4.513   2.063
 5092WAT     H221089   5.126   4.551   1.932
 5092WAT    EPW21090   5.106   4.499   1.987
 5093WAT      O21091   5.584   2.980   1.854
 5093WAT     H121092   5.520   2.940   1.809
 5093WAT     H221093   5.587   2.937   1.929
 5093WAT    EPW21094   5.575   2.968   1.858
 5094WAT      O21095   4.223   3.837   0.438
 5094WAT     H121096   4.256   3.759   0.416
 5094WAT     H221097   4.288   3.873   0.484
 5094WAT    EPW21098   4.238   3.830   0.442
 5095WAT      O21099   5.054   3.931   1.515
 5095WAT     H121100   5.039   3.992   1.575
 5095WAT     H221101   5.107   3.875   1.555
 5095WAT    EPW21102   5.060   3.932   1.530
 5096WAT      O21103   3.923   3.003   0.535
 5096WAT     H121104   3.936   2.932   0.486
 5096WAT     H221105   3.886   2.971   0.607
 5096WAT    EPW21106   3.920   2.987   0.538
 5097WAT      O21107   4.892   3.771   0.581
 5097WAT     H121108   4.898   3.836   0.639
 5097WAT     H221109   4.874   3.701   0.630
 5097WAT    EPW21110   4.891   3.770   0.596
 5098WAT      O21111   5.415   4.204   1.168
 5098WAT     H121112   5.367   4.233   1.101
 5098WAT     H221113   5.379   4.126   1.185
 5098WAT    EPW21114   5.403   4.197   1.160
 5099WAT      O21115   4.342   3.222   0.232
 5099WAT     H121116   4.291   3.228   0.161
 5099WAT     H221117   4.420   3.246   0.202
 5099WAT    EPW21118   4.346   3.227   0.217
 5100WAT      O21119   4.815   3.975   1.024
 5100WAT     H121120   4.730   3.956   1.032
 5100WAT     H221121   4.847   3.959   1.103
 5100WAT    EPW21122   4.807   3.970   1.037
 5101WAT      O21123   4.200   3.945   1.255
 5101WAT     H121124   4.272   3.994   1.252
 5101WAT     H221125   4.173   3.942   1.172
 5101WAT    EPW21126   4.206   3.952   1.243
 5102WAT      O21127   4.523   3.462   0.929
 5102WAT     H121128   4.607   3.443   0.939
 5102WAT     H221129   4.486   3.384   0.915
 5102WAT    EPW21130   4.530   3.448   0.928
 5103WAT      O21131   5.784   4.620   0.362
 5103WAT     H121132   5.854   4.574   0.337
 5103WAT     H221133   5.730   4.560   0.395
 5103WAT    EPW21134   5.787   4.604   0.363
 5104WAT      O21135   4.005   3.596   0.594
 5104WAT     H121136   4.054   3.566   0.660
 5104WAT     H221137   4.018   3.536   0.532
 5104WAT    EPW21138   4.014   3.583   0.595
 5105WAT      O21139   5.508   3.898   1.279
 5105WAT     H121140   5.507   3.820   1.319
 5105WAT     H221141   5.424   3.921   1.279
 5105WAT    EPW21142   5.496   3.890   1.285
 5106WAT      O21143   4.139   4.050   1.683
 5106WAT     H121144   4.097   3.998   1.627
 5106WAT     H221145   4.104   4.129   1.669
 5106WAT    EPW21146   4.128   4.054   1.673
 5107WAT      O21147   5.634   3.905   1.023
 5107WAT     H121148   5.605   3.945   1.095
 5107WAT     H221149   5.720   3.899   1.036
 5107WAT    EPW21150   5.642   3.910   1.036
 5108WAT      O21151   4.603   3.585   0.414
 5108WAT     H121152   4.630   3.668   0.421
 5108WAT     H221153   4.516   3.593   0.404
 5108WAT    EPW21154   4.594   3.598   0.413
 5109WAT      O21155   5.400   3.297   1.877
 5109WAT     H121156   5.347   3.343   1.930
 5109WAT     H221157   5.364   3.218   1.877
 5109WAT    EPW21158   5.387   3.292   1.885
 5110WAT      O21159   3.951   3.182   1.068
 5110WAT     H121160   3.955   3.217   0.987
 5110WAT     H221161   4.026   3.206   1.104
 5110WAT    EPW21162   3.962   3.191   1.061
 5111WAT      O21163   5.747   4.468   1.076
 5111WAT     H121164   5.776   4.494   0.998
 5111WAT     H221165   5.816   4.478   1.128
 5111WAT    EPW21166   5.761   4.473   1.072
 5112WAT      O21167   5.249   3.654   1.885
 5112WAT     H121168   5.256   3.665   1.971
 5112WAT     H221169   5.186   3.710   1.863
 5112WAT    EPW21170   5.241   3.664   1.894
 5113WAT      O21171   5.476   3.686   1.721
 5113WAT     H121172   5.508   3.765   1.742
 5113WAT     H221173   5.439   3.659   1.796
 5113WAT    EPW21174   5.475   3.694   1.735
 5114WAT      O21175   5.407   4.329   0.274
 5114WAT     H121176   5.441   4.248   0.278
 5114WAT     H221177   5.332   4.321   0.317
 5114WAT    EPW21178   5.401   4.316   0.281
 5115WAT      O21179   5.456   3.512   0.840
 5115WAT     H121180   5.381   3.480   0.872
 5115WAT     H221181   5.456   3.595   0.868
 5115WAT    EPW21182   5.445   3.519   0.849
 5116WAT      O21183   5.746   3.740   1.995
 5116WAT     H121184   5.741   3.706   1.915
 5116WAT     H221185   5.819   3.787   1.993
 5116WAT    EPW21186   5.756   3.742   1.983
 5117WAT      O21187   5.700   4.108   1.615
 5117WAT     H121188   5.762   4.053   1.590
 5117WAT     H221189   5.693   4.164   1.549
 5117WAT    EPW21190   5.708   4.108   1.602
 5118WAT      O21191   5.145   4.116   0.215
 5118WAT     H121192   5.213   4.065   0.198
 5118WAT     H221193   5.103   4.121   0.138
 5118WAT    EPW21194   5.149   4.109   0.201
 5119WAT      O21195   4.613   4.231   1.345
 5119WAT     H121196   4.583   4.290   1.402
 5119WAT     H221197   4.618   4.275   1.270
 5119WAT    EPW21198   4.609   4.246   1.342
 5120WAT      O21199   4.411   4.126   1.685
 5120WAT     H121200   4.330   4.097   1.701
 5120WAT     H221201   4.402   4.213   1.685
 5120WAT    EPW21202   4.398   4.135   1.687
 5121WAT      O21203   5.347   3.145   1.586
 5121WAT     H121204   5.421   3.190   1.580
 5121WAT     H221205   5.290   3.192   1.539
 5121WAT    EPW21206   5.349   3.159   1.578
 5122WAT      O21207   4.865   3.873   1.294
 5122WAT     H121208   4.912   3.911   1.357
 5122WAT     H221209   4.782   3.887   1.320
 5122WAT    EPW21210   4.859   3.881   1.307
 5123WAT      O21211   4.536   3.434   1.568
 5123WAT     H121212   4.552   3.359   1.611
 5123WAT     H221213   4.531   3.409   1.485
 5123WAT    EPW21214   4.537   3.419   1.562
 5124WAT      O21215   4.791   4.613   0.817
 5124WAT     H121216   4.846   4.681   0.822
 5124WAT     H221217   4.756   4.621   0.737
 5124WAT    EPW21218   4.794   4.624   0.806
 5125WAT      O21219   4.711   3.014   1.556
 5125WAT     H121220   4.781   3.046   1.516
 5125WAT     H221221   4.735   2.934   1.579
 5125WAT    EPW21222   4.725   3.007   1.554
 5126WAT      O21223   4.609   4.435   1.156
 5126WAT     H121224   4.547   4.494   1.138
 5126WAT     H221225   4.634   4.407   1.077
 5126WAT    EPW21226   4.604   4.440   1.141
 5127WAT      O21227   5.040   4.099   1.855
 5127WAT     H121228   5.116   4.127   1.822
 5127WAT     H221229   4.985   4.104   1.787
 5127WAT    EPW21230   5.043   4.104   1.840
 5128WAT      O21231   5.431   4.354   1.705
 5128WAT     H121232   5.466   4.381   1.780
 5128WAT     H221233   5.460   4.412   1.647
 5128WAT    EPW21234   5.441   4.366   1.708
 5129WAT      O21235   5.617   3.568   0.239
 5129WAT     H121236   5.655   3.636   0.199
 5129WAT     H221237   5.533   3.591   0.242
 5129WAT    EPW21238   5.610   3.582   0.233
 5130WAT      O21239   4.362   3.520   1.162
 5130WAT     H121240   4.406   3.509   1.088
 5130WAT     H221241   4.416   3.488   1.223
 5130WAT    EPW21242   4.376   3.514   1.160
 5131WAT      O21243   5.163   3.430   1.721
 5131WAT     H121244   5.098   3.477   1.756
 5131WAT     H221245   5.220   3.421   1.787
 5131WAT    EPW21246   5.162   3.436   1.736
 5132WAT      O21247   5.132   3.584   1.351
 5132WAT     H121248   5.162   3.626   1.422
 5132WAT     H221249   5.136   3.500   1.374
 5132WAT    EPW21250   5.137   3.577   1.365
 5133WAT      O21251   4.875   4.600   1.744
 5133WAT     H121252   4.922   4.540   1.702
 5133WAT     H221253   4.839   4.556   1.810
 5133WAT    EPW21254   4.876   4.585   1.747
 5134WAT      O21255   5.387   3.528   0.576
 5134WAT     H121256   5.408   3.508   0.659
 5134WAT     H221257   5.462   3.555   0.542
 5134WAT    EPW21258   5.401   3.529   0.584
 5135WAT      O21259   4.716   3.018   1.167
 5135WAT     H121260   4.634   3.003   1.191
 5135WAT     H221261   4.712   3.022   1.080
 5135WAT    EPW21262   4.704   3.017   1.158
 5136WAT      O21263   5.489   3.137   0.724
 5136WAT     H121264   5.418   3.090   0.741
 5136WAT     H221265   5.473   3.171   0.645
 5136WAT    EPW21266   5.476   3.135   0.715
 5137WAT      O21267   5.533   3.931   0.562
 5137WAT     H121268   5.581   3.858   0.557
 5137WAT     H221269   5.451   3.902   0.554
 5137WAT    EPW21270   5.528   3.916   0.560
 5138WAT      O21271   4.880   4.122   1.646
 5138WAT     H121272   4.801   4.116   1.681
 5138WAT     H221273   4.888   4.207   1.626
 5138WAT    EPW21274   4.870   4.134   1.648
 5139WAT      O21275   4.463   4.743   1.177
 5139WAT     H121276   4.465   4.749   1.264
 5139WAT     H221277   4.421   4.668   1.162
 5139WAT    EPW21278   4.457   4.733   1.188
 5140WAT      O21279   4.279   3.332   0.493
 5140WAT     H121280   4.292   3.300   0.413
 5140WAT     H221281   4.198   3.308   0.513
 5140WAT    EPW21282   4.269   3.324   0.484
 5141WAT      O21283   5.155   4.048   0.797
 5141WAT     H121284   5.163   4.082   0.877
 5141WAT     H221285   5.172   3.963   0.809
 5141WAT    EPW21286   5.159   4.040   0.811
 5142WAT      O21287   4.907   3.975   0.754
 5142WAT     H121288   4.877   3.944   0.830
 5142WAT     H221289   4.977   4.022   0.777
 5142WAT    EPW21290   4.913   3.977   0.769
 5143WAT      O21291   4.929   4.387   1.557
 5143WAT     H121292   4.998   4.376   1.609
 5143WAT     H221293   4.943   4.466   1.522
 5143WAT    EPW21294   4.941   4.397   1.559
 5144WAT      O21295   5.747   3.648   1.738
 5144WAT     H121296   5.661   3.636   1.750
 5144WAT     H221297   5.762   3.608   1.661
 5144WAT    EPW21298   5.737   3.640   1.728
 5145WAT      O21299   5.198   3.714   1.595
 5145WAT     H121300   5.173   3.642   1.637
 5145WAT     H221301   5.280   3.726   1.622
 5145WAT    EPW21302   5.207   3.705   1.605
 5146WAT      O21303   4.140   4.693   1.722
 5146WAT     H121304   4.074   4.636   1.731
 5146WAT     H221305   4.102   4.770   1.737
 5146WAT    EPW21306   4.125   4.696   1.725
 5147WAT      O21307   4.992   3.833   1.914
 5147WAT     H121308   5.024   3.902   1.871
 5147WAT     H221309   4.921   3.866   1.954
 5147WAT    EPW21310   4.986   3.848   1.913
 5148WAT      O21311   5.300   4.671   1.007
 5148WAT     H121312   5.255   4.735   1.045
 5148WAT     H221313   5.371   4.663   1.057
 5148WAT    EPW21314   5.304   4.679   1.020
 5149WAT      O21315   4.970   4.180   1.300
 5149WAT     H121316   4.901   4.220   1.334
 5149WAT     H221317   5.038   4.223   1.334
 5149WAT    EPW21318   4.970   4.192   1.310
 5150WAT      O21319   5.508   4.439   1.958
 5150WAT     H121320   5.585   4.400   1.966
 5150WAT     H221321   5.461   4.405   2.023
 5150WAT    EPW21322   5.512   4.428   1.969
 5151WAT      O21323   4.277   3.534   1.535
 5151WAT     H121324   4.314   3.595   1.486
 5151WAT     H221325   4.344   3.486   1.563
 5151WAT    EPW21326   4.292   3.536   1.532
 5152WAT      O21327   5.610   3.642   0.506
 5152WAT     H121328   5.621   3.637   0.420
 5152WAT     H221329   5.684   3.609   0.538
 5152WAT    EPW21330   5.623   3.637   0.498
 5153WAT      O21331   4.310   3.119   1.703
 5153WAT     H121332   4.302   3.035   1.724
 5153WAT     H221333   4.278   3.124   1.622
 5153WAT    EPW21334   4.304   3.108   1.694
 5154WAT      O21335   5.002   4.339   0.617
 5154WAT     H121336   4.982   4.422   0.601
 5154WAT     H221337   4.925   4.301   0.629
 5154WAT    EPW21338   4.988   4.346   0.616
 5155WAT      O21339   5.521   3.657   1.442
 5155WAT     H121340   5.520   3.571   1.454
 5155WAT     H221341   5.527   3.689   1.522
 5155WAT    EPW21342   5.522   3.649   1.455
 5156WAT      O21343   3.994   3.901   1.484
 5156WAT     H121344   4.026   3.923   1.406
 5156WAT     H221345   3.984   3.814   1.479
 5156WAT    EPW21346   3.997   3.891   1.472
 5157WAT      O21347   5.108   3.137   1.820
 5157WAT     H121348   5.118   3.208   1.869
 5157WAT     H221349   5.045   3.092   1.860
 5157WAT    EPW21350   5.100   3.141   1.833
 5158WAT      O21351   5.008   3.156   0.905
 5158WAT     H121352   4.938   3.208   0.900
 5158WAT     H221353   5.012   3.118   0.827
 5158WAT    EPW21354   4.998   3.158   0.893
 5159WAT      O21355   4.539   4.365   0.258
 5159WAT     H121356   4.583   4.373   0.332
 5159WAT     H221357   4.458   4.343   0.283
 5159WAT    EPW21358   4.533   4.363   0.273
 5160WAT      O21359   5.368   3.208   1.185
 5160WAT     H121360   5.453   3.217   1.200
 5160WAT     H221361   5.331   3.263   1.242
 5160WAT    EPW21362   5.375   3.217   1.196
 5161WAT      O21363   4.470   3.830   1.623
 5161WAT     H121364   4.431   3.908   1.630
 5161WAT     H221365   4.430   3.793   1.555
 5161WAT    EPW21366   4.459   3.836   1.614
 5162WAT      O21367   5.398   3.736   1.034
 5162WAT     H121368   5.465   3.790   1.050
 5162WAT     H221369   5.364   3.767   0.960
 5162WAT    EPW21370   5.403   3.748   1.026
 5163WAT      O21371   5.429   4.542   0.615
 5163WAT     H121372   5.412   4.477   0.670
 5163WAT     H221373   5.501   4.515   0.573
 5163WAT    EPW21374   5.437   4.528   0.617
 5164WAT      O21375   4.271   4.272   0.318
 5164WAT     H121376   4.247   4.241   0.396
 5164WAT     H221377   4.268   4.202   0.266
 5164WAT    EPW21378   4.267   4.257   0.322
 5165WAT      O21379   4.553   4.097   0.192
 5165WAT     H121380   4.472   4.070   0.206
 5165WAT     H221381   4.551   4.182   0.211
 5165WAT    EPW21382   4.541   4.105   0.197
 5166WAT      O21383   4.513   3.128   1.368
 5166WAT     H121384   4.427   3.136   1.376
 5166WAT     H221385   4.535   3.076   1.435
 5166WAT    EPW21386   4.504   3.122   1.379
 5167WAT      O21387   5.715   2.991   1.501
 5167WAT     H121388   5.710   2.987   1.588
 5167WAT     H221389   5.784   2.941   1.482
 5167WAT    EPW21390   5.725   2.983   1.511
 5168WAT      O21391   4.924   3.203   1.205
 5168WAT     H121392   4.850   3.157   1.217
 5168WAT     H221393   4.981   3.162   1.258
 5168WAT    EPW21394   4.921   3.190   1.215
 5169WAT      O21395   5.197   4.287   1.384
 5169WAT     H121396   5.217   4.318   1.463
 5169WAT     H221397   5.191   4.360   1.336
 5169WAT    EPW21398   5.199   4.303   1.389
 5170WAT      O21399   5.150   4.709   1.809
 5170WAT     H121400   5.075   4.707   1.765
 5170WAT     H221401   5.167   4.794   1.817
 5170WAT    EPW21402   5.142   4.721   1.803
 5171WAT      O21403   4.674   3.636   1.726
 5171WAT     H121404   4.642   3.578   1.669
 5171WAT     H221405   4.638   3.711   1.701
 5171WAT    EPW21406   4.664   3.638   1.714
 5172WAT      O21407   5.678   4.151   1.330
 5172WAT     H121408   5.675   4.065   1.316
 5172WAT     H221409   5.609   4.182   1.287
 5172WAT    EPW21410   5.667   4.143   1.322
 5173WAT      O21411   4.517   4.671   1.751
 5173WAT     H121412   4.522   4.684   1.837
 5173WAT     H221413   4.583   4.615   1.735
 5173WAT    EPW21414   4.528   4.665   1.761
 5174WAT      O21415   5.489   4.477   1.210
 5174WAT     H121416   5.541   4.469   1.141
 5174WAT     H221417   5.449   4.400   1.215
 5174WAT    EPW21418   5.491   4.465   1.200
 5175WAT      O21419   4.235   3.136   1.433
 5175WAT     H121420   4.201   3.059   1.409
 5175WAT     H221421   4.166   3.189   1.439
 5175WAT    EPW21422   4.220   3.133   1.430
 5176WAT      O21423   5.140   3.022   1.130
 5176WAT     H121424   5.207   3.076   1.143
 5176WAT     H221425   5.090   3.064   1.073
 5176WAT    EPW21426   5.142   3.036   1.124
 5177WAT      O21427   4.277   4.509   1.887
 5177WAT     H121428   4.336   4.553   1.934
 5177WAT     H221429   4.240   4.572   1.838
 5177WAT    EPW21430   4.280   4.525   1.886
 5178WAT      O21431   5.076   3.603   0.880
 5178WAT     H121432   5.131   3.542   0.910
 5178WAT     H221433   5.033   3.629   0.951
 5178WAT    EPW21434   5.078   3.597   0.895
 5179WAT      O21435   4.101   3.468   0.828
 5179WAT     H121436   4.064   3.498   0.901
 5179WAT     H221437   4.154   3.405   0.857
 5179WAT    EPW21438   4.103   3.463   0.843
 5180WAT      O21439   4.069   4.308   1.579
 5180WAT     H121440   4.012   4.350   1.630
 5180WAT     H221441   4.143   4.355   1.589
 5180WAT    EPW21442   4.072   4.321   1.588
 5181WAT      O21443   5.273   3.786   0.536
 5181WAT     H121444   5.280   3.701   0.554
 5181WAT     H221445   5.191   3.794   0.508
 5181WAT    EPW21446   5.262   3.774   0.535
 5182WAT      O21447   4.248   4.635   0.457
 5182WAT     H121448   4.234   4.651   0.372
 5182WAT     H221449   4.335   4.643   0.465
 5182WAT    EPW21450   4.259   4.639   0.446
 5183WAT      O21451   4.665   3.875   0.430
 5183WAT     H121452   4.675   3.889   0.344
 5183WAT     H221453   4.747   3.869   0.459
 5183WAT    EPW21454   4.678   3.876   0.421
 5184WAT      O21455   5.581   4.681   0.178
 5184WAT     H121456   5.644   4.668   0.236
 5184WAT     H221457   5.547   4.602   0.166
 5184WAT    EPW21458   5.585   4.667   0.185
 5185WAT      O21459   5.600   3.923   1.851
 5185WAT     H121460   5.664   3.906   1.908
 5185WAT     H221461   5.642   3.963   1.786
 5185WAT    EPW21462   5.616   3.926   1.850
 5186WAT      O21463   5.188   4.308   0.410
 5186WAT     H121464   5.163   4.295   0.493
 5186WAT     H221465   5.157   4.238   0.368
 5186WAT    EPW21466   5.180   4.296   0.416
 5187WAT      O21467   5.663   3.379   1.925
 5187WAT     H121468   5.643   3.444   1.980
 5187WAT     H221469   5.591   3.330   1.924
 5187WAT    EPW21470   5.649   3.382   1.933
 5188WAT      O21471   5.653   3.473   1.222
 5188WAT     H121472   5.569   3.498   1.215
 5188WAT     H221473   5.647   3.389   1.245
 5188WAT    EPW21474   5.640   3.465   1.224
 5189WAT      O21475   5.341   3.934   1.987
 5189WAT     H121476   5.428   3.930   1.983
 5189WAT     H221477   5.319   3.976   1.913
 5189WAT    EPW21478   5.351   3.940   1.975
 5190WAT      O21479   4.317   4.517   1.105
 5190WAT     H121480   4.309   4.436   1.073
 5190WAT     H221481   4.272   4.565   1.047
 5190WAT    EPW21482   4.309   4.512   1.092
 5191WAT      O21483   4.877   4.128   0.353
 5191WAT     H121484   4.949   4.094   0.317
 5191WAT     H221485   4.873   4.208   0.318
 5191WAT    EPW21486   4.887   4.135   0.343
 5192WAT      O21487   4.074   4.741   1.463
 5192WAT     H121488   4.123   4.735   1.535
 5192WAT     H221489   4.093   4.668   1.419
 5192WAT    EPW21490   4.084   4.729   1.467
 5193WAT      O21491   5.018   1.145   6.379
 5193WAT     H121492   4.993   1.194   6.311
 5193WAT     H221493   5.104   1.137   6.369
 5193WAT    EPW21494   5.027   1.151   6.368
 5194WAT      O21495   4.999   1.836   6.846
 5194WAT     H121496   4.946   1.896   6.883
 5194WAT     H221497   5.038   1.800   6.915
 5194WAT    EPW21498   4.997   1.840   6.862
 5195WAT      O21499   3.986   2.250   6.392
 5195WAT     H121500   3.941   2.262   6.466
 5195WAT     H221501   3.957   2.173   6.363
 5195WAT    EPW21502   3.975   2.241   6.399
 5196WAT      O21503   5.613   2.580   6.143
 5196WAT     H121504   5.683   2.529   6.143
 5196WAT     H221505   5.554   2.536   6.097
 5196WAT    EPW21506   5.615   2.566   6.136
 5197WAT      O21507   3.960   1.630   6.043
 5197WAT     H121508   3.882   1.646   6.007
 5197WAT     H221509   3.964   1.542   6.045
 5197WAT    EPW21510   3.949   1.619   6.038
 5198WAT      O21511   4.274   2.156   5.910
 5198WAT     H121512   4.235   2.119   5.841
 5198WAT     H221513   4.266   2.096   5.973
 5198WAT    EPW21514   4.267   2.142   5.909
 5199WAT      O21515   5.266   1.943   6.514
 5199WAT     H121516   5.274   1.943   6.427
 5199WAT     H221517   5.207   1.880   6.529
 5199WAT    EPW21518   5.258   1.934   6.503
 5200WAT      O21519   4.236   2.320   6.300
 5200WAT     H121520   4.297   2.303   6.360
 5200WAT     H221521   4.161   2.306   6.342
 5200WAT    EPW21522   4.234   2.315   6.315
 5201WAT      O21523   4.665   1.253   6.295
 5201WAT     H121524   4.658   1.321   6.240
 5201WAT     H221525   4.739   1.215   6.270
 5201WAT    EPW21526   4.675   1.258   6.283
 5202WAT      O21527   4.126   2.629   5.908
 5202WAT     H121528   4.172   2.637   5.834
 5202WAT     H221529   4.171   2.571   5.954
 5202WAT    EPW21530   4.139   2.622   5.904
 5203WAT      O21531   3.980   2.524   7.017
 5203WAT     H121532   3.992   2.496   7.099
 5203WAT     H221533   3.919   2.470   6.987
 5203WAT    EPW21534   3.972   2.512   7.025
 5204WAT      O21535   4.637   2.276   7.524
 5204WAT     H121536   4.613   2.276   7.608
 5204WAT     H221537   4.562   2.262   7.482
 5204WAT    EPW21538   4.622   2.274   7.530
 5205WAT      O21539   4.124   1.976   6.438
 5205WAT     H121540   4.078   1.937   6.375
 5205WAT     H221541   4.194   1.925   6.447
 5205WAT    EPW21542   4.128   1.963   6.430
 5206WAT      O21543   4.575   1.537   6.972
 5206WAT     H121544   4.643   1.539   6.917
 5206WAT     H221545   4.570   1.453   6.997
 5206WAT    EPW21546   4.584   1.525   6.968
 5207WAT      O21547   4.635   2.596   7.250
 5207WAT     H121548   4.649   2.672   7.210
 5207WAT     H221549   4.714   2.559   7.253
 5207WAT    EPW21550   4.649   2.601   7.245
 5208WAT      O21551   4.324   1.786   6.440
 5208WAT     H121552   4.406   1.767   6.464
 5208WAT     H221553   4.277   1.725   6.480
 5208WAT    EPW21554   4.329   1.774   6.449
 5209WAT      O21555   4.745   2.384   6.701
 5209WAT     H121556   4.779   2.304   6.704
 5209WAT     H221557   4.811   2.434   6.675
 5209WAT    EPW21558   4.760   2.380   6.698
 5210WAT      O21559   4.750   2.329   6.322
 5210WAT     H121560   4.783   2.265   6.371
 5210WAT     H221561   4.774   2.308   6.241
 5210WAT    EPW21562   4.759   2.316   6.317
 5211WAT      O21563   4.947   1.742   7.456
 5211WAT     H121564   4.862   1.732   7.438
 5211WAT     H221565   4.950   1.817   7.501
 5211WAT    EPW21566   4.935   1.752   7.460
 5212WAT      O21567   4.384   1.295   6.367
 5212WAT     H121568   4.354   1.345   6.302
 5212WAT     H221569   4.471   1.303   6.361
 5212WAT    EPW21570   4.392   1.304   6.356
 5213WAT      O21571   5.403   1.038   7.367
 5213WAT     H121572   5.387   1.115   7.329
 5213WAT     H221573   5.326   1.016   7.402
 5213WAT    EPW21574   5.389   1.046   7.367
 5214WAT      O21575   4.682   1.210   6.589
 5214WAT     H121576   4.689   1.296   6.602
 5214WAT     H221577   4.678   1.202   6.502
 5214WAT    EPW21578   4.682   1.221   6.578
 5215WAT      O21579   5.149   1.502   5.819
 5215WAT     H121580   5.104   1.570   5.849
 5215WAT     H221581   5.161   1.452   5.889
 5215WAT    EPW21582   5.144   1.505   5.834
 5216WAT      O21583   3.970   1.752   6.739
 5216WAT     H121584   3.944   1.835   6.731
 5216WAT     H221585   3.903   1.714   6.781
 5216WAT    EPW21586   3.956   1.759   6.744
 5217WAT      O21587   3.961   2.723   6.529
 5217WAT     H121588   3.902   2.779   6.498
 5217WAT     H221589   4.003   2.696   6.458
 5217WAT    EPW21590   3.958   2.727   6.514
 5218WAT      O21591   4.545   2.507   6.277
 5218WAT     H121592   4.487   2.480   6.336
 5218WAT     H221593   4.607   2.447   6.279
 5218WAT    EPW21594   4.545   2.494   6.286
 5219WAT      O21595   5.159   2.736   6.029
 5219WAT     H121596   5.232   2.783   6.039
 5219WAT     H221597   5.182   2.657   6.057
 5219WAT    EPW21598   5.173   2.732   6.035
 5220WAT      O21599   4.976   2.775   6.228
 5220WAT     H121600   4.997   2.828   6.294
 5220WAT     H221601   5.053   2.758   6.190
 5220WAT    EPW21602   4.990   2.781   6.232
 5221WAT      O21603   4.273   1.234   6.788
 5221WAT     H121604   4.221   1.171   6.757
 5221WAT     H221605   4.332   1.190   6.835
 5221WAT    EPW21606   4.274   1.218   6.790
 5222WAT      O21607   4.115   2.590   6.322
 5222WAT     H121608   4.181   2.533   6.324
 5222WAT     H221609   4.154   2.665   6.300
 5222WAT    EPW21610   4.131   2.593   6.319
 5223WAT      O21611   5.689   1.499   6.448
 5223WAT     H121612   5.654   1.567   6.491
 5223WAT     H221613   5.625   1.440   6.450
 5223WAT    EPW21614   5.674   1.501   6.455
 5224WAT      O21615   5.220   2.776   7.059
 5224WAT     H121616   5.294   2.822   7.058
 5224WAT     H221617   5.208   2.755   6.975
 5224WAT    EPW21618   5.229   2.780   7.046
 5225WAT      O21619   4.177   1.407   7.616
 5225WAT     H121620   4.099   1.368   7.609
 5225WAT     H221621   4.226   1.366   7.557
 5225WAT    EPW21622   4.172   1.395   7.606
 5226WAT      O21623   4.197   2.439   6.672
 5226WAT     H121624   4.239   2.403   6.605
 5226WAT     H221625   4.229   2.397   6.741
 5226WAT    EPW21626   4.208   2.427   6.672
 5227WAT      O21627   4.520   2.724   6.602
 5227WAT     H121628   4.605   2.734   6.582
 5227WAT     H221629   4.490   2.806   6.608
 5227WAT    EPW21630   4.528   2.738   6.600
 5228WAT      O21631   4.841   1.171   7.533
 5228WAT     H121632   4.859   1.090   7.506
 5228WAT     H221633   4.827   1.215   7.459
 5228WAT    EPW21634   4.842   1.166   7.518
 5229WAT      O21635   4.901   1.664   6.410
 5229WAT     H121636   4.930   1.640   6.331
 5229WAT     H221637   4.974   1.672   6.457
 5229WAT    EPW21638   4.916   1.661   6.406
 5230WAT      O21639   4.973   1.698   5.922
 5230WAT     H121640   5.001   1.776   5.947
 5230WAT     H221641   4.895   1.714   5.886
 5230WAT    EPW21642   4.966   1.712   5.921
 5231WAT      O21643   5.377   2.895   6.069
 5231WAT     H121644   5.444   2.880   6.015
 5231WAT     H221645   5.413   2.887   6.148
 5231WAT    EPW21646   5.392   2.892   6.073
 5232WAT      O21647   4.420   2.846   7.176
 5232WAT     H121648   4.449   2.839   7.258
 5232WAT     H221649   4.357   2.785   7.171
 5232WAT    EPW21650   4.415   2.836   7.187
 5233WAT      O21651   5.656   1.332   6.985
 5233WAT     H121652   5.732   1.339   6.942
 5233WAT     H221653   5.662   1.254   7.025
 5233WAT    EPW21654   5.668   1.321   6.985
 5234WAT      O21655   3.911   1.462   7.375
 5234WAT     H121656   3.911   1.520   7.439
 5234WAT     H221657   3.971   1.493   7.319
 5234WAT    EPW21658   3.920   1.475   7.376
 5235WAT      O21659   5.145   2.495   7.429
 5235WAT     H121660   5.142   2.533   7.507
 5235WAT     H221661   5.231   2.491   7.412
 5235WAT    EPW21662   5.157   2.500   7.438
 5236WAT      O21663   4.859   2.515   5.904
 5236WAT     H121664   4.841   2.569   5.970
 5236WAT     H221665   4.936   2.544   5.874
 5236WAT    EPW21666   4.868   2.527   5.909
 5237WAT      O21667   5.210   1.304   6.009
 5237WAT     H121668   5.264   1.236   6.017
 5237WAT     H221669   5.216   1.344   6.087
 5237WAT    EPW21670   5.219   1.300   6.022
 5238WAT      O21671   4.005   1.421   6.266
 5238WAT     H121672   3.994   1.335   6.269
 5238WAT     H221673   3.958   1.450   6.333
 5238WAT    EPW21674   3.996   1.413   6.277
 5239WAT      O21675   4.219   2.662   7.088
 5239WAT     H121676   4.149   2.611   7.100
 5239WAT     H221677   4.245   2.642   7.007
 5239WAT    EPW21678   4.213   2.652   7.078
 5240WAT      O21679   4.935   1.542   6.141
 5240WAT     H121680   4.885   1.476   6.115
 5240WAT     H221681   4.941   1.592   6.070
 5240WAT    EPW21682   4.929   1.540   6.127
 5241WAT      O21683   4.990   2.811   7.179
 5241WAT     H121684   5.067   2.803   7.138
 5241WAT     H221685   4.932   2.799   7.115
 5241WAT    EPW21686   4.993   2.808   7.163
 5242WAT      O21687   4.935   1.236   6.130
 5242WAT     H121688   4.890   1.196   6.067
 5242WAT     H221689   5.013   1.251   6.092
 5242WAT    EPW21690   4.940   1.232   6.115
 5243WAT      O21691   5.618   2.872   6.469
 5243WAT     H121692   5.573   2.943   6.489
 5243WAT     H221693   5.557   2.815   6.445
 5243WAT    EPW21694   5.602   2.874   6.468
 5244WAT      O21695   4.795   1.473   6.582
 5244WAT     H121696   4.803   1.529   6.516
 5244WAT     H221697   4.807   1.522   6.653
 5244WAT    EPW21698   4.798   1.488   6.583
 5245WAT      O21699   5.318   2.456   6.423
 5245WAT     H121700   5.388   2.408   6.442
 5245WAT     H221701   5.252   2.399   6.428
 5245WAT    EPW21702   5.318   2.441   6.427
 5246WAT      O21703   4.355   2.547   7.345
 5246WAT     H121704   4.439   2.553   7.322
 5246WAT     H221705   4.352   2.587   7.422
 5246WAT    EPW21706   4.367   2.554   7.353
 5247WAT      O21707   4.256   1.055   6.417
 5247WAT     H121708   4.310   1.124   6.416
 5247WAT     H221709   4.256   1.028   6.334
 5247WAT    EPW21710   4.264   1.061   6.405
 5248WAT      O21711   4.552   2.098   6.819
 5248WAT     H121712   4.569   2.077   6.902
 5248WAT     H221713   4.486   2.045   6.798
 5248WAT    EPW21714   4.545   2.087   6.829
 5249WAT      O21715   5.174   1.490   7.171
 5249WAT     H121716   5.165   1.522   7.252
 5249WAT     H221717   5.115   1.426   7.167
 5249WAT    EPW21718   5.164   1.485   7.182
 5250WAT      O21719   4.627   2.092   7.078
 5250WAT     H121720   4.632   2.177   7.099
 5250WAT     H221721   4.598   2.055   7.152
 5250WAT    EPW21722   4.623   2.099   7.092
 5251WAT      O21723   5.244   2.162   6.991
 5251WAT     H121724   5.193   2.120   7.049
 5251WAT     H221725   5.232   2.246   7.010
 5251WAT    EPW21726   5.235   2.168   7.003
 5252WAT      O21727   5.300   1.084   6.455
 5252WAT     H121728   5.305   1.052   6.536
 5252WAT     H221729   5.332   1.020   6.405
 5252WAT    EPW21730   5.306   1.070   6.459
 5253WAT      O21731   5.546   1.508   7.285
 5253WAT     H121732   5.624   1.485   7.319
 5253WAT     H221733   5.499   1.529   7.355
 5253WAT    EPW21734   5.551   1.508   7.301
 5254WAT      O21735   4.301   1.436   6.582
 5254WAT     H121736   4.328   1.393   6.512
 5254WAT     H221737   4.283   1.372   6.639
 5254WAT    EPW21738   4.302   1.420   6.580
 5255WAT      O21739   5.570   2.205   6.004
 5255WAT     H121740   5.582   2.177   6.086
 5255WAT     H221741   5.650   2.208   5.971
 5255WAT    EPW21742   5.583   2.202   6.011
 5256WAT      O21743   4.283   2.179   6.537
 5256WAT     H121744   4.368   2.171   6.520
 5256WAT     H221745   4.248   2.110   6.496
 5256WAT    EPW21746   4.291   2.167   6.529
 5257WAT      O21747   4.160   2.851   6.661
 5257WAT     H121748   4.093   2.801   6.636
 5257WAT     H221749   4.200   2.870   6.586
 5257WAT    EPW21750   4.156   2.847   6.646
 5258WAT      O21751   4.115   1.546   6.891
 5258WAT     H121752   4.199   1.568   6.886
 5258WAT     H221753   4.076   1.603   6.837
 5258WAT    EPW21754   4.122   1.558   6.882
 5259WAT      O21755   5.793   2.656   7.430
 5259WAT     H121756   5.725   2.687   7.385
 5259WAT     H221757   5.756   2.611   7.494
 5259WAT    EPW21758   5.777   2.654   7.432
 5260WAT      O21759   5.359   1.859   5.963
 5260WAT     H121760   5.337   1.932   5.920
 5260WAT     H221761   5.314   1.864   6.037
 5260WAT    EPW21762   5.349   1.871   5.967
 5261WAT      O21763   4.520   2.179   6.361
 5261WAT     H121764   4.591   2.229   6.370
 5261WAT     H221765   4.542   2.123   6.298
 5261WAT    EPW21766   4.534   2.178   6.353
 5262WAT      O21767   5.778   1.345   5.908
 5262WAT     H121768   5.712   1.288   5.910
 5262WAT     H221769   5.759   1.396   5.840
 5262WAT    EPW21770   5.765   1.344   5.898
 5263WAT      O21771   3.936   2.344   6.693
 5263WAT     H121772   3.869   2.392   6.720
 5263WAT     H221773   4.004   2.398   6.696
 5263WAT    EPW21774   3.936   2.359   6.697
 5264WAT      O21775   5.810   1.783   7.164
 5264WAT     H121776   5.832   1.703   7.136
 5264WAT     H221777   5.725   1.789   7.145
 5264WAT    EPW21778   5.801   1.772   7.157
 5265WAT      O21779   3.942   2.012   6.203
 5265WAT     H121780   3.924   1.928   6.218
 5265WAT     H221781   4.008   2.008   6.146
 5265WAT    EPW21782   3.949   1.999   6.197
 5266WAT      O21783   5.578   1.301   6.136
 5266WAT     H121784   5.653   1.260   6.156
 5266WAT     H221785   5.604   1.373   6.093
 5266WAT    EPW21786   5.593   1.306   6.133
 5267WAT      O21787   4.972   2.550   6.593
 5267WAT     H121788   4.920   2.613   6.564
 5267WAT     H221789   5.003   2.513   6.521
 5267WAT    EPW21790   4.969   2.554   6.578
 5268WAT      O21791   3.959   2.428   6.161
 5268WAT     H121792   4.015   2.485   6.197
 5268WAT     H221793   3.936   2.377   6.227
 5268WAT    EPW21794   3.964   2.429   6.176
 5269WAT      O21795   4.380   2.328   6.869
 5269WAT     H121796   4.427   2.357   6.937
 5269WAT     H221797   4.437   2.281   6.824
 5269WAT    EPW21798   4.395   2.326   6.873
 5270WAT      O21799   5.223   1.530   6.643
 5270WAT     H121800   5.258   1.545   6.722
 5270WAT     H221801   5.178   1.456   6.654
 5270WAT    EPW21802   5.222   1.521   6.656
 5271WAT      O21803   3.942   2.273   5.923
 5271WAT     H121804   4.018   2.230   5.929
 5271WAT     H221805   3.944   2.327   5.992
 5271WAT    EPW21806   3.954   2.275   5.934
 5272WAT      O21807   4.036   2.095   6.724
 5272WAT     H121808   4.080   2.083   6.649
 5272WAT     H221809   4.016   2.180   6.721
 5272WAT    EPW21810   4.040   2.106   6.712
 5273WAT      O21811   4.671   1.452   6.089
 5273WAT     H121812   4.671   1.440   6.002
 5273WAT     H221813   4.653   1.537   6.098
 5273WAT    EPW21814   4.668   1.463   6.077
 5274WAT      O21815   5.576   2.695   7.239
 5274WAT     H121816   5.509   2.746   7.260
 5274WAT     H221817   5.583   2.705   7.152
 5274WAT    EPW21818   5.567   2.704   7.229
 5275WAT      O21819   4.445   2.447   6.552
 5275WAT     H121820   4.457   2.531   6.571
 5275WAT     H221821   4.512   2.407   6.592
 5275WAT    EPW21822   4.457   2.454   6.561
 5276WAT      O21823   4.258   1.795   7.538
 5276WAT     H121824   4.204   1.745   7.585
 5276WAT     H221825   4.260   1.756   7.460
 5276WAT    EPW21826   4.250   1.782   7.534
 5277WAT      O21827   4.306   1.735   6.052
 5277WAT     H121828   4.294   1.690   6.126
 5277WAT     H221829   4.248   1.701   5.997
 5277WAT    EPW21830   4.296   1.723   6.055
 5278WAT      O21831   4.323   1.918   6.712
 5278WAT     H121832   4.245   1.912   6.674
 5278WAT     H221833   4.330   1.843   6.756
 5278WAT    EPW21834   4.313   1.906   6.713
 5279WAT      O21835   4.366   1.892   7.059
 5279WAT     H121836   4.369   1.824   7.004
 5279WAT     H221837   4.301   1.941   7.028
 5279WAT    EPW21838   4.357   1.889   7.046
 5280WAT      O21839   5.356   1.663   6.899
 5280WAT     H121840   5.289   1.696   6.945
 5280WAT     H221841   5.374   1.726   6.842
 5280WAT    EPW21842   5.349   1.677   6.897
 5281WAT      O21843   4.776   2.769   6.998
 5281WAT     H121844   4.748   2.705   6.946
 5281WAT     H221845   4.755   2.842   6.954
 5281WAT    EPW21846   4.769   2.771   6.984
 5282WAT      O21847   5.020   1.254   7.241
 5282WAT     H121848   5.035   1.171   7.217
 5282WAT     H221849   5.058   1.259   7.320
 5282WAT    EPW21850   5.028   1.242   7.249
 5283WAT      O21851   5.175   1.460   6.250
 5283WAT     H121852   5.224   1.532   6.242
 5283WAT     H221853   5.096   1.486   6.223
 5283WAT    EPW21854   5.170   1.474   6.245
 5284WAT      O21855   4.146   2.027   7.615
 5284WAT     H121856   4.142   2.077   7.543
 5284WAT     H221857   4.179   1.952   7.585
 5284WAT    EPW21858   4.150   2.023   7.600
 5285WAT      O21859   5.306   2.248   7.441
 5285WAT     H121860   5.355   2.320   7.450
 5285WAT     H221861   5.346   2.205   7.376
 5285WAT    EPW21862   5.319   2.252   7.432
 5286WAT      O21863   4.736   2.532   7.558
 5286WAT     H121864   4.771   2.514   7.636
 5286WAT     H221865   4.692   2.459   7.538
 5286WAT    EPW21866   4.735   2.519   7.567
 5287WAT      O21867   4.833   1.607   6.822
 5287WAT     H121868   4.881   1.677   6.843
 5287WAT     H221869   4.870   1.542   6.867
 5287WAT    EPW21870   4.846   1.608   6.832
 5288WAT      O21871   5.052   1.924   6.050
 5288WAT     H121872   5.051   1.996   6.001
 5288WAT     H221873   4.988   1.937   6.107
 5288WAT    EPW21874   5.042   1.937   6.051
 5289WAT      O21875   5.549   2.311   6.448
 5289WAT     H121876   5.585   2.276   6.519
 5289WAT     H221877   5.548   2.245   6.391
 5289WAT    EPW21878   5.554   2.296   6.450
 5290WAT      O21879   5.154   2.617   6.832
 5290WAT     H121880   5.093   2.588   6.776
 5290WAT     H221881   5.208   2.663   6.781
 5290WAT    EPW21882   5.153   2.620   6.816
 5291WAT      O21883   5.155   2.303   6.772
 5291WAT     H121884   5.075   2.325   6.799
 5291WAT     H221885   5.181   2.243   6.831
 5291WAT    EPW21886   5.147   2.297   6.785
 5292WAT      O21887   4.511   1.158   6.016
 5292WAT     H121888   4.521   1.147   6.102
 5292WAT     H221889   4.440   1.209   6.009
 5292WAT    EPW21890   4.502   1.164   6.027
 5293WAT      O21891   4.773   2.735   6.057
 5293WAT     H121892   4.836   2.752   6.116
 5293WAT     H221893   4.777   2.804   6.004
 5293WAT    EPW21894   4.783   2.748   6.058
 5294WAT      O21895   5.481   2.102   7.257
 5294WAT     H121896   5.486   2.115   7.170
 5294WAT     H221897   5.556   2.134   7.287
 5294WAT    EPW21898   5.493   2.109   7.248
 5295WAT      O21899   5.584   1.132   7.555
 5295WAT     H121900   5.520   1.092   7.511
 5295WAT     H221901   5.587   1.089   7.631
 5295WAT    EPW21902   5.575   1.120   7.560
 5296WAT      O21903   4.223   1.989   6.140
 5296WAT     H121904   4.256   1.911   6.118
 5296WAT     H221905   4.288   2.026   6.185
 5296WAT    EPW21906   4.238   1.983   6.143
 5297WAT      O21907   5.054   2.083   7.217
 5297WAT     H121908   5.039   2.144   7.277
 5297WAT     H221909   5.107   2.027   7.257
 5297WAT    EPW21910   5.060   2.084   7.232
 5298WAT      O21911   3.923   1.155   6.237
 5298WAT     H121912   3.936   1.084   6.188
 5298WAT     H221913   3.886   1.123   6.309
 5298WAT    EPW21914   3.920   1.140   6.240
 5299WAT      O21915   4.892   1.923   6.282
 5299WAT     H121916   4.898   1.988   6.340
 5299WAT     H221917   4.874   1.853   6.332
 5299WAT    EPW21918   4.891   1.922   6.298
 5300WAT      O21919   5.415   2.356   6.869
 5300WAT     H121920   5.367   2.386   6.803
 5300WAT     H221921   5.379   2.278   6.887
 5300WAT    EPW21922   5.403   2.349   6.862
 5301WAT      O21923   4.342   1.375   5.934
 5301WAT     H121924   4.291   1.380   5.863
 5301WAT     H221925   4.420   1.399   5.904
 5301WAT    EPW21926   4.346   1.379   5.919
 5302WAT      O21927   4.815   2.128   6.726
 5302WAT     H121928   4.730   2.108   6.734
 5302WAT     H221929   4.847   2.111   6.805
 5302WAT    EPW21930   4.807   2.122   6.738
 5303WAT      O21931   4.490   2.801   5.814
 5303WAT     H121932   4.534   2.731   5.843
 5303WAT     H221933   4.511   2.863   5.871
 5303WAT    EPW21934   4.500   2.800   5.827
 5304WAT      O21935   4.200   2.097   6.957
 5304WAT     H121936   4.272   2.146   6.953
 5304WAT     H221937   4.173   2.094   6.874
 5304WAT    EPW21938   4.206   2.104   6.944
 5305WAT      O21939   4.523   1.614   6.631
 5305WAT     H121940   4.607   1.595   6.640
 5305WAT     H221941   4.486   1.536   6.617
 5305WAT    EPW21942   4.530   1.600   6.630
 5306WAT      O21943   5.784   2.772   6.063
 5306WAT     H121944   5.854   2.726   6.039
 5306WAT     H221945   5.730   2.713   6.097
 5306WAT    EPW21946   5.787   2.757   6.065
 5307WAT      O21947   4.005   1.748   6.296
 5307WAT     H121948   4.054   1.719   6.362
 5307WAT     H221949   4.018   1.689   6.233
 5307WAT    EPW21950   4.014   1.735   6.297
 5308WAT      O21951   5.508   2.050   6.981
 5308WAT     H121952   5.507   1.972   7.021
 5308WAT     H221953   5.424   2.073   6.981
 5308WAT    EPW21954   5.496   2.042   6.987
 5309WAT      O21955   4.457   1.891   5.845
 5309WAT     H121956   4.396   1.851   5.892
 5309WAT     H221957   4.419   1.903   5.767
 5309WAT    EPW21958   4.442   1.887   5.840
 5310WAT      O21959   4.139   2.202   7.385
 5310WAT     H121960   4.097   2.150   7.329
 5310WAT     H221961   4.104   2.281   7.371
 5310WAT    EPW21962   4.128   2.206   7.375
 5311WAT      O21963   5.634   2.057   6.725
 5311WAT     H121964   5.605   2.097   6.797
 5311WAT     H221965   5.720   2.051   6.738
 5311WAT    EPW21966   5.642   2.062   6.737
 5312WAT      O21967   4.603   1.737   6.116
 5312WAT     H121968   4.630   1.820   6.122
 5312WAT     H221969   4.516   1.745   6.106
 5312WAT    EPW21970   4.594   1.751   6.115
 5313WAT      O21971   5.400   1.450   7.579
 5313WAT     H121972   5.347   1.495   7.631
 5313WAT     H221973   5.364   1.370   7.578
 5313WAT    EPW21974   5.387   1.445   7.587
 5314WAT      O21975   3.951   1.334   6.769
 5314WAT     H121976   3.955   1.369   6.689
 5314WAT     H221977   4.026   1.358   6.806
 5314WAT    EPW21978   3.962   1.343   6.763
 5315WAT      O21979   5.747   2.620   6.778
 5315WAT     H121980   5.776   2.646   6.700
 5315WAT     H221981   5.816   2.630   6.830
 5315WAT    EPW21982   5.761   2.626   6.774
 5316WAT      O21983   5.249   1.806   7.587
 5316WAT     H121984   5.256   1.817   7.673
 5316WAT     H221985   5.186   1.862   7.564
 5316WAT    EPW21986   5.241   1.816   7.596
 5317WAT      O21987   5.476   1.838   7.423
 5317WAT     H121988   5.508   1.917   7.443
 5317WAT     H221989   5.439   1.811   7.497
 5317WAT    EPW21990   5.475   1.846   7.437
 5318WAT      O21991   5.407   2.481   5.976
 5318WAT     H121992   5.441   2.400   5.980
 5318WAT     H221993   5.332   2.474   6.019
 5318WAT    EPW21994   5.401   2.468   5.983
 5319WAT      O21995   5.456   1.664   6.542
 5319WAT     H121996   5.381   1.632   6.574
 5319WAT     H221997   5.456   1.747   6.570
 5319WAT    EPW21998   5.445   1.672   6.551
 5320WAT      O21999   5.700   2.260   7.317
 5320WAT     H122000   5.762   2.205   7.292
 5320WAT     H222001   5.693   2.317   7.251
 5320WAT    EPW22002   5.708   2.260   7.304
 5321WAT      O22003   5.145   2.268   5.916
 5321WAT     H122004   5.213   2.217   5.899
 5321WAT     H222005   5.103   2.273   5.840
 5321WAT    EPW22006   5.149   2.261   5.903
 5322WAT      O22007   4.613   2.383   7.047
 5322WAT     H122008   4.583   2.442   7.103
 5322WAT     H222009   4.618   2.427   6.972
 5322WAT    EPW22010   4.609   2.399   7.044
 5323WAT      O22011   4.411   2.278   7.387
 5323WAT     H122012   4.330   2.249   7.403
 5323WAT     H222013   4.402   2.365   7.387
 5323WAT    EPW22014   4.398   2.287   7.389
 5324WAT      O22015   5.347   1.297   7.288
 5324WAT     H122016   5.421   1.342   7.282
 5324WAT     H222017   5.290   1.344   7.241
 5324WAT    EPW22018   5.349   1.311   7.280
 5325WAT      O22019   4.865   2.026   6.996
 5325WAT     H122020   4.912   2.063   7.059
 5325WAT     H222021   4.782   2.039   7.022
 5325WAT    EPW22022   4.859   2.033   7.009
 5326WAT      O22023   4.536   1.586   7.270
 5326WAT     H122024   4.552   1.511   7.313
 5326WAT     H222025   4.531   1.561   7.186
 5326WAT    EPW22026   4.537   1.571   7.264
 5327WAT      O22027   4.791   2.765   6.519
 5327WAT     H122028   4.846   2.833   6.524
 5327WAT     H222029   4.756   2.773   6.439
 5327WAT    EPW22030   4.794   2.776   6.508
 5328WAT      O22031   5.475   1.095   7.055
 5328WAT     H122032   5.447   1.178   7.051
 5328WAT     H222033   5.547   1.100   7.105
 5328WAT    EPW22034   5.482   1.108   7.062
 5329WAT      O22035   4.711   1.167   7.258
 5329WAT     H122036   4.781   1.199   7.218
 5329WAT     H222037   4.735   1.086   7.281
 5329WAT    EPW22038   4.725   1.159   7.255
 5330WAT      O22039   4.609   2.588   6.858
 5330WAT     H122040   4.547   2.646   6.839
 5330WAT     H222041   4.634   2.559   6.779
 5330WAT    EPW22042   4.604   2.592   6.843
 5331WAT      O22043   5.040   2.251   7.556
 5331WAT     H122044   5.116   2.280   7.524
 5331WAT     H222045   4.985   2.256   7.489
 5331WAT    EPW22046   5.043   2.256   7.542
 5332WAT      O22047   5.431   2.506   7.407
 5332WAT     H122048   5.466   2.533   7.482
 5332WAT     H222049   5.460   2.564   7.349
 5332WAT    EPW22050   5.441   2.519   7.409
 5333WAT      O22051   5.617   1.721   5.941
 5333WAT     H122052   5.655   1.788   5.901
 5333WAT     H222053   5.533   1.743   5.944
 5333WAT    EPW22054   5.610   1.734   5.935
 5334WAT      O22055   4.769   2.065   5.849
 5334WAT     H122056   4.688   2.048   5.821
 5334WAT     H222057   4.765   2.150   5.868
 5334WAT    EPW22058   4.756   2.075   5.848
 5335WAT      O22059   4.362   1.672   6.864
 5335WAT     H122060   4.406   1.662   6.789
 5335WAT     H222061   4.416   1.641   6.925
 5335WAT    EPW22062   4.376   1.666   6.862
 5336WAT      O22063   5.163   1.582   7.423
 5336WAT     H122064   5.098   1.629   7.458
 5336WAT     H222065   5.220   1.573   7.489
 5336WAT    EPW22066   5.162   1.588   7.438
 5337WAT      O22067   5.132   1.736   7.053
 5337WAT     H122068   5.162   1.778   7.123
 5337WAT     H222069   5.136   1.652   7.076
 5337WAT    EPW22070   5.137   1.730   7.067
 5338WAT      O22071   4.875   2.753   7.446
 5338WAT     H122072   4.922   2.693   7.404
 5338WAT     H222073   4.839   2.708   7.512
 5338WAT    EPW22074   4.876   2.737   7.449
 5339WAT      O22075   5.387   1.681   6.278
 5339WAT     H122076   5.408   1.660   6.361
 5339WAT     H222077   5.462   1.707   6.244
 5339WAT    EPW22078   5.401   1.682   6.285
 5340WAT      O22079   4.716   1.170   6.869
 5340WAT     H122080   4.634   1.156   6.892
 5340WAT     H222081   4.712   1.174   6.782
 5340WAT    EPW22082   4.704   1.169   6.859
 5341WAT      O22083   5.489   1.289   6.426
 5341WAT     H122084   5.418   1.242   6.443
 5341WAT     H222085   5.473   1.323   6.347
 5341WAT    EPW22086   5.476   1.287   6.417
 5342WAT      O22087   5.533   2.083   6.264
 5342WAT     H122088   5.581   2.010   6.259
 5342WAT     H222089   5.451   2.055   6.256
 5342WAT    EPW22090   5.528   2.068   6.262
 5343WAT      O22091   4.880   2.274   7.348
 5343WAT     H122092   4.801   2.268   7.383
 5343WAT     H222093   4.888   2.359   7.328
 5343WAT    EPW22094   4.870   2.286   7.350
 5344WAT      O22095   3.973   1.210   7.472
 5344WAT     H122096   3.959   1.290   7.439
 5344WAT     H222097   3.894   1.186   7.501
 5344WAT    EPW22098   3.959   1.218   7.472
 5345WAT      O22099   4.463   2.895   6.879
 5345WAT     H122100   4.465   2.901   6.966
 5345WAT     H222101   4.421   2.820   6.864
 5345WAT    EPW22102   4.457   2.885   6.890
 5346WAT      O22103   4.279   1.485   6.195
 5346WAT     H122104   4.292   1.452   6.115
 5346WAT     H222105   4.198   1.460   6.215
 5346WAT    EPW22106   4.269   1.476   6.186
 5347WAT      O22107   5.155   2.200   6.499
 5347WAT     H122108   5.163   2.234   6.579
 5347WAT     H222109   5.172   2.115   6.511
 5347WAT    EPW22110   5.159   2.192   6.513
 5348WAT      O22111   4.907   2.127   6.456
 5348WAT     H122112   4.877   2.096   6.531
 5348WAT     H222113   4.977   2.175   6.479
 5348WAT    EPW22114   4.913   2.130   6.470
 5349WAT      O22115   4.929   2.539   7.258
 5349WAT     H122116   4.998   2.528   7.311
 5349WAT     H222117   4.943   2.618   7.224
 5349WAT    EPW22118   4.941   2.549   7.261
 5350WAT      O22119   5.747   1.800   7.439
 5350WAT     H122120   5.661   1.788   7.452
 5350WAT     H222121   5.762   1.761   7.363
 5350WAT    EPW22122   5.737   1.792   7.430
 5351WAT      O22123   5.198   1.867   7.297
 5351WAT     H122124   5.173   1.795   7.339
 5351WAT     H222125   5.280   1.878   7.324
 5351WAT    EPW22126   5.207   1.858   7.307
 5352WAT      O22127   4.140   2.845   7.423
 5352WAT     H122128   4.074   2.788   7.433
 5352WAT     H222129   4.102   2.922   7.439
 5352WAT    EPW22130   4.125   2.848   7.427
 5353WAT      O22131   4.992   1.986   7.616
 5353WAT     H122132   5.024   2.054   7.573
 5353WAT     H222133   4.921   2.018   7.656
 5353WAT    EPW22134   4.986   2.000   7.615
 5354WAT      O22135   5.300   2.823   6.709
 5354WAT     H122136   5.255   2.887   6.747
 5354WAT     H222137   5.371   2.815   6.759
 5354WAT    EPW22138   5.304   2.831   6.722
 5355WAT      O22139   4.970   2.332   7.002
 5355WAT     H122140   4.901   2.372   7.036
 5355WAT     H222141   5.038   2.375   7.036
 5355WAT    EPW22142   4.970   2.344   7.012
 5356WAT      O22143   4.277   1.686   7.236
 5356WAT     H122144   4.314   1.748   7.188
 5356WAT     H222145   4.344   1.638   7.265
 5356WAT    EPW22146   4.292   1.688   7.233
 5357WAT      O22147   4.054   1.531   7.164
 5357WAT     H122148   4.062   1.514   7.079
 5357WAT     H222149   4.129   1.571   7.184
 5357WAT    EPW22150   4.067   1.534   7.154
 5358WAT      O22151   5.610   1.795   6.208
 5358WAT     H122152   5.621   1.789   6.121
 5358WAT     H222153   5.684   1.761   6.240
 5358WAT    EPW22154   5.623   1.789   6.200
 5359WAT      O22155   4.310   1.272   7.405
 5359WAT     H122156   4.302   1.187   7.426
 5359WAT     H222157   4.278   1.276   7.324
 5359WAT    EPW22158   4.304   1.260   7.396
 5360WAT      O22159   5.002   2.491   6.319
 5360WAT     H122160   4.982   2.574   6.303
 5360WAT     H222161   4.925   2.453   6.331
 5360WAT    EPW22162   4.988   2.498   6.318
 5361WAT      O22163   5.521   1.809   7.143
 5361WAT     H122164   5.520   1.723   7.156
 5361WAT     H222165   5.527   1.842   7.224
 5361WAT    EPW22166   5.522   1.801   7.157
 5362WAT      O22167   3.994   2.053   7.186
 5362WAT     H122168   4.026   2.075   7.108
 5362WAT     H222169   3.984   1.967   7.181
 5362WAT    EPW22170   3.997   2.044   7.174
 5363WAT      O22171   4.140   1.647   5.848
 5363WAT     H122172   4.073   1.648   5.904
 5363WAT     H222173   4.149   1.562   5.830
 5363WAT    EPW22174   4.131   1.634   5.854
 5364WAT      O22175   5.108   1.289   7.522
 5364WAT     H122176   5.118   1.360   7.571
 5364WAT     H222177   5.045   1.245   7.561
 5364WAT    EPW22178   5.100   1.293   7.535
 5365WAT      O22179   5.008   1.308   6.607
 5365WAT     H122180   4.938   1.360   6.601
 5365WAT     H222181   5.012   1.270   6.529
 5365WAT    EPW22182   4.998   1.310   6.595
 5366WAT      O22183   4.539   2.517   5.959
 5366WAT     H122184   4.583   2.525   6.034
 5366WAT     H222185   4.458   2.496   5.985
 5366WAT    EPW22186   4.533   2.515   5.974
 5367WAT      O22187   5.368   1.360   6.887
 5367WAT     H122188   5.453   1.370   6.902
 5367WAT     H222189   5.331   1.415   6.944
 5367WAT    EPW22190   5.375   1.369   6.898
 5368WAT      O22191   4.470   1.982   7.325
 5368WAT     H122192   4.431   2.060   7.332
 5368WAT     H222193   4.430   1.945   7.257
 5368WAT    EPW22194   4.459   1.988   7.316
 5369WAT      O22195   5.398   1.888   6.736
 5369WAT     H122196   5.465   1.942   6.752
 5369WAT     H222197   5.364   1.919   6.662
 5369WAT    EPW22198   5.403   1.900   6.728
 5370WAT      O22199   5.429   2.694   6.317
 5370WAT     H122200   5.412   2.629   6.372
 5370WAT     H222201   5.501   2.667   6.275
 5370WAT    EPW22202   5.437   2.681   6.319
 5371WAT      O22203   4.271   2.424   6.020
 5371WAT     H122204   4.247   2.394   6.098
 5371WAT     H222205   4.268   2.354   5.968
 5371WAT    EPW22206   4.267   2.409   6.023
 5372WAT      O22207   4.553   2.249   5.894
 5372WAT     H122208   4.472   2.222   5.908
 5372WAT     H222209   4.551   2.334   5.912
 5372WAT    EPW22210   4.541   2.257   5.899
 5373WAT      O22211   4.513   1.280   7.070
 5373WAT     H122212   4.427   1.288   7.078
 5373WAT     H222213   4.535   1.229   7.137
 5373WAT    EPW22214   4.504   1.274   7.081
 5374WAT      O22215   5.715   1.144   7.203
 5374WAT     H122216   5.710   1.139   7.290
 5374WAT     H222217   5.784   1.093   7.184
 5374WAT    EPW22218   5.725   1.136   7.213
 5375WAT      O22219   4.924   1.355   6.907
 5375WAT     H122220   4.850   1.309   6.918
 5375WAT     H222221   4.981   1.315   6.959
 5375WAT    EPW22222   4.921   1.342   6.917
 5376WAT      O22223   5.197   2.440   7.086
 5376WAT     H122224   5.217   2.470   7.165
 5376WAT     H222225   5.191   2.512   7.037
 5376WAT    EPW22226   5.199   2.455   7.090
 5377WAT      O22227   5.150   2.861   7.511
 5377WAT     H122228   5.075   2.859   7.466
 5377WAT     H222229   5.167   2.946   7.519
 5377WAT    EPW22230   5.142   2.873   7.505
 5378WAT      O22231   4.674   1.788   7.428
 5378WAT     H122232   4.642   1.730   7.371
 5378WAT     H222233   4.638   1.863   7.403
 5378WAT    EPW22234   4.664   1.790   7.416
 5379WAT      O22235   4.754   1.113   5.890
 5379WAT     H122236   4.761   1.138   5.807
 5379WAT     H222237   4.679   1.151   5.916
 5379WAT    EPW22238   4.744   1.122   5.882
 5380WAT      O22239   5.678   2.304   7.032
 5380WAT     H122240   5.675   2.217   7.018
 5380WAT     H222241   5.609   2.334   6.988
 5380WAT    EPW22242   5.667   2.295   7.023
 5381WAT      O22243   4.517   2.823   7.452
 5381WAT     H122244   4.522   2.836   7.539
 5381WAT     H222245   4.583   2.767   7.437
 5381WAT    EPW22246   4.528   2.817   7.463
 5382WAT      O22247   5.489   2.630   6.911
 5382WAT     H122248   5.541   2.621   6.842
 5382WAT     H222249   5.449   2.552   6.917
 5382WAT    EPW22250   5.491   2.617   6.902
 5383WAT      O22251   4.235   1.288   7.135
 5383WAT     H122252   4.201   1.212   7.111
 5383WAT     H222253   4.166   1.341   7.141
 5383WAT    EPW22254   4.220   1.285   7.132
 5384WAT      O22255   5.140   1.174   6.832
 5384WAT     H122256   5.207   1.228   6.845
 5384WAT     H222257   5.090   1.216   6.775
 5384WAT    EPW22258   5.142   1.188   6.826
 5385WAT      O22259   4.277   2.662   7.588
 5385WAT     H122260   4.336   2.705   7.636
 5385WAT     H222261   4.240   2.724   7.539
 5385WAT    EPW22262   4.280   2.677   7.588
 5386WAT      O22263   5.076   1.755   6.582
 5386WAT     H122264   5.131   1.694   6.612
 5386WAT     H222265   5.033   1.781   6.653
 5386WAT    EPW22266   5.078   1.750   6.596
 5387WAT      O22267   4.101   1.620   6.530
 5387WAT     H122268   4.064   1.650   6.603
 5387WAT     H222269   4.154   1.557   6.559
 5387WAT    EPW22270   4.103   1.615   6.545
 5388WAT      O22271   4.069   2.461   7.281
 5388WAT     H122272   4.012   2.502   7.332
 5388WAT     H222273   4.143   2.507   7.291
 5388WAT    EPW22274   4.072   2.474   7.290
 5389WAT      O22275   5.273   1.938   6.238
 5389WAT     H122276   5.280   1.853   6.256
 5389WAT     H222277   5.191   1.946   6.210
 5389WAT    EPW22278   5.262   1.927   6.236
 5390WAT      O22279   4.248   2.787   6.159
 5390WAT     H122280   4.234   2.803   6.074
 5390WAT     H222281   4.335   2.795   6.167
 5390WAT    EPW22282   4.259   2.791   6.147
 5391WAT      O22283   4.665   2.027   6.132
 5391WAT     H122284   4.675   2.041   6.046
 5391WAT     H222285   4.747   2.021   6.161
 5391WAT    EPW22286   4.678   2.028   6.123
 5392WAT      O22287   5.581   2.833   5.880
 5392WAT     H122288   5.644   2.820   5.938
 5392WAT     H222289   5.547   2.754   5.868
 5392WAT    EPW22290   5.585   2.820   5.886
 5393WAT      O22291   5.600   2.075   7.553
 5393WAT     H122292   5.664   2.058   7.610
 5393WAT     H222293   5.642   2.115   7.488
 5393WAT    EPW22294   5.616   2.079   7.552
 5394WAT      O22295   5.188   2.460   6.112
 5394WAT     H122296   5.163   2.447   6.194
 5394WAT     H222297   5.157   2.390   6.070
 5394WAT    EPW22298   5.180   2.448   6.118
 5395WAT      O22299   5.663   1.532   7.627
 5395WAT     H122300   5.643   1.596   7.682
 5395WAT     H222301   5.591   1.483   7.626
 5395WAT    EPW22302   5.649   1.534   7.635
 5396WAT      O22303   5.653   1.626   6.924
 5396WAT     H122304   5.569   1.651   6.917
 5396WAT     H222305   5.647   1.542   6.947
 5396WAT    EPW22306   5.640   1.617   6.926
 5397WAT      O22307   4.579   1.324   7.443
 5397WAT     H122308   4.602   1.267   7.382
 5397WAT     H222309   4.494   1.306   7.457
 5397WAT    EPW22310   4.570   1.313   7.436
 5398WAT      O22311   5.341   2.086   7.688
 5398WAT     H122312   5.428   2.083   7.685
 5398WAT     H222313   5.319   2.128   7.615
 5398WAT    EPW22314   5.351   2.092   7.677
 5399WAT      O22315   4.317   2.669   6.806
 5399WAT     H122316   4.309   2.588   6.775
 5399WAT     H222317   4.272   2.717   6.749
 5399WAT    EPW22318   4.309   2.664   6.793
 5400WAT      O22319   4.877   2.281   6.055
 5400WAT     H122320   4.949   2.246   6.019
 5400WAT     H222321   4.873   2.361   6.020
 5400WAT    EPW22322   4.887   2.287   6.044
 5401WAT      O22323   4.074   2.893   7.165
 5401WAT     H122324   4.123   2.888   7.236
 5401WAT     H222325   4.093   2.820   7.121
 5401WAT    EPW22326   4.084   2.881   7.169
 5402WAT      O22327   5.018   1.145   4.479
 5402WAT     H122328   4.993   1.194   4.411
 5402WAT     H222329   5.104   1.137   4.469
 5402WAT    EPW22330   5.027   1.151   4.467
 5403WAT      O22331   4.999   1.836   4.946
 5403WAT     H122332   4.946   1.896   4.982
 5403WAT     H222333   5.038   1.800   5.014
 5403WAT    EPW22334   4.997   1.840   4.961
 5404WAT      O22335   3.986   2.250   4.491
 5404WAT     H122336   3.941   2.262   4.566
 5404WAT     H222337   3.957   2.173   4.463
 5404WAT    EPW22338   3.975   2.241   4.498
 5405WAT      O22339   5.613   2.580   4.243
 5405WAT     H122340   5.683   2.529   4.242
 5405WAT     H222341   5.554   2.536   4.196
 5405WAT    EPW22342   5.615   2.566   4.236
 5406WAT      O22343   5.266   1.943   4.613
 5406WAT     H122344   5.274   1.943   4.526
 5406WAT     H222345   5.207   1.880   4.628
 5406WAT    EPW22346   5.258   1.934   4.603
 5407WAT      O22347   4.665   1.253   4.394
 5407WAT     H122348   4.658   1.321   4.340
 5407WAT     H222349   4.739   1.215   4.369
 5407WAT    EPW22350   4.675   1.258   4.382
 5408WAT      O22351   3.980   2.524   5.117
 5408WAT     H122352   3.992   2.496   5.198
 5408WAT     H222353   3.919   2.470   5.086
 5408WAT    EPW22354   3.972   2.512   5.124
 5409WAT      O22355   4.637   2.276   5.624
 5409WAT     H122356   4.613   2.276   5.708
 5409WAT     H222357   4.562   2.262   5.581
 5409WAT    EPW22358   4.622   2.274   5.630
 5410WAT      O22359   4.124   1.976   4.537
 5410WAT     H122360   4.078   1.937   4.474
 5410WAT     H222361   4.194   1.925   4.546
 5410WAT    EPW22362   4.128   1.963   4.529
 5411WAT      O22363   4.575   1.537   5.072
 5411WAT     H122364   4.643   1.539   5.017
 5411WAT     H222365   4.570   1.453   5.096
 5411WAT    EPW22366   4.584   1.525   5.067
 5412WAT      O22367   4.635   2.596   5.350
 5412WAT     H122368   4.649   2.672   5.309
 5412WAT     H222369   4.714   2.559   5.353
 5412WAT    EPW22370   4.649   2.601   5.344
 5413WAT      O22371   4.324   1.786   4.539
 5413WAT     H122372   4.406   1.767   4.564
 5413WAT     H222373   4.277   1.725   4.579
 5413WAT    EPW22374   4.329   1.774   4.549
 5414WAT      O22375   4.745   2.384   4.800
 5414WAT     H122376   4.779   2.304   4.803
 5414WAT     H222377   4.811   2.434   4.775
 5414WAT    EPW22378   4.760   2.380   4.797
 5415WAT      O22379   4.750   2.329   4.421
 5415WAT     H122380   4.783   2.265   4.470
 5415WAT     H222381   4.774   2.308   4.340
 5415WAT    EPW22382   4.759   2.316   4.417
 5416WAT      O22383   4.947   1.742   5.555
 5416WAT     H122384   4.862   1.732   5.538
 5416WAT     H222385   4.950   1.817   5.601
 5416WAT    EPW22386   4.935   1.752   5.559
 5417WAT      O22387   4.384   1.295   4.466
 5417WAT     H122388   4.354   1.345   4.401
 5417WAT     H222389   4.471   1.303   4.460
 5417WAT    EPW22390   4.392   1.304   4.456
 5418WAT      O22391   5.403   1.038   5.467
 5418WAT     H122392   5.387   1.115   5.429
 5418WAT     H222393   5.326   1.016   5.501
 5418WAT    EPW22394   5.389   1.046   5.466
 5419WAT      O22395   4.682   1.210   4.688
 5419WAT     H122396   4.689   1.296   4.701
 5419WAT     H222397   4.678   1.202   4.601
 5419WAT    EPW22398   4.682   1.221   4.677
 5420WAT      O22399   5.149   1.502   3.918
 5420WAT     H122400   5.104   1.570   3.949
 5420WAT     H222401   5.161   1.452   3.988
 5420WAT    EPW22402   5.144   1.505   3.933
 5421WAT      O22403   3.970   1.752   4.838
 5421WAT     H122404   3.944   1.835   4.831
 5421WAT     H222405   3.903   1.714   4.880
 5421WAT    EPW22406   3.956   1.759   4.843
 5422WAT      O22407   5.159   2.736   4.129
 5422WAT     H122408   5.232   2.783   4.139
 5422WAT     H222409   5.182   2.657   4.157
 5422WAT    EPW22410   5.173   2.732   4.134
 5423WAT      O22411   4.976   2.775   4.328
 5423WAT     H122412   4.997   2.828   4.394
 5423WAT     H222413   5.053   2.758   4.290
 5423WAT    EPW22414   4.990   2.781   4.332
 5424WAT      O22415   4.273   1.234   4.887
 5424WAT     H122416   4.221   1.171   4.857
 5424WAT     H222417   4.332   1.190   4.935
 5424WAT    EPW22418   4.274   1.218   4.890
 5425WAT      O22419   4.603   1.447   5.817
 5425WAT     H122420   4.615   1.402   5.744
 5425WAT     H222421   4.632   1.527   5.797
 5425WAT    EPW22422   4.609   1.452   5.803
 5426WAT      O22423   5.689   1.499   4.548
 5426WAT     H122424   5.654   1.567   4.590
 5426WAT     H222425   5.625   1.440   4.549
 5426WAT    EPW22426   5.674   1.501   4.554
 5427WAT      O22427   5.220   2.776   5.158
 5427WAT     H122428   5.294   2.822   5.157
 5427WAT     H222429   5.208   2.755   5.074
 5427WAT    EPW22430   5.229   2.780   5.146
 5428WAT      O22431   4.177   1.407   5.716
 5428WAT     H122432   4.099   1.368   5.708
 5428WAT     H222433   4.226   1.366   5.657
 5428WAT    EPW22434   4.172   1.395   5.706
 5429WAT      O22435   4.197   2.439   4.771
 5429WAT     H122436   4.239   2.403   4.704
 5429WAT     H222437   4.229   2.397   4.841
 5429WAT    EPW22438   4.208   2.427   4.772
 5430WAT      O22439   4.841   1.171   5.632
 5430WAT     H122440   4.859   1.090   5.605
 5430WAT     H222441   4.827   1.215   5.559
 5430WAT    EPW22442   4.842   1.166   5.617
 5431WAT      O22443   4.901   1.664   4.510
 5431WAT     H122444   4.930   1.640   4.431
 5431WAT     H222445   4.974   1.672   4.557
 5431WAT    EPW22446   4.916   1.661   4.505
 5432WAT      O22447   4.973   1.698   4.022
 5432WAT     H122448   5.001   1.776   4.047
 5432WAT     H222449   4.895   1.714   3.986
 5432WAT    EPW22450   4.966   1.712   4.020
 5433WAT      O22451   5.377   2.895   4.169
 5433WAT     H122452   5.444   2.880   4.114
 5433WAT     H222453   5.413   2.887   4.248
 5433WAT    EPW22454   5.392   2.892   4.172
 5434WAT      O22455   4.420   2.846   5.275
 5434WAT     H122456   4.449   2.839   5.357
 5434WAT     H222457   4.357   2.785   5.271
 5434WAT    EPW22458   4.415   2.836   5.287
 5435WAT      O22459   5.656   1.332   5.085
 5435WAT     H122460   5.732   1.339   5.042
 5435WAT     H222461   5.662   1.254   5.124
 5435WAT    EPW22462   5.668   1.321   5.084
 5436WAT      O22463   3.911   1.462   5.474
 5436WAT     H122464   3.911   1.520   5.539
 5436WAT     H222465   3.971   1.493   5.419
 5436WAT    EPW22466   3.920   1.475   5.476
 5437WAT      O22467   5.145   2.495   5.528
 5437WAT     H122468   5.142   2.533   5.607
 5437WAT     H222469   5.231   2.491   5.511
 5437WAT    EPW22470   5.157   2.500   5.538
 5438WAT      O22471   4.859   2.515   4.003
 5438WAT     H122472   4.841   2.569   4.069
 5438WAT     H222473   4.936   2.544   3.973
 5438WAT    EPW22474   4.868   2.527   4.009
 5439WAT      O22475   5.210   1.304   4.109
 5439WAT     H122476   5.264   1.236   4.116
 5439WAT     H222477   5.216   1.344   4.186
 5439WAT    EPW22478   5.219   1.300   4.121
 5440WAT      O22479   4.005   1.421   4.366
 5440WAT     H122480   3.994   1.335   4.369
 5440WAT     H222481   3.958   1.450   4.433
 5440WAT    EPW22482   3.996   1.413   4.376
 5441WAT      O22483   4.219   2.662   5.187
 5441WAT     H122484   4.149   2.611   5.200
 5441WAT     H222485   4.245   2.642   5.106
 5441WAT    EPW22486   4.213   2.652   5.177
 5442WAT      O22487   4.935   1.542   4.240
 5442WAT     H122488   4.885   1.476   4.215
 5442WAT     H222489   4.941   1.592   4.169
 5442WAT    EPW22490   4.929   1.540   4.226
 5443WAT      O22491   4.990   2.811   5.278
 5443WAT     H122492   5.067   2.803   5.238
 5443WAT     H222493   4.932   2.799   5.214
 5443WAT    EPW22494   4.993   2.808   5.263
 5444WAT      O22495   4.935   1.236   4.229
 5444WAT     H122496   4.890   1.196   4.167
 5444WAT     H222497   5.013   1.251   4.192
 5444WAT    EPW22498   4.940   1.232   4.215
 5445WAT      O22499   5.618   2.872   4.568
 5445WAT     H122500   5.573   2.943   4.588
 5445WAT     H222501   5.557   2.815   4.544
 5445WAT    EPW22502   5.602   2.874   4.568
 5446WAT      O22503   4.795   1.473   4.682
 5446WAT     H122504   4.803   1.529   4.616
 5446WAT     H222505   4.807   1.522   4.753
 5446WAT    EPW22506   4.798   1.488   4.682
 5447WAT      O22507   5.318   2.456   4.523
 5447WAT     H122508   5.388   2.408   4.542
 5447WAT     H222509   5.252   2.399   4.527
 5447WAT    EPW22510   5.318   2.441   4.526
 5448WAT      O22511   4.355   2.547   5.444
 5448WAT     H122512   4.439   2.553   5.422
 5448WAT     H222513   4.352   2.587   5.522
 5448WAT    EPW22514   4.367   2.554   5.452
 5449WAT      O22515   4.256   1.055   4.516
 5449WAT     H122516   4.310   1.124   4.515
 5449WAT     H222517   4.256   1.028   4.434
 5449WAT    EPW22518   4.264   1.061   4.504
 5450WAT      O22519   4.552   2.098   4.919
 5450WAT     H122520   4.569   2.077   5.002
 5450WAT     H222521   4.486   2.045   4.897
 5450WAT    EPW22522   4.545   2.087   4.928
 5451WAT      O22523   5.174   1.490   5.270
 5451WAT     H122524   5.165   1.522   5.351
 5451WAT     H222525   5.115   1.426   5.267
 5451WAT    EPW22526   5.164   1.485   5.282
 5452WAT      O22527   4.627   2.092   5.178
 5452WAT     H122528   4.632   2.177   5.198
 5452WAT     H222529   4.598   2.055   5.252
 5452WAT    EPW22530   4.623   2.099   5.192
 5453WAT      O22531   5.244   2.162   5.091
 5453WAT     H122532   5.193   2.120   5.148
 5453WAT     H222533   5.232   2.246   5.109
 5453WAT    EPW22534   5.235   2.168   5.102
 5454WAT      O22535   5.300   1.084   4.554
 5454WAT     H122536   5.305   1.052   4.635
 5454WAT     H222537   5.332   1.020   4.505
 5454WAT    EPW22538   5.306   1.070   4.559
 5455WAT      O22539   3.909   2.529   5.799
 5455WAT     H122540   3.984   2.564   5.825
 5455WAT     H222541   3.926   2.444   5.793
 5455WAT    EPW22542   3.923   2.522   5.802
 5456WAT      O22543   5.546   1.508   5.385
 5456WAT     H122544   5.624   1.485   5.418
 5456WAT     H222545   5.499   1.529   5.455
 5456WAT    EPW22546   5.551   1.508   5.400
 5457WAT      O22547   4.301   1.436   4.682
 5457WAT     H122548   4.328   1.393   4.611
 5457WAT     H222549   4.283   1.372   4.739
 5457WAT    EPW22550   4.302   1.420   4.680
 5458WAT      O22551   5.570   2.205   4.104
 5458WAT     H122552   5.582   2.177   4.185
 5458WAT     H222553   5.650   2.208   4.071
 5458WAT    EPW22554   5.583   2.202   4.111
 5459WAT      O22555   4.283   2.179   4.637
 5459WAT     H122556   4.368   2.171   4.619
 5459WAT     H222557   4.248   2.110   4.595
 5459WAT    EPW22558   4.291   2.167   4.628
 5460WAT      O22559   4.115   1.546   4.990
 5460WAT     H122560   4.199   1.568   4.986
 5460WAT     H222561   4.076   1.603   4.937
 5460WAT    EPW22562   4.122   1.558   4.981
 5461WAT      O22563   5.793   2.656   5.529
 5461WAT     H122564   5.725   2.687   5.484
 5461WAT     H222565   5.756   2.611   5.593
 5461WAT    EPW22566   5.777   2.654   5.532
 5462WAT      O22567   5.359   1.859   4.062
 5462WAT     H122568   5.337   1.932   4.020
 5462WAT     H222569   5.314   1.864   4.137
 5462WAT    EPW22570   5.349   1.871   4.067
 5463WAT      O22571   4.520   2.179   4.460
 5463WAT     H122572   4.591   2.229   4.469
 5463WAT     H222573   4.542   2.123   4.398
 5463WAT    EPW22574   4.534   2.178   4.452
 5464WAT      O22575   5.778   1.345   4.007
 5464WAT     H122576   5.712   1.288   4.010
 5464WAT     H222577   5.759   1.396   3.939
 5464WAT    EPW22578   5.765   1.344   3.998
 5465WAT      O22579   3.936   2.344   4.792
 5465WAT     H122580   3.869   2.392   4.820
 5465WAT     H222581   4.004   2.398   4.795
 5465WAT    EPW22582   3.936   2.359   4.797
 5466WAT      O22583   4.700   1.715   5.802
 5466WAT     H122584   4.652   1.772   5.846
 5466WAT     H222585   4.698   1.744   5.720
 5466WAT    EPW22586   4.693   1.728   5.796
 5467WAT      O22587   5.810   1.783   5.263
 5467WAT     H122588   5.832   1.703   5.235
 5467WAT     H222589   5.725   1.789   5.244
 5467WAT    EPW22590   5.801   1.772   5.256
 5468WAT      O22591   3.942   2.012   4.302
 5468WAT     H122592   3.924   1.928   4.318
 5468WAT     H222593   4.008   2.008   4.245
 5468WAT    EPW22594   3.949   1.999   4.296
 5469WAT      O22595   5.578   1.301   4.235
 5469WAT     H122596   5.653   1.260   4.255
 5469WAT     H222597   5.604   1.373   4.193
 5469WAT    EPW22598   5.593   1.306   4.232
 5470WAT      O22599   4.972   2.550   4.693
 5470WAT     H122600   4.920   2.613   4.664
 5470WAT     H222601   5.003   2.513   4.620
 5470WAT    EPW22602   4.969   2.554   4.678
 5471WAT      O22603   4.380   2.328   4.969
 5471WAT     H122604   4.427   2.357   5.037
 5471WAT     H222605   4.437   2.281   4.923
 5471WAT    EPW22606   4.395   2.326   4.972
 5472WAT      O22607   5.223   1.530   4.743
 5472WAT     H122608   5.258   1.545   4.821
 5472WAT     H222609   5.178   1.456   4.754
 5472WAT    EPW22610   5.222   1.521   4.756
 5473WAT      O22611   4.671   1.452   4.188
 5473WAT     H122612   4.671   1.440   4.102
 5473WAT     H222613   4.653   1.537   4.197
 5473WAT    EPW22614   4.668   1.463   4.177
 5474WAT      O22615   5.576   2.695   5.338
 5474WAT     H122616   5.509   2.746   5.360
 5474WAT     H222617   5.583   2.705   5.252
 5474WAT    EPW22618   5.567   2.704   5.328
 5475WAT      O22619   4.258   1.795   5.638
 5475WAT     H122620   4.204   1.745   5.684
 5475WAT     H222621   4.260   1.756   5.560
 5475WAT    EPW22622   4.250   1.782   5.633
 5476WAT      O22623   4.306   1.735   4.152
 5476WAT     H122624   4.294   1.690   4.225
 5476WAT     H222625   4.248   1.701   4.096
 5476WAT    EPW22626   4.296   1.723   4.154
 5477WAT      O22627   4.323   1.918   4.812
 5477WAT     H122628   4.245   1.912   4.773
 5477WAT     H222629   4.330   1.843   4.855
 5477WAT    EPW22630   4.313   1.906   4.812
 5478WAT      O22631   4.366   1.892   5.158
 5478WAT     H122632   4.369   1.824   5.103
 5478WAT     H222633   4.301   1.941   5.127
 5478WAT    EPW22634   4.357   1.889   5.146
 5479WAT      O22635   5.356   1.663   4.998
 5479WAT     H122636   5.289   1.696   5.044
 5479WAT     H222637   5.374   1.726   4.941
 5479WAT    EPW22638   5.349   1.677   4.996
 5480WAT      O22639   4.776   2.769   5.098
 5480WAT     H122640   4.748   2.705   5.045
 5480WAT     H222641   4.755   2.842   5.054
 5480WAT    EPW22642   4.769   2.771   5.083
 5481WAT      O22643   5.020   1.254   5.341
 5481WAT     H122644   5.035   1.171   5.317
 5481WAT     H222645   5.058   1.259   5.419
 5481WAT    EPW22646   5.028   1.242   5.349
 5482WAT      O22647   5.175   1.460   4.349
 5482WAT     H122648   5.224   1.532   4.341
 5482WAT     H222649   5.096   1.486   4.323
 5482WAT    EPW22650   5.170   1.474   4.344
 5483WAT      O22651   4.146   2.027   5.714
 5483WAT     H122652   4.142   2.077   5.643
 5483WAT     H222653   4.179   1.952   5.685
 5483WAT    EPW22654   4.150   2.023   5.699
 5484WAT      O22655   5.306   2.248   5.540
 5484WAT     H122656   5.355   2.320   5.550
 5484WAT     H222657   5.346   2.205   5.475
 5484WAT    EPW22658   5.319   2.252   5.532
 5485WAT      O22659   4.736   2.532   5.658
 5485WAT     H122660   4.771   2.514   5.735
 5485WAT     H222661   4.692   2.459   5.638
 5485WAT    EPW22662   4.735   2.519   5.666
 5486WAT      O22663   4.833   1.607   4.922
 5486WAT     H122664   4.881   1.677   4.942
 5486WAT     H222665   4.870   1.542   4.967
 5486WAT    EPW22666   4.846   1.608   4.931
 5487WAT      O22667   5.549   2.311   4.547
 5487WAT     H122668   5.585   2.276   4.619
 5487WAT     H222669   5.548   2.245   4.490
 5487WAT    EPW22670   5.554   2.296   4.549
 5488WAT      O22671   5.154   2.617   4.931
 5488WAT     H122672   5.093   2.588   4.876
 5488WAT     H222673   5.208   2.663   4.881
 5488WAT    EPW22674   5.153   2.620   4.916
 5489WAT      O22675   5.155   2.303   4.871
 5489WAT     H122676   5.075   2.325   4.899
 5489WAT     H222677   5.181   2.243   4.930
 5489WAT    EPW22678   5.147   2.297   4.884
 5490WAT      O22679   4.511   1.158   4.115
 5490WAT     H122680   4.521   1.147   4.201
 5490WAT     H222681   4.440   1.209   4.109
 5490WAT    EPW22682   4.502   1.164   4.127
 5491WAT      O22683   4.773   2.735   4.156
 5491WAT     H122684   4.836   2.752   4.215
 5491WAT     H222685   4.777   2.804   4.103
 5491WAT    EPW22686   4.783   2.748   4.157
 5492WAT      O22687   5.481   2.102   5.356
 5492WAT     H122688   5.486   2.115   5.270
 5492WAT     H222689   5.556   2.134   5.386
 5492WAT    EPW22690   5.493   2.109   5.348
 5493WAT      O22691   5.100   2.637   5.784
 5493WAT     H122692   5.116   2.666   5.865
 5493WAT     H222693   5.126   2.703   5.733
 5493WAT    EPW22694   5.106   2.651   5.788
 5494WAT      O22695   5.584   1.132   5.655
 5494WAT     H122696   5.520   1.092   5.611
 5494WAT     H222697   5.587   1.089   5.731
 5494WAT    EPW22698   5.575   1.120   5.659
 5495WAT      O22699   4.223   1.989   4.239
 5495WAT     H122700   4.256   1.911   4.217
 5495WAT     H222701   4.288   2.026   4.285
 5495WAT    EPW22702   4.238   1.983   4.243
 5496WAT      O22703   5.054   2.083   5.316
 5496WAT     H122704   5.039   2.144   5.376
 5496WAT     H222705   5.107   2.027   5.357
 5496WAT    EPW22706   5.060   2.084   5.331
 5497WAT      O22707   3.923   1.155   4.336
 5497WAT     H122708   3.936   1.084   4.287
 5497WAT     H222709   3.886   1.123   4.409
 5497WAT    EPW22710   3.920   1.140   4.340
 5498WAT      O22711   4.892   1.923   4.382
 5498WAT     H122712   4.898   1.988   4.440
 5498WAT     H222713   4.874   1.853   4.431
 5498WAT    EPW22714   4.891   1.922   4.398
 5499WAT      O22715   5.415   2.356   4.969
 5499WAT     H122716   5.367   2.386   4.902
 5499WAT     H222717   5.379   2.278   4.987
 5499WAT    EPW22718   5.403   2.349   4.962
 5500WAT      O22719   4.342   1.375   4.033
 5500WAT     H122720   4.291   1.380   3.962
 5500WAT     H222721   4.420   1.399   4.003
 5500WAT    EPW22722   4.346   1.379   4.018
 5501WAT      O22723   4.815   2.128   4.825
 5501WAT     H122724   4.730   2.108   4.833
 5501WAT     H222725   4.847   2.111   4.904
 5501WAT    EPW22726   4.807   2.122   4.838
 5502WAT      O22727   4.200   2.097   5.057
 5502WAT     H122728   4.272   2.146   5.053
 5502WAT     H222729   4.173   2.094   4.974
 5502WAT    EPW22730   4.206   2.104   5.044
 5503WAT      O22731   4.523   1.614   4.730
 5503WAT     H122732   4.607   1.595   4.740
 5503WAT     H222733   4.486   1.536   4.716
 5503WAT    EPW22734   4.530   1.600   4.729
 5504WAT      O22735   5.784   2.772   4.163
 5504WAT     H122736   5.854   2.726   4.138
 5504WAT     H222737   5.730   2.713   4.196
 5504WAT    EPW22738   5.787   2.757   4.164
 5505WAT      O22739   4.005   1.748   4.396
 5505WAT     H122740   4.054   1.719   4.462
 5505WAT     H222741   4.018   1.689   4.333
 5505WAT    EPW22742   4.014   1.735   4.396
 5506WAT      O22743   5.508   2.050   5.081
 5506WAT     H122744   5.507   1.972   5.120
 5506WAT     H222745   5.424   2.073   5.080
 5506WAT    EPW22746   5.496   2.042   5.086
 5507WAT      O22747   4.457   1.891   3.944
 5507WAT     H122748   4.396   1.851   3.992
 5507WAT     H222749   4.419   1.903   3.867
 5507WAT    EPW22750   4.442   1.887   3.940
 5508WAT      O22751   5.634   2.057   4.824
 5508WAT     H122752   5.605   2.097   4.896
 5508WAT     H222753   5.720   2.051   4.837
 5508WAT    EPW22754   5.642   2.062   4.837
 5509WAT      O22755   4.603   1.737   4.215
 5509WAT     H122756   4.630   1.820   4.222
 5509WAT     H222757   4.516   1.745   4.206
 5509WAT    EPW22758   4.594   1.751   4.215
 5510WAT      O22759   5.400   1.450   5.678
 5510WAT     H122760   5.347   1.495   5.731
 5510WAT     H222761   5.364   1.370   5.678
 5510WAT    EPW22762   5.387   1.445   5.686
 5511WAT      O22763   3.951   1.334   4.869
 5511WAT     H122764   3.955   1.369   4.789
 5511WAT     H222765   4.026   1.358   4.905
 5511WAT    EPW22766   3.962   1.343   4.862
 5512WAT      O22767   5.747   2.620   4.877
 5512WAT     H122768   5.776   2.646   4.799
 5512WAT     H222769   5.816   2.630   4.929
 5512WAT    EPW22770   5.761   2.626   4.873
 5513WAT      O22771   5.249   1.806   5.686
 5513WAT     H122772   5.256   1.817   5.772
 5513WAT     H222773   5.186   1.862   5.664
 5513WAT    EPW22774   5.241   1.816   5.695
 5514WAT      O22775   5.476   1.838   5.522
 5514WAT     H122776   5.508   1.917   5.543
 5514WAT     H222777   5.439   1.811   5.597
 5514WAT    EPW22778   5.475   1.846   5.536
 5515WAT      O22779   5.407   2.481   4.075
 5515WAT     H122780   5.441   2.400   4.079
 5515WAT     H222781   5.332   2.474   4.118
 5515WAT    EPW22782   5.401   2.468   4.082
 5516WAT      O22783   5.456   1.664   4.641
 5516WAT     H122784   5.381   1.632   4.673
 5516WAT     H222785   5.456   1.747   4.669
 5516WAT    EPW22786   5.445   1.672   4.650
 5517WAT      O22787   5.746   1.893   5.796
 5517WAT     H122788   5.741   1.858   5.716
 5517WAT     H222789   5.819   1.939   5.794
 5517WAT    EPW22790   5.756   1.894   5.784
 5518WAT      O22791   5.700   2.260   5.417
 5518WAT     H122792   5.762   2.205   5.391
 5518WAT     H222793   5.693   2.317   5.350
 5518WAT    EPW22794   5.708   2.260   5.403
 5519WAT      O22795   5.145   2.268   4.016
 5519WAT     H122796   5.213   2.217   3.999
 5519WAT     H222797   5.103   2.273   3.939
 5519WAT    EPW22798   5.149   2.261   4.002
 5520WAT      O22799   4.613   2.383   5.146
 5520WAT     H122800   4.583   2.442   5.203
 5520WAT     H222801   4.618   2.427   5.071
 5520WAT    EPW22802   4.609   2.399   5.143
 5521WAT      O22803   4.411   2.278   5.486
 5521WAT     H122804   4.330   2.249   5.503
 5521WAT     H222805   4.402   2.365   5.487
 5521WAT    EPW22806   4.398   2.287   5.488
 5522WAT      O22807   5.347   1.297   5.387
 5522WAT     H122808   5.421   1.342   5.381
 5522WAT     H222809   5.290   1.344   5.341
 5522WAT    EPW22810   5.349   1.311   5.380
 5523WAT      O22811   4.865   2.026   5.095
 5523WAT     H122812   4.912   2.063   5.158
 5523WAT     H222813   4.782   2.039   5.121
 5523WAT    EPW22814   4.859   2.033   5.108
 5524WAT      O22815   4.536   1.586   5.369
 5524WAT     H122816   4.552   1.511   5.412
 5524WAT     H222817   4.531   1.561   5.286
 5524WAT    EPW22818   4.537   1.571   5.363
 5525WAT      O22819   4.791   2.765   4.618
 5525WAT     H122820   4.846   2.833   4.623
 5525WAT     H222821   4.756   2.773   4.539
 5525WAT    EPW22822   4.794   2.776   4.607
 5526WAT      O22823   5.475   1.095   5.154
 5526WAT     H122824   5.447   1.178   5.150
 5526WAT     H222825   5.547   1.100   5.204
 5526WAT    EPW22826   5.482   1.108   5.161
 5527WAT      O22827   4.711   1.167   5.357
 5527WAT     H122828   4.781   1.199   5.317
 5527WAT     H222829   4.735   1.086   5.380
 5527WAT    EPW22830   4.725   1.159   5.355
 5528WAT      O22831   4.609   2.588   4.957
 5528WAT     H122832   4.547   2.646   4.939
 5528WAT     H222833   4.634   2.559   4.878
 5528WAT    EPW22834   4.604   2.592   4.943
 5529WAT      O22835   5.040   2.251   5.656
 5529WAT     H122836   5.116   2.280   5.623
 5529WAT     H222837   4.985   2.256   5.588
 5529WAT    EPW22838   5.043   2.256   5.641
 5530WAT      O22839   5.431   2.506   5.506
 5530WAT     H122840   5.466   2.533   5.582
 5530WAT     H222841   5.460   2.564   5.448
 5530WAT    EPW22842   5.441   2.519   5.509
 5531WAT      O22843   5.617   1.721   4.040
 5531WAT     H122844   5.655   1.788   4.000
 5531WAT     H222845   5.533   1.743   4.043
 5531WAT    EPW22846   5.610   1.734   4.035
 5532WAT      O22847   4.769   2.065   3.948
 5532WAT     H122848   4.688   2.048   3.920
 5532WAT     H222849   4.765   2.150   3.968
 5532WAT    EPW22850   4.756   2.075   3.947
 5533WAT      O22851   4.362   1.672   4.963
 5533WAT     H122852   4.406   1.662   4.889
 5533WAT     H222853   4.416   1.641   5.024
 5533WAT    EPW22854   4.376   1.666   4.961
 5534WAT      O22855   5.163   1.582   5.523
 5534WAT     H122856   5.098   1.629   5.557
 5534WAT     H222857   5.220   1.573   5.589
 5534WAT    EPW22858   5.162   1.588   5.538
 5535WAT      O22859   5.132   1.736   5.152
 5535WAT     H122860   5.162   1.778   5.223
 5535WAT     H222861   5.136   1.652   5.176
 5535WAT    EPW22862   5.137   1.730   5.166
 5536WAT      O22863   4.875   2.753   5.545
 5536WAT     H122864   4.922   2.693   5.503
 5536WAT     H222865   4.839   2.708   5.611
 5536WAT    EPW22866   4.876   2.737   5.549
 5537WAT      O22867   5.387   1.681   4.378
 5537WAT     H122868   5.408   1.660   4.460
 5537WAT     H222869   5.462   1.707   4.343
 5537WAT    EPW22870   5.401   1.682   4.385
 5538WAT      O22871   4.716   1.170   4.968
 5538WAT     H122872   4.634   1.156   4.992
 5538WAT     H222873   4.712   1.174   4.881
 5538WAT    EPW22874   4.704   1.169   4.959
 5539WAT      O22875   5.489   1.289   4.525
 5539WAT     H122876   5.418   1.242   4.542
 5539WAT     H222877   5.473   1.323   4.446
 5539WAT    EPW22878   5.476   1.287   4.516
 5540WAT      O22879   5.533   2.083   4.363
 5540WAT     H122880   5.581   2.010   4.358
 5540WAT     H222881   5.451   2.055   4.355
 5540WAT    EPW22882   5.528   2.068   4.361
 5541WAT      O22883   4.880   2.274   5.447
 5541WAT     H122884   4.801   2.268   5.482
 5541WAT     H222885   4.888   2.359   5.427
 5541WAT    EPW22886   4.870   2.286   5.449
 5542WAT      O22887   3.973   1.210   5.572
 5542WAT     H122888   3.959   1.290   5.539
 5542WAT     H222889   3.894   1.186   5.601
 5542WAT    EPW22890   3.959   1.218   5.571
 5543WAT      O22891   4.463   2.895   4.979
 5543WAT     H122892   4.465   2.901   5.066
 5543WAT     H222893   4.421   2.820   4.964
 5543WAT    EPW22894   4.457   2.885   4.989
 5544WAT      O22895   4.279   1.485   4.294
 5544WAT     H122896   4.292   1.452   4.214
 5544WAT     H222897   4.198   1.460   4.314
 5544WAT    EPW22898   4.269   1.476   4.285
 5545WAT      O22899   5.155   2.200   4.599
 5545WAT     H122900   5.163   2.234   4.678
 5545WAT     H222901   5.172   2.115   4.611
 5545WAT    EPW22902   5.159   2.192   4.612
 5546WAT      O22903   4.907   2.127   4.555
 5546WAT     H122904   4.877   2.096   4.631
 5546WAT     H222905   4.977   2.175   4.579
 5546WAT    EPW22906   4.913   2.130   4.570
 5547WAT      O22907   4.929   2.539   5.358
 5547WAT     H122908   4.998   2.528   5.410
 5547WAT     H222909   4.943   2.618   5.323
 5547WAT    EPW22910   4.941   2.549   5.360
 5548WAT      O22911   5.747   1.800   5.539
 5548WAT     H122912   5.661   1.788   5.551
 5548WAT     H222913   5.762   1.761   5.463
 5548WAT    EPW22914   5.737   1.792   5.529
 5549WAT      O22915   5.198   1.867   5.396
 5549WAT     H122916   5.173   1.795   5.439
 5549WAT     H222917   5.280   1.878   5.423
 5549WAT    EPW22918   5.207   1.858   5.407
 5550WAT      O22919   4.140   2.845   5.523
 5550WAT     H122920   4.074   2.788   5.533
 5550WAT     H222921   4.102   2.922   5.538
 5550WAT    EPW22922   4.125   2.848   5.527
 5551WAT      O22923   4.992   1.986   5.715
 5551WAT     H122924   5.024   2.054   5.672
 5551WAT     H222925   4.921   2.018   5.755
 5551WAT    EPW22926   4.986   2.000   5.715
 5552WAT      O22927   5.300   2.823   4.808
 5552WAT     H122928   5.255   2.887   4.846
 5552WAT     H222929   5.371   2.815   4.859
 5552WAT    EPW22930   5.304   2.831   4.821
 5553WAT      O22931   4.970   2.332   5.101
 5553WAT     H122932   4.901   2.372   5.135
 5553WAT     H222933   5.038   2.375   5.135
 5553WAT    EPW22934   4.970   2.344   5.111
 5554WAT      O22935   5.508   2.591   5.759
 5554WAT     H122936   5.585   2.552   5.767
 5554WAT     H222937   5.461   2.558   5.825
 5554WAT    EPW22938   5.512   2.581   5.770
 5555WAT      O22939   4.277   1.686   5.336
 5555WAT     H122940   4.314   1.748   5.287
 5555WAT     H222941   4.344   1.638   5.364
 5555WAT    EPW22942   4.292   1.688   5.333
 5556WAT      O22943   4.054   1.531   5.263
 5556WAT     H122944   4.062   1.514   5.178
 5556WAT     H222945   4.129   1.571   5.283
 5556WAT    EPW22946   4.067   1.534   5.254
 5557WAT      O22947   5.610   1.795   4.307
 5557WAT     H122948   5.621   1.789   4.221
 5557WAT     H222949   5.684   1.761   4.339
 5557WAT    EPW22950   5.623   1.789   4.299
 5558WAT      O22951   4.310   1.272   5.504
 5558WAT     H122952   4.302   1.187   5.525
 5558WAT     H222953   4.278   1.276   5.423
 5558WAT    EPW22954   4.304   1.260   5.495
 5559WAT      O22955   5.002   2.491   4.418
 5559WAT     H122956   4.982   2.574   4.402
 5559WAT     H222957   4.925   2.453   4.430
 5559WAT    EPW22958   4.988   2.498   4.417
 5560WAT      O22959   5.521   1.809   5.243
 5560WAT     H122960   5.520   1.723   5.255
 5560WAT     H222961   5.527   1.842   5.324
 5560WAT    EPW22962   5.522   1.801   5.257
 5561WAT      O22963   3.994   2.053   5.286
 5561WAT     H122964   4.026   2.075   5.208
 5561WAT     H222965   3.984   1.967   5.280
 5561WAT    EPW22966   3.997   2.044   5.273
 5562WAT      O22967   4.140   1.647   3.947
 5562WAT     H122968   4.073   1.648   4.003
 5562WAT     H222969   4.149   1.562   3.929
 5562WAT    EPW22970   4.131   1.634   3.953
 5563WAT      O22971   5.108   1.289   5.621
 5563WAT     H122972   5.118   1.360   5.670
 5563WAT     H222973   5.045   1.245   5.661
 5563WAT    EPW22974   5.100   1.293   5.634
 5564WAT      O22975   5.008   1.308   4.706
 5564WAT     H122976   4.938   1.360   4.701
 5564WAT     H222977   5.012   1.270   4.628
 5564WAT    EPW22978   4.998   1.310   4.694
 5565WAT      O22979   5.368   1.360   4.986
 5565WAT     H122980   5.453   1.370   5.001
 5565WAT     H222981   5.331   1.415   5.043
 5565WAT    EPW22982   5.375   1.369   4.997
 5566WAT      O22983   4.470   1.982   5.424
 5566WAT     H122984   4.431   2.060   5.432
 5566WAT     H222985   4.430   1.945   5.357
 5566WAT    EPW22986   4.459   1.988   5.415
 5567WAT      O22987   5.398   1.888   4.836
 5567WAT     H122988   5.465   1.942   4.852
 5567WAT     H222989   5.364   1.919   4.762
 5567WAT    EPW22990   5.403   1.900   4.827
 5568WAT      O22991   5.429   2.694   4.416
 5568WAT     H122992   5.412   2.629   4.471
 5568WAT     H222993   5.501   2.667   4.374
 5568WAT    EPW22994   5.437   2.681   4.418
 5569WAT      O22995   4.513   1.280   5.169
 5569WAT     H122996   4.427   1.288   5.177
 5569WAT     H222997   4.535   1.229   5.236
 5569WAT    EPW22998   4.504   1.274   5.180
 5570WAT      O22999   5.715   1.144   5.302
 5570WAT     H123000   5.710   1.139   5.389
 5570WAT     H223001   5.784   1.093   5.283
 5570WAT    EPW23002   5.725   1.136   5.312
 5571WAT      O23003   4.924   1.355   5.007
 5571WAT     H123004   4.850   1.309   5.018
 5571WAT     H223005   4.981   1.315   5.059
 5571WAT    EPW23006   4.921   1.342   5.016
 5572WAT      O23007   5.197   2.440   5.185
 5572WAT     H123008   5.217   2.470   5.265
 5572WAT     H223009   5.191   2.512   5.137
 5572WAT    EPW23010   5.199   2.455   5.190
 5573WAT      O23011   5.150   2.861   5.610
 5573WAT     H123012   5.075   2.859   5.566
 5573WAT     H223013   5.167   2.946   5.618
 5573WAT    EPW23014   5.142   2.873   5.605
 5574WAT      O23015   4.674   1.788   5.527
 5574WAT     H123016   4.642   1.730   5.470
 5574WAT     H223017   4.638   1.863   5.502
 5574WAT    EPW23018   4.664   1.790   5.515
 5575WAT      O23019   4.754   1.113   3.990
 5575WAT     H123020   4.761   1.138   3.906
 5575WAT     H223021   4.679   1.151   4.015
 5575WAT    EPW23022   4.744   1.122   3.981
 5576WAT      O23023   5.678   2.304   5.131
 5576WAT     H123024   5.675   2.217   5.118
 5576WAT     H223025   5.609   2.334   5.088
 5576WAT    EPW23026   5.667   2.295   5.123
 5577WAT      O23027   4.517   2.823   5.552
 5577WAT     H123028   4.522   2.836   5.638
 5577WAT     H223029   4.583   2.767   5.536
 5577WAT    EPW23030   4.528   2.817   5.562
 5578WAT      O23031   5.489   2.630   5.011
 5578WAT     H123032   5.541   2.621   4.942
 5578WAT     H223033   5.449   2.552   5.016
 5578WAT    EPW23034   5.491   2.617   5.001
 5579WAT      O23035   4.235   1.288   5.234
 5579WAT     H123036   4.201   1.212   5.211
 5579WAT     H223037   4.166   1.341   5.240
 5579WAT    EPW23038   4.220   1.285   5.231
 5580WAT      O23039   5.140   1.174   4.932
 5580WAT     H123040   5.207   1.228   4.944
 5580WAT     H223041   5.090   1.216   4.874
 5580WAT    EPW23042   5.142   1.188   4.925
 5581WAT      O23043   4.277   2.662   5.688
 5581WAT     H123044   4.336   2.705   5.735
 5581WAT     H223045   4.240   2.724   5.639
 5581WAT    EPW23046   4.280   2.677   5.687
 5582WAT      O23047   5.076   1.755   4.681
 5582WAT     H123048   5.131   1.694   4.711
 5582WAT     H223049   5.033   1.781   4.752
 5582WAT    EPW23050   5.078   1.750   4.696
 5583WAT      O23051   4.101   1.620   4.630
 5583WAT     H123052   4.064   1.650   4.703
 5583WAT     H223053   4.154   1.557   4.658
 5583WAT    EPW23054   4.103   1.615   4.645
 5584WAT      O23055   4.069   2.461   5.381
 5584WAT     H123056   4.012   2.502   5.432
 5584WAT     H223057   4.143   2.507   5.390
 5584WAT    EPW23058   4.072   2.474   5.390
 5585WAT      O23059   5.273   1.938   4.337
 5585WAT     H123060   5.280   1.853   4.355
 5585WAT     H223061   5.191   1.946   4.309
 5585WAT    EPW23062   5.262   1.927   4.336
 5586WAT      O23063   4.665   2.027   4.231
 5586WAT     H123064   4.675   2.041   4.145
 5586WAT     H223065   4.747   2.021   4.261
 5586WAT    EPW23066   4.678   2.028   4.223
 5587WAT      O23067   5.581   2.833   3.979
 5587WAT     H123068   5.644   2.820   4.037
 5587WAT     H223069   5.547   2.754   3.967
 5587WAT    EPW23070   5.585   2.820   3.986
 5588WAT      O23071   5.600   2.075   5.652
 5588WAT     H123072   5.664   2.058   5.710
 5588WAT     H223073   5.642   2.115   5.587
 5588WAT    EPW23074   5.616   2.079   5.651
 5589WAT      O23075   5.188   2.460   4.211
 5589WAT     H123076   5.163   2.447   4.294
 5589WAT     H223077   5.157   2.390   4.169
 5589WAT    EPW23078   5.180   2.448   4.217
 5590WAT      O23079   5.663   1.532   5.726
 5590WAT     H123080   5.643   1.596   5.782
 5590WAT     H223081   5.591   1.483   5.725
 5590WAT    EPW23082   5.649   1.534   5.734
 5591WAT      O23083   5.653   1.626   5.023
 5591WAT     H123084   5.569   1.651   5.016
 5591WAT     H223085   5.647   1.542   5.046
 5591WAT    EPW23086   5.640   1.617   5.025
 5592WAT      O23087   4.579   1.324   5.543
 5592WAT     H123088   4.602   1.267   5.481
 5592WAT     H223089   4.494   1.306   5.557
 5592WAT    EPW23090   4.570   1.313   5.536
 5593WAT      O23091   5.341   2.086   5.788
 5593WAT     H123092   5.428   2.083   5.784
 5593WAT     H223093   5.319   2.128   5.715
 5593WAT    EPW23094   5.351   2.092   5.776
 5594WAT      O23095   4.317   2.669   4.906
 5594WAT     H123096   4.309   2.588   4.874
 5594WAT     H223097   4.272   2.717   4.849
 5594WAT    EPW23098   4.309   2.664   4.893
 5595WAT      O23099   4.877   2.281   4.154
 5595WAT     H123100   4.949   2.246   4.119
 5595WAT     H223101   4.873   2.361   4.119
 5595WAT    EPW23102   4.887   2.287   4.144
 5596WAT      O23103   5.018   1.145   2.578
 5596WAT     H123104   4.993   1.194   2.510
 5596WAT     H223105   5.104   1.137   2.568
 5596WAT    EPW23106   5.027   1.151   2.567
 5597WAT      O23107   3.986   2.250   2.591
 5597WAT     H123108   3.941   2.262   2.665
 5597WAT     H223109   3.957   2.173   2.562
 5597WAT    EPW23110   3.975   2.241   2.598
 5598WAT      O23111   5.613   2.580   2.342
 5598WAT     H123112   5.683   2.529   2.342
 5598WAT     H223113   5.554   2.536   2.295
 5598WAT    EPW23114   5.615   2.566   2.335
 5599WAT      O23115   3.960   1.630   2.241
 5599WAT     H123116   3.882   1.646   2.205
 5599WAT     H223117   3.964   1.542   2.244
 5599WAT    EPW23118   3.949   1.619   2.236
 5600WAT      O23119   4.274   2.156   2.109
 5600WAT     H123120   4.235   2.119   2.040
 5600WAT     H223121   4.266   2.096   2.172
 5600WAT    EPW23122   4.267   2.142   2.108
 5601WAT      O23123   5.266   1.943   2.713
 5601WAT     H123124   5.274   1.943   2.626
 5601WAT     H223125   5.207   1.880   2.728
 5601WAT    EPW23126   5.258   1.934   2.702
 5602WAT      O23127   4.236   2.320   2.499
 5602WAT     H123128   4.297   2.303   2.559
 5602WAT     H223129   4.161   2.306   2.541
 5602WAT    EPW23130   4.234   2.315   2.514
 5603WAT      O23131   4.665   1.253   2.494
 5603WAT     H123132   4.658   1.321   2.439
 5603WAT     H223133   4.739   1.215   2.469
 5603WAT    EPW23134   4.675   1.258   2.482
 5604WAT      O23135   4.126   2.629   2.106
 5604WAT     H123136   4.172   2.637   2.033
 5604WAT     H223137   4.171   2.571   2.153
 5604WAT    EPW23138   4.139   2.622   2.102
 5605WAT      O23139   4.124   1.976   2.636
 5605WAT     H123140   4.078   1.937   2.574
 5605WAT     H223141   4.194   1.925   2.646
 5605WAT    EPW23142   4.128   1.963   2.629
 5606WAT      O23143   4.575   1.537   3.171
 5606WAT     H123144   4.643   1.539   3.116
 5606WAT     H223145   4.570   1.453   3.196
 5606WAT    EPW23146   4.584   1.525   3.167
 5607WAT      O23147   4.324   1.786   2.639
 5607WAT     H123148   4.406   1.767   2.663
 5607WAT     H223149   4.277   1.725   2.678
 5607WAT    EPW23150   4.329   1.774   2.648
 5608WAT      O23151   4.750   2.329   2.521
 5608WAT     H123152   4.783   2.265   2.569
 5608WAT     H223153   4.774   2.308   2.440
 5608WAT    EPW23154   4.759   2.316   2.516
 5609WAT      O23155   4.947   1.742   3.655
 5609WAT     H123156   4.862   1.732   3.637
 5609WAT     H223157   4.950   1.817   3.700
 5609WAT    EPW23158   4.935   1.752   3.659
 5610WAT      O23159   4.384   1.295   2.565
 5610WAT     H123160   4.354   1.345   2.500
 5610WAT     H223161   4.471   1.303   2.560
 5610WAT    EPW23162   4.392   1.304   2.555
 5611WAT      O23163   5.403   1.038   3.566
 5611WAT     H123164   5.387   1.115   3.528
 5611WAT     H223165   5.326   1.016   3.601
 5611WAT    EPW23166   5.389   1.046   3.566
 5612WAT      O23167   4.682   1.210   2.788
 5612WAT     H123168   4.689   1.296   2.801
 5612WAT     H223169   4.678   1.202   2.701
 5612WAT    EPW23170   4.682   1.221   2.777
 5613WAT      O23171   5.149   1.502   2.018
 5613WAT     H123172   5.104   1.570   2.048
 5613WAT     H223173   5.161   1.452   2.088
 5613WAT    EPW23174   5.144   1.505   2.032
 5614WAT      O23175   3.970   1.752   2.938
 5614WAT     H123176   3.944   1.835   2.930
 5614WAT     H223177   3.903   1.714   2.979
 5614WAT    EPW23178   3.956   1.759   2.943
 5615WAT      O23179   4.545   2.507   2.476
 5615WAT     H123180   4.487   2.480   2.535
 5615WAT     H223181   4.607   2.447   2.478
 5615WAT    EPW23182   4.545   2.494   2.485
 5616WAT      O23183   5.159   2.736   2.228
 5616WAT     H123184   5.232   2.783   2.238
 5616WAT     H223185   5.182   2.657   2.256
 5616WAT    EPW23186   5.173   2.732   2.234
 5617WAT      O23187   4.976   2.775   2.427
 5617WAT     H123188   4.997   2.828   2.493
 5617WAT     H223189   5.053   2.758   2.389
 5617WAT    EPW23190   4.990   2.781   2.431
 5618WAT      O23191   4.273   1.234   2.987
 5618WAT     H123192   4.221   1.171   2.956
 5618WAT     H223193   4.332   1.190   3.034
 5618WAT    EPW23194   4.274   1.218   2.989
 5619WAT      O23195   4.603   1.447   3.917
 5619WAT     H123196   4.615   1.402   3.843
 5619WAT     H223197   4.632   1.527   3.896
 5619WAT    EPW23198   4.609   1.452   3.903
 5620WAT      O23199   5.689   1.499   2.647
 5620WAT     H123200   5.654   1.567   2.690
 5620WAT     H223201   5.625   1.440   2.649
 5620WAT    EPW23202   5.674   1.501   2.654
 5621WAT      O23203   4.177   1.407   3.815
 5621WAT     H123204   4.099   1.368   3.808
 5621WAT     H223205   4.226   1.366   3.756
 5621WAT    EPW23206   4.172   1.395   3.805
 5622WAT      O23207   4.841   1.171   3.732
 5622WAT     H123208   4.859   1.090   3.704
 5622WAT     H223209   4.827   1.215   3.658
 5622WAT    EPW23210   4.842   1.166   3.717
 5623WAT      O23211   4.901   1.664   2.609
 5623WAT     H123212   4.930   1.640   2.530
 5623WAT     H223213   4.974   1.672   2.656
 5623WAT    EPW23214   4.916   1.661   2.604
 5624WAT      O23215   4.973   1.698   2.121
 5624WAT     H123216   5.001   1.776   2.146
 5624WAT     H223217   4.895   1.714   2.085
 5624WAT    EPW23218   4.966   1.712   2.120
 5625WAT      O23219   5.377   2.895   2.268
 5625WAT     H123220   5.444   2.880   2.213
 5625WAT     H223221   5.413   2.887   2.347
 5625WAT    EPW23222   5.392   2.892   2.272
 5626WAT      O23223   5.656   1.332   3.184
 5626WAT     H123224   5.732   1.339   3.141
 5626WAT     H223225   5.662   1.254   3.224
 5626WAT    EPW23226   5.668   1.321   3.183
 5627WAT      O23227   3.911   1.462   3.574
 5627WAT     H123228   3.911   1.520   3.638
 5627WAT     H223229   3.971   1.493   3.518
 5627WAT    EPW23230   3.920   1.475   3.575
 5628WAT      O23231   5.145   2.495   3.628
 5628WAT     H123232   5.142   2.533   3.706
 5628WAT     H223233   5.231   2.491   3.611
 5628WAT    EPW23234   5.157   2.500   3.637
 5629WAT      O23235   4.859   2.515   2.103
 5629WAT     H123236   4.841   2.569   2.169
 5629WAT     H223237   4.936   2.544   2.073
 5629WAT    EPW23238   4.868   2.527   2.108
 5630WAT      O23239   5.210   1.304   2.208
 5630WAT     H123240   5.264   1.236   2.216
 5630WAT     H223241   5.216   1.344   2.286
 5630WAT    EPW23242   5.219   1.300   2.221
 5631WAT      O23243   4.005   1.421   2.465
 5631WAT     H123244   3.994   1.335   2.468
 5631WAT     H223245   3.958   1.450   2.532
 5631WAT    EPW23246   3.996   1.413   2.475
 5632WAT      O23247   4.935   1.542   2.340
 5632WAT     H123248   4.885   1.476   2.314
 5632WAT     H223249   4.941   1.592   2.269
 5632WAT    EPW23250   4.929   1.540   2.325
 5633WAT      O23251   4.935   1.236   2.329
 5633WAT     H123252   4.890   1.196   2.266
 5633WAT     H223253   5.013   1.251   2.291
 5633WAT    EPW23254   4.940   1.232   2.314
 5634WAT      O23255   5.618   2.872   2.668
 5634WAT     H123256   5.573   2.943   2.688
 5634WAT     H223257   5.557   2.815   2.644
 5634WAT    EPW23258   5.602   2.874   2.667
 5635WAT      O23259   4.795   1.473   2.781
 5635WAT     H123260   4.803   1.529   2.715
 5635WAT     H223261   4.807   1.522   2.852
 5635WAT    EPW23262   4.798   1.488   2.782
 5636WAT      O23263   5.318   2.456   2.622
 5636WAT     H123264   5.388   2.408   2.641
 5636WAT     H223265   5.252   2.399   2.627
 5636WAT    EPW23266   5.318   2.441   2.626
 5637WAT      O23267   4.256   1.055   2.616
 5637WAT     H123268   4.310   1.124   2.615
 5637WAT     H223269   4.256   1.028   2.533
 5637WAT    EPW23270   4.264   1.061   2.603
 5638WAT      O23271   4.552   2.098   3.018
 5638WAT     H123272   4.569   2.077   3.101
 5638WAT     H223273   4.486   2.045   2.997
 5638WAT    EPW23274   4.545   2.087   3.027
 5639WAT      O23275   5.174   1.490   3.370
 5639WAT     H123276   5.165   1.522   3.450
 5639WAT     H223277   5.115   1.426   3.366
 5639WAT    EPW23278   5.164   1.485   3.381
 5640WAT      O23279   5.244   2.162   3.190
 5640WAT     H123280   5.193   2.120   3.247
 5640WAT     H223281   5.232   2.246   3.208
 5640WAT    EPW23282   5.235   2.168   3.201
 5641WAT      O23283   5.300   1.084   2.653
 5641WAT     H123284   5.305   1.052   2.734
 5641WAT     H223285   5.332   1.020   2.604
 5641WAT    EPW23286   5.306   1.070   2.658
 5642WAT      O23287   5.546   1.508   3.484
 5642WAT     H123288   5.624   1.485   3.518
 5642WAT     H223289   5.499   1.529   3.554
 5642WAT    EPW23290   5.551   1.508   3.499
 5643WAT      O23291   4.301   1.436   2.781
 5643WAT     H123292   4.328   1.393   2.710
 5643WAT     H223293   4.283   1.372   2.838
 5643WAT    EPW23294   4.302   1.420   2.779
 5644WAT      O23295   5.570   2.205   2.203
 5644WAT     H123296   5.582   2.177   2.284
 5644WAT     H223297   5.650   2.208   2.170
 5644WAT    EPW23298   5.583   2.202   2.210
 5645WAT      O23299   4.283   2.179   2.736
 5645WAT     H123300   4.368   2.171   2.719
 5645WAT     H223301   4.248   2.110   2.695
 5645WAT    EPW23302   4.291   2.167   2.727
 5646WAT      O23303   4.115   1.546   3.089
 5646WAT     H123304   4.199   1.568   3.085
 5646WAT     H223305   4.076   1.603   3.036
 5646WAT    EPW23306   4.122   1.558   3.081
 5647WAT      O23307   5.793   2.656   3.628
 5647WAT     H123308   5.725   2.687   3.584
 5647WAT     H223309   5.756   2.611   3.693
 5647WAT    EPW23310   5.777   2.654   3.631
 5648WAT      O23311   5.359   1.859   2.161
 5648WAT     H123312   5.337   1.932   2.119
 5648WAT     H223313   5.314   1.864   2.236
 5648WAT    EPW23314   5.349   1.871   2.166
 5649WAT      O23315   4.520   2.179   2.560
 5649WAT     H123316   4.591   2.229   2.569
 5649WAT     H223317   4.542   2.123   2.497
 5649WAT    EPW23318   4.534   2.178   2.552
 5650WAT      O23319   5.778   1.345   2.107
 5650WAT     H123320   5.712   1.288   2.109
 5650WAT     H223321   5.759   1.396   2.039
 5650WAT    EPW23322   5.765   1.344   2.097
 5651WAT      O23323   3.936   2.344   2.892
 5651WAT     H123324   3.869   2.392   2.919
 5651WAT     H223325   4.004   2.398   2.894
 5651WAT    EPW23326   3.936   2.359   2.896
 5652WAT      O23327   4.700   1.715   3.901
 5652WAT     H123328   4.652   1.772   3.945
 5652WAT     H223329   4.698   1.744   3.819
 5652WAT    EPW23330   4.693   1.728   3.896
 5653WAT      O23331   5.810   1.783   3.362
 5653WAT     H123332   5.832   1.703   3.335
 5653WAT     H223333   5.725   1.789   3.343
 5653WAT    EPW23334   5.801   1.772   3.355
 5654WAT      O23335   3.942   2.012   2.402
 5654WAT     H123336   3.924   1.928   2.417
 5654WAT     H223337   4.008   2.008   2.345
 5654WAT    EPW23338   3.949   1.999   2.396
 5655WAT      O23339   5.578   1.301   2.335
 5655WAT     H123340   5.653   1.260   2.355
 5655WAT     H223341   5.604   1.373   2.292
 5655WAT    EPW23342   5.593   1.306   2.331
 5656WAT      O23343   4.972   2.550   2.792
 5656WAT     H123344   4.920   2.613   2.763
 5656WAT     H223345   5.003   2.513   2.719
 5656WAT    EPW23346   4.969   2.554   2.777
 5657WAT      O23347   3.959   2.428   2.359
 5657WAT     H123348   4.015   2.485   2.396
 5657WAT     H223349   3.936   2.377   2.426
 5657WAT    EPW23350   3.964   2.429   2.375
 5658WAT      O23351   5.223   1.530   2.842
 5658WAT     H123352   5.258   1.545   2.921
 5658WAT     H223353   5.178   1.456   2.853
 5658WAT    EPW23354   5.222   1.521   2.855
 5659WAT      O23355   4.036   2.095   2.923
 5659WAT     H123356   4.080   2.083   2.848
 5659WAT     H223357   4.016   2.180   2.920
 5659WAT    EPW23358   4.040   2.106   2.911
 5660WAT      O23359   4.671   1.452   2.288
 5660WAT     H123360   4.671   1.440   2.201
 5660WAT     H223361   4.653   1.537   2.297
 5660WAT    EPW23362   4.668   1.463   2.276
 5661WAT      O23363   5.576   2.695   3.437
 5661WAT     H123364   5.509   2.746   3.459
 5661WAT     H223365   5.583   2.705   3.351
 5661WAT    EPW23366   5.567   2.704   3.428
 5662WAT      O23367   4.258   1.795   3.737
 5662WAT     H123368   4.204   1.745   3.784
 5662WAT     H223369   4.260   1.756   3.659
 5662WAT    EPW23370   4.250   1.782   3.732
 5663WAT      O23371   4.306   1.735   2.251
 5663WAT     H123372   4.294   1.690   2.325
 5663WAT     H223373   4.248   1.701   2.196
 5663WAT    EPW23374   4.296   1.723   2.254
 5664WAT      O23375   4.323   1.918   2.911
 5664WAT     H123376   4.245   1.912   2.873
 5664WAT     H223377   4.330   1.843   2.955
 5664WAT    EPW23378   4.313   1.906   2.912
 5665WAT      O23379   4.366   1.892   3.258
 5665WAT     H123380   4.369   1.824   3.203
 5665WAT     H223381   4.301   1.941   3.227
 5665WAT    EPW23382   4.357   1.889   3.245
 5666WAT      O23383   5.356   1.663   3.097
 5666WAT     H123384   5.289   1.696   3.144
 5666WAT     H223385   5.374   1.726   3.040
 5666WAT    EPW23386   5.349   1.677   3.096
 5667WAT      O23387   5.020   1.254   3.440
 5667WAT     H123388   5.035   1.171   3.416
 5667WAT     H223389   5.058   1.259   3.519
 5667WAT    EPW23390   5.028   1.242   3.448
 5668WAT      O23391   5.175   1.460   2.448
 5668WAT     H123392   5.224   1.532   2.441
 5668WAT     H223393   5.096   1.486   2.422
 5668WAT    EPW23394   5.170   1.474   2.443
 5669WAT      O23395   5.306   2.248   3.639
 5669WAT     H123396   5.355   2.320   3.649
 5669WAT     H223397   5.346   2.205   3.574
 5669WAT    EPW23398   5.319   2.252   3.631
 5670WAT      O23399   4.833   1.607   3.021
 5670WAT     H123400   4.881   1.677   3.042
 5670WAT     H223401   4.870   1.542   3.066
 5670WAT    EPW23402   4.846   1.608   3.031
 5671WAT      O23403   5.052   1.924   2.248
 5671WAT     H123404   5.051   1.996   2.199
 5671WAT     H223405   4.988   1.937   2.306
 5671WAT    EPW23406   5.042   1.937   2.250
 5672WAT      O23407   5.549   2.311   2.646
 5672WAT     H123408   5.585   2.276   2.718
 5672WAT     H223409   5.548   2.245   2.589
 5672WAT    EPW23410   5.554   2.296   2.649
 5673WAT      O23411   5.155   2.303   2.971
 5673WAT     H123412   5.075   2.325   2.998
 5673WAT     H223413   5.181   2.243   3.029
 5673WAT    EPW23414   5.147   2.297   2.984
 5674WAT      O23415   4.511   1.158   2.214
 5674WAT     H123416   4.521   1.147   2.301
 5674WAT     H223417   4.440   1.209   2.208
 5674WAT    EPW23418   4.502   1.164   2.226
 5675WAT      O23419   4.773   2.735   2.256
 5675WAT     H123420   4.836   2.752   2.315
 5675WAT     H223421   4.777   2.804   2.203
 5675WAT    EPW23422   4.783   2.748   2.257
 5676WAT      O23423   5.481   2.102   3.455
 5676WAT     H123424   5.486   2.115   3.369
 5676WAT     H223425   5.556   2.134   3.486
 5676WAT    EPW23426   5.493   2.109   3.447
 5677WAT      O23427   5.100   2.637   3.883
 5677WAT     H123428   5.116   2.666   3.964
 5677WAT     H223429   5.126   2.703   3.833
 5677WAT    EPW23430   5.106   2.651   3.888
 5678WAT      O23431   5.584   1.132   3.754
 5678WAT     H123432   5.520   1.092   3.710
 5678WAT     H223433   5.587   1.089   3.830
 5678WAT    EPW23434   5.575   1.120   3.759
 5679WAT      O23435   4.223   1.989   2.339
 5679WAT     H123436   4.256   1.911   2.317
 5679WAT     H223437   4.288   2.026   2.384
 5679WAT    EPW23438   4.238   1.983   2.342
 5680WAT      O23439   5.054   2.083   3.415
 5680WAT     H123440   5.039   2.144   3.476
 5680WAT     H223441   5.107   2.027   3.456
 5680WAT    EPW23442   5.060   2.084   3.430
 5681WAT      O23443   3.923   1.155   2.436
 5681WAT     H123444   3.936   1.084   2.386
 5681WAT     H223445   3.886   1.123   2.508
 5681WAT    EPW23446   3.920   1.140   2.439
 5682WAT      O23447   4.892   1.923   2.481
 5682WAT     H123448   4.898   1.988   2.539
 5682WAT     H223449   4.874   1.853   2.530
 5682WAT    EPW23450   4.891   1.922   2.497
 5683WAT      O23451   5.415   2.356   3.068
 5683WAT     H123452   5.367   2.386   3.002
 5683WAT     H223453   5.379   2.278   3.086
 5683WAT    EPW23454   5.403   2.349   3.061
 5684WAT      O23455   4.342   1.375   2.132
 5684WAT     H123456   4.291   1.380   2.062
 5684WAT     H223457   4.420   1.399   2.103
 5684WAT    EPW23458   4.346   1.379   2.118
 5685WAT      O23459   4.815   2.128   2.924
 5685WAT     H123460   4.730   2.108   2.932
 5685WAT     H223461   4.847   2.111   3.004
 5685WAT    EPW23462   4.807   2.122   2.937
 5686WAT      O23463   4.490   2.801   2.013
 5686WAT     H123464   4.534   2.731   2.042
 5686WAT     H223465   4.511   2.863   2.070
 5686WAT    EPW23466   4.500   2.800   2.026
 5687WAT      O23467   4.200   2.097   3.156
 5687WAT     H123468   4.272   2.146   3.152
 5687WAT     H223469   4.173   2.094   3.073
 5687WAT    EPW23470   4.206   2.104   3.143
 5688WAT      O23471   4.523   1.614   2.829
 5688WAT     H123472   4.607   1.595   2.839
 5688WAT     H223473   4.486   1.536   2.816
 5688WAT    EPW23474   4.530   1.600   2.829
 5689WAT      O23475   5.784   2.772   2.262
 5689WAT     H123476   5.854   2.726   2.237
 5689WAT     H223477   5.730   2.713   2.296
 5689WAT    EPW23478   5.787   2.757   2.263
 5690WAT      O23479   4.005   1.748   2.495
 5690WAT     H123480   4.054   1.719   2.561
 5690WAT     H223481   4.018   1.689   2.432
 5690WAT    EPW23482   4.014   1.735   2.495
 5691WAT      O23483   5.508   2.050   3.180
 5691WAT     H123484   5.507   1.972   3.220
 5691WAT     H223485   5.424   2.073   3.179
 5691WAT    EPW23486   5.496   2.042   3.186
 5692WAT      O23487   4.457   1.891   2.044
 5692WAT     H123488   4.396   1.851   2.091
 5692WAT     H223489   4.419   1.903   1.966
 5692WAT    EPW23490   4.442   1.887   2.039
 5693WAT      O23491   5.634   2.057   2.924
 5693WAT     H123492   5.605   2.097   2.996
 5693WAT     H223493   5.720   2.051   2.936
 5693WAT    EPW23494   5.642   2.062   2.936
 5694WAT      O23495   4.603   1.737   2.315
 5694WAT     H123496   4.630   1.820   2.321
 5694WAT     H223497   4.516   1.745   2.305
 5694WAT    EPW23498   4.594   1.751   2.314
 5695WAT      O23499   5.400   1.450   3.778
 5695WAT     H123500   5.347   1.495   3.830
 5695WAT     H223501   5.364   1.370   3.777
 5695WAT    EPW23502   5.387   1.445   3.785
 5696WAT      O23503   3.951   1.334   2.968
 5696WAT     H123504   3.955   1.369   2.888
 5696WAT     H223505   4.026   1.358   3.005
 5696WAT    EPW23506   3.962   1.343   2.962
 5697WAT      O23507   5.747   2.620   2.977
 5697WAT     H123508   5.776   2.646   2.899
 5697WAT     H223509   5.816   2.630   3.029
 5697WAT    EPW23510   5.761   2.626   2.973
 5698WAT      O23511   5.249   1.806   3.785
 5698WAT     H123512   5.256   1.817   3.872
 5698WAT     H223513   5.186   1.862   3.763
 5698WAT    EPW23514   5.241   1.816   3.795
 5699WAT      O23515   5.476   1.838   3.622
 5699WAT     H123516   5.508   1.917   3.642
 5699WAT     H223517   5.439   1.811   3.696
 5699WAT    EPW23518   5.475   1.846   3.636
 5700WAT      O23519   5.407   2.481   2.175
 5700WAT     H123520   5.441   2.400   2.178
 5700WAT     H223521   5.332   2.474   2.218
 5700WAT    EPW23522   5.401   2.468   2.182
 5701WAT      O23523   5.456   1.664   2.741
 5701WAT     H123524   5.381   1.632   2.773
 5701WAT     H223525   5.456   1.747   2.769
 5701WAT    EPW23526   5.445   1.672   2.750
 5702WAT      O23527   5.746   1.893   3.895
 5702WAT     H123528   5.741   1.858   3.815
 5702WAT     H223529   5.819   1.939   3.893
 5702WAT    EPW23530   5.756   1.894   3.883
 5703WAT      O23531   5.700   2.260   3.516
 5703WAT     H123532   5.762   2.205   3.490
 5703WAT     H223533   5.693   2.317   3.450
 5703WAT    EPW23534   5.708   2.260   3.502
 5704WAT      O23535   5.145   2.268   2.115
 5704WAT     H123536   5.213   2.217   2.098
 5704WAT     H223537   5.103   2.273   2.039
 5704WAT    EPW23538   5.149   2.261   2.101
 5705WAT      O23539   5.347   1.297   3.487
 5705WAT     H123540   5.421   1.342   3.481
 5705WAT     H223541   5.290   1.344   3.440
 5705WAT    EPW23542   5.349   1.311   3.479
 5706WAT      O23543   4.865   2.026   3.195
 5706WAT     H123544   4.912   2.063   3.257
 5706WAT     H223545   4.782   2.039   3.221
 5706WAT    EPW23546   4.859   2.033   3.208
 5707WAT      O23547   4.536   1.586   3.469
 5707WAT     H123548   4.552   1.511   3.511
 5707WAT     H223549   4.531   1.561   3.385
 5707WAT    EPW23550   4.537   1.571   3.463
 5708WAT      O23551   5.475   1.095   3.254
 5708WAT     H123552   5.447   1.178   3.249
 5708WAT     H223553   5.547   1.100   3.303
 5708WAT    EPW23554   5.482   1.108   3.261
 5709WAT      O23555   4.711   1.167   3.457
 5709WAT     H123556   4.781   1.199   3.417
 5709WAT     H223557   4.735   1.086   3.479
 5709WAT    EPW23558   4.725   1.159   3.454
 5710WAT      O23559   5.040   2.251   3.755
 5710WAT     H123560   5.116   2.280   3.723
 5710WAT     H223561   4.985   2.256   3.687
 5710WAT    EPW23562   5.043   2.256   3.740
 5711WAT      O23563   5.431   2.506   3.606
 5711WAT     H123564   5.466   2.533   3.681
 5711WAT     H223565   5.460   2.564   3.548
 5711WAT    EPW23566   5.441   2.519   3.608
 5712WAT      O23567   5.617   1.721   2.140
 5712WAT     H123568   5.655   1.788   2.100
 5712WAT     H223569   5.533   1.743   2.143
 5712WAT    EPW23570   5.610   1.734   2.134
 5713WAT      O23571   4.769   2.065   2.048
 5713WAT     H123572   4.688   2.048   2.019
 5713WAT     H223573   4.765   2.150   2.067
 5713WAT    EPW23574   4.756   2.075   2.047
 5714WAT      O23575   4.362   1.672   3.063
 5714WAT     H123576   4.406   1.662   2.988
 5714WAT     H223577   4.416   1.641   3.123
 5714WAT    EPW23578   4.376   1.666   3.061
 5715WAT      O23579   5.163   1.582   3.622
 5715WAT     H123580   5.098   1.629   3.657
 5715WAT     H223581   5.220   1.573   3.688
 5715WAT    EPW23582   5.162   1.588   3.637
 5716WAT      O23583   5.132   1.736   3.252
 5716WAT     H123584   5.162   1.778   3.322
 5716WAT     H223585   5.136   1.652   3.275
 5716WAT    EPW23586   5.137   1.730   3.266
 5717WAT      O23587   5.387   1.681   2.477
 5717WAT     H123588   5.408   1.660   2.559
 5717WAT     H223589   5.462   1.707   2.443
 5717WAT    EPW23590   5.401   1.682   2.484
 5718WAT      O23591   4.716   1.170   3.068
 5718WAT     H123592   4.634   1.156   3.091
 5718WAT     H223593   4.712   1.174   2.980
 5718WAT    EPW23594   4.704   1.169   3.058
 5719WAT      O23595   5.489   1.289   2.624
 5719WAT     H123596   5.418   1.242   2.642
 5719WAT     H223597   5.473   1.323   2.546
 5719WAT    EPW23598   5.476   1.287   2.615
 5720WAT      O23599   5.533   2.083   2.462
 5720WAT     H123600   5.581   2.010   2.458
 5720WAT     H223601   5.451   2.055   2.455
 5720WAT    EPW23602   5.528   2.068   2.461
 5721WAT      O23603   3.973   1.210   3.671
 5721WAT     H123604   3.959   1.290   3.638
 5721WAT     H223605   3.894   1.186   3.700
 5721WAT    EPW23606   3.959   1.218   3.670
 5722WAT      O23607   4.279   1.485   2.394
 5722WAT     H123608   4.292   1.452   2.314
 5722WAT     H223609   4.198   1.460   2.413
 5722WAT    EPW23610   4.269   1.476   2.385
 5723WAT      O23611   5.155   2.200   2.698
 5723WAT     H123612   5.163   2.234   2.778
 5723WAT     H223613   5.172   2.115   2.710
 5723WAT    EPW23614   5.159   2.192   2.712
 5724WAT      O23615   4.907   2.127   2.654
 5724WAT     H123616   4.877   2.096   2.730
 5724WAT     H223617   4.977   2.175   2.678
 5724WAT    EPW23618   4.913   2.130   2.669
 5725WAT      O23619   5.747   1.800   3.638
 5725WAT     H123620   5.661   1.788   3.651
 5725WAT     H223621   5.762   1.761   3.562
 5725WAT    EPW23622   5.737   1.792   3.629
 5726WAT      O23623   5.198   1.867   3.496
 5726WAT     H123624   5.173   1.795   3.538
 5726WAT     H223625   5.280   1.878   3.523
 5726WAT    EPW23626   5.207   1.858   3.506
 5727WAT      O23627   4.992   1.986   3.815
 5727WAT     H123628   5.024   2.054   3.771
 5727WAT     H223629   4.921   2.018   3.855
 5727WAT    EPW23630   4.986   2.000   3.814
 5728WAT      O23631   5.300   2.823   2.907
 5728WAT     H123632   5.255   2.887   2.945
 5728WAT     H223633   5.371   2.815   2.958
 5728WAT    EPW23634   5.304   2.831   2.921
 5729WAT      O23635   5.508   2.591   3.858
 5729WAT     H123636   5.585   2.552   3.867
 5729WAT     H223637   5.461   2.558   3.924
 5729WAT    EPW23638   5.512   2.581   3.869
 5730WAT      O23639   4.277   1.686   3.435
 5730WAT     H123640   4.314   1.748   3.386
 5730WAT     H223641   4.344   1.638   3.464
 5730WAT    EPW23642   4.292   1.688   3.432
 5731WAT      O23643   4.054   1.531   3.363
 5731WAT     H123644   4.062   1.514   3.277
 5731WAT     H223645   4.129   1.571   3.382
 5731WAT    EPW23646   4.067   1.534   3.353
 5732WAT      O23647   5.610   1.795   2.407
 5732WAT     H123648   5.621   1.789   2.320
 5732WAT     H223649   5.684   1.761   2.438
 5732WAT    EPW23650   5.623   1.789   2.399
 5733WAT      O23651   4.310   1.272   3.604
 5733WAT     H123652   4.302   1.187   3.624
 5733WAT     H223653   4.278   1.276   3.522
 5733WAT    EPW23654   4.304   1.260   3.595
 5734WAT      O23655   5.002   2.491   2.517
 5734WAT     H123656   4.982   2.574   2.501
 5734WAT     H223657   4.925   2.453   2.530
 5734WAT    EPW23658   4.988   2.498   2.517
 5735WAT      O23659   5.521   1.809   3.342
 5735WAT     H123660   5.520   1.723   3.355
 5735WAT     H223661   5.527   1.842   3.423
 5735WAT    EPW23662   5.522   1.801   3.356
 5736WAT      O23663   3.994   2.053   3.385
 5736WAT     H123664   4.026   2.075   3.307
 5736WAT     H223665   3.984   1.967   3.380
 5736WAT    EPW23666   3.997   2.044   3.373
 5737WAT      O23667   4.140   1.647   2.047
 5737WAT     H123668   4.073   1.648   2.102
 5737WAT     H223669   4.149   1.562   2.028
 5737WAT    EPW23670   4.131   1.634   2.052
 5738WAT      O23671   5.108   1.289   3.720
 5738WAT     H123672   5.118   1.360   3.770
 5738WAT     H223673   5.045   1.245   3.760
 5738WAT    EPW23674   5.100   1.293   3.734
 5739WAT      O23675   5.008   1.308   2.806
 5739WAT     H123676   4.938   1.360   2.800
 5739WAT     H223677   5.012   1.270   2.727
 5739WAT    EPW23678   4.998   1.310   2.793
 5740WAT      O23679   4.539   2.517   2.158
 5740WAT     H123680   4.583   2.525   2.233
 5740WAT     H223681   4.458   2.496   2.184
 5740WAT    EPW23682   4.533   2.515   2.173
 5741WAT      O23683   5.368   1.360   3.086
 5741WAT     H123684   5.453   1.370   3.100
 5741WAT     H223685   5.331   1.415   3.142
 5741WAT    EPW23686   5.375   1.369   3.096
 5742WAT      O23687   4.470   1.982   3.524
 5742WAT     H123688   4.431   2.060   3.531
 5742WAT     H223689   4.430   1.945   3.456
 5742WAT    EPW23690   4.459   1.988   3.515
 5743WAT      O23691   5.398   1.888   2.935
 5743WAT     H123692   5.465   1.942   2.951
 5743WAT     H223693   5.364   1.919   2.861
 5743WAT    EPW23694   5.403   1.900   2.926
 5744WAT      O23695   5.429   2.694   2.516
 5744WAT     H123696   5.412   2.629   2.571
 5744WAT     H223697   5.501   2.667   2.473
 5744WAT    EPW23698   5.437   2.681   2.518
 5745WAT      O23699   4.271   2.424   2.218
 5745WAT     H123700   4.247   2.394   2.296
 5745WAT     H223701   4.268   2.354   2.167
 5745WAT    EPW23702   4.267   2.409   2.222
 5746WAT      O23703   4.553   2.249   2.093
 5746WAT     H123704   4.472   2.222   2.107
 5746WAT     H223705   4.551   2.334   2.111
 5746WAT    EPW23706   4.541   2.257   2.097
 5747WAT      O23707   4.513   1.280   3.269
 5747WAT     H123708   4.427   1.288   3.277
 5747WAT     H223709   4.535   1.229   3.335
 5747WAT    EPW23710   4.504   1.274   3.280
 5748WAT      O23711   5.715   1.144   3.401
 5748WAT     H123712   5.710   1.139   3.488
 5748WAT     H223713   5.784   1.093   3.382
 5748WAT    EPW23714   5.725   1.136   3.411
 5749WAT      O23715   4.924   1.355   3.106
 5749WAT     H123716   4.850   1.309   3.117
 5749WAT     H223717   4.981   1.315   3.158
 5749WAT    EPW23718   4.921   1.342   3.115
 5750WAT      O23719   5.197   2.440   3.285
 5750WAT     H123720   5.217   2.470   3.364
 5750WAT     H223721   5.191   2.512   3.236
 5750WAT    EPW23722   5.199   2.455   3.289
 5751WAT      O23723   5.150   2.861   3.709
 5751WAT     H123724   5.075   2.859   3.665
 5751WAT     H223725   5.167   2.946   3.718
 5751WAT    EPW23726   5.142   2.873   3.704
 5752WAT      O23727   4.674   1.788   3.626
 5752WAT     H123728   4.642   1.730   3.569
 5752WAT     H223729   4.638   1.863   3.602
 5752WAT    EPW23730   4.664   1.790   3.614
 5753WAT      O23731   4.754   1.113   2.089
 5753WAT     H123732   4.761   1.138   2.006
 5753WAT     H223733   4.679   1.151   2.115
 5753WAT    EPW23734   4.744   1.122   2.081
 5754WAT      O23735   5.678   2.304   3.231
 5754WAT     H123736   5.675   2.217   3.217
 5754WAT     H223737   5.609   2.334   3.187
 5754WAT    EPW23738   5.667   2.295   3.222
 5755WAT      O23739   5.489   2.630   3.110
 5755WAT     H123740   5.541   2.621   3.041
 5755WAT     H223741   5.449   2.552   3.116
 5755WAT    EPW23742   5.491   2.617   3.101
 5756WAT      O23743   4.235   1.288   3.333
 5756WAT     H123744   4.201   1.212   3.310
 5756WAT     H223745   4.166   1.341   3.340
 5756WAT    EPW23746   4.220   1.285   3.331
 5757WAT      O23747   5.140   1.174   3.031
 5757WAT     H123748   5.207   1.228   3.044
 5757WAT     H223749   5.090   1.216   2.974
 5757WAT    EPW23750   5.142   1.188   3.024
 5758WAT      O23751   5.076   1.755   2.780
 5758WAT     H123752   5.131   1.694   2.810
 5758WAT     H223753   5.033   1.781   2.852
 5758WAT    EPW23754   5.078   1.750   2.795
 5759WAT      O23755   4.101   1.620   2.729
 5759WAT     H123756   4.064   1.650   2.802
 5759WAT     H223757   4.154   1.557   2.757
 5759WAT    EPW23758   4.103   1.615   2.744
 5760WAT      O23759   5.273   1.938   2.437
 5760WAT     H123760   5.280   1.853   2.455
 5760WAT     H223761   5.191   1.946   2.409
 5760WAT    EPW23762   5.262   1.927   2.435
 5761WAT      O23763   4.665   2.027   2.330
 5761WAT     H123764   4.675   2.041   2.245
 5761WAT     H223765   4.747   2.021   2.360
 5761WAT    EPW23766   4.678   2.028   2.322
 5762WAT      O23767   5.581   2.833   2.078
 5762WAT     H123768   5.644   2.820   2.136
 5762WAT     H223769   5.547   2.754   2.067
 5762WAT    EPW23770   5.585   2.820   2.085
 5763WAT      O23771   5.600   2.075   3.752
 5763WAT     H123772   5.664   2.058   3.809
 5763WAT     H223773   5.642   2.115   3.686
 5763WAT    EPW23774   5.616   2.079   3.751
 5764WAT      O23775   5.188   2.460   2.311
 5764WAT     H123776   5.163   2.447   2.393
 5764WAT     H223777   5.157   2.390   2.268
 5764WAT    EPW23778   5.180   2.448   2.317
 5765WAT      O23779   5.653   1.626   3.123
 5765WAT     H123780   5.569   1.651   3.115
 5765WAT     H223781   5.647   1.542   3.145
 5765WAT    EPW23782   5.640   1.617   3.125
 5766WAT      O23783   4.579   1.324   3.642
 5766WAT     H123784   4.602   1.267   3.581
 5766WAT     H223785   4.494   1.306   3.656
 5766WAT    EPW23786   4.570   1.313   3.635
 5767WAT      O23787   5.341   2.086   3.887
 5767WAT     H123788   5.428   2.083   3.884
 5767WAT     H223789   5.319   2.128   3.814
 5767WAT    EPW23790   5.351   2.092   3.876
 5768WAT      O23791   4.877   2.281   2.254
 5768WAT     H123792   4.949   2.246   2.218
 5768WAT     H223793   4.873   2.361   2.219
 5768WAT    EPW23794   4.887   2.287   2.243
 5769WAT      O23795   5.018   1.145   0.677
 5769WAT     H123796   4.993   1.194   0.609
 5769WAT     H223797   5.104   1.137   0.667
 5769WAT    EPW23798   5.027   1.151   0.666
 5770WAT      O23799   4.999   1.836   1.145
 5770WAT     H123800   4.946   1.896   1.181
 5770WAT     H223801   5.038   1.800   1.213
 5770WAT    EPW23802   4.997   1.840   1.160
 5771WAT      O23803   3.986   2.250   0.690
 5771WAT     H123804   3.941   2.262   0.764
 5771WAT     H223805   3.957   2.173   0.662
 5771WAT    EPW23806   3.975   2.241   0.697
 5772WAT      O23807   5.613   2.580   0.442
 5772WAT     H123808   5.683   2.529   0.441
 5772WAT     H223809   5.554   2.536   0.395
 5772WAT    EPW23810   5.615   2.566   0.435
 5773WAT      O23811   3.960   1.630   0.341
 5773WAT     H123812   3.882   1.646   0.305
 5773WAT     H223813   3.964   1.542   0.343
 5773WAT    EPW23814   3.949   1.619   0.336
 5774WAT      O23815   4.274   2.156   0.208
 5774WAT     H123816   4.235   2.119   0.139
 5774WAT     H223817   4.266   2.096   0.271
 5774WAT    EPW23818   4.267   2.142   0.207
 5775WAT      O23819   5.266   1.943   0.812
 5775WAT     H123820   5.274   1.943   0.725
 5775WAT     H223821   5.207   1.880   0.827
 5775WAT    EPW23822   5.258   1.934   0.802
 5776WAT      O23823   4.236   2.320   0.598
 5776WAT     H123824   4.297   2.303   0.658
 5776WAT     H223825   4.161   2.306   0.640
 5776WAT    EPW23826   4.234   2.315   0.613
 5777WAT      O23827   4.665   1.253   0.593
 5777WAT     H123828   4.658   1.321   0.538
 5777WAT     H223829   4.739   1.215   0.568
 5777WAT    EPW23830   4.675   1.258   0.581
 5778WAT      O23831   4.126   2.629   0.206
 5778WAT     H123832   4.172   2.637   0.133
 5778WAT     H223833   4.171   2.571   0.253
 5778WAT    EPW23834   4.139   2.622   0.202
 5779WAT      O23835   3.980   2.524   1.316
 5779WAT     H123836   3.992   2.496   1.397
 5779WAT     H223837   3.919   2.470   1.285
 5779WAT    EPW23838   3.972   2.512   1.323
 5780WAT      O23839   4.637   2.276   1.822
 5780WAT     H123840   4.613   2.276   1.906
 5780WAT     H223841   4.562   2.262   1.780
 5780WAT    EPW23842   4.622   2.274   1.828
 5781WAT      O23843   4.124   1.976   0.736
 5781WAT     H123844   4.078   1.937   0.673
 5781WAT     H223845   4.194   1.925   0.745
 5781WAT    EPW23846   4.128   1.963   0.728
 5782WAT      O23847   4.575   1.537   1.271
 5782WAT     H123848   4.643   1.539   1.216
 5782WAT     H223849   4.570   1.453   1.295
 5782WAT    EPW23850   4.584   1.525   1.266
 5783WAT      O23851   4.635   2.596   1.549
 5783WAT     H123852   4.649   2.672   1.508
 5783WAT     H223853   4.714   2.559   1.551
 5783WAT    EPW23854   4.649   2.601   1.543
 5784WAT      O23855   4.324   1.786   0.738
 5784WAT     H123856   4.406   1.767   0.762
 5784WAT     H223857   4.277   1.725   0.778
 5784WAT    EPW23858   4.329   1.774   0.748
 5785WAT      O23859   4.745   2.384   0.999
 5785WAT     H123860   4.779   2.304   1.002
 5785WAT     H223861   4.811   2.434   0.974
 5785WAT    EPW23862   4.760   2.380   0.996
 5786WAT      O23863   4.750   2.329   0.620
 5786WAT     H123864   4.783   2.265   0.669
 5786WAT     H223865   4.774   2.308   0.539
 5786WAT    EPW23866   4.759   2.316   0.615
 5787WAT      O23867   4.947   1.742   1.754
 5787WAT     H123868   4.862   1.732   1.736
 5787WAT     H223869   4.950   1.817   1.800
 5787WAT    EPW23870   4.935   1.752   1.758
 5788WAT      O23871   4.384   1.295   0.665
 5788WAT     H123872   4.354   1.345   0.600
 5788WAT     H223873   4.471   1.303   0.659
 5788WAT    EPW23874   4.392   1.304   0.654
 5789WAT      O23875   5.403   1.038   1.666
 5789WAT     H123876   5.387   1.115   1.627
 5789WAT     H223877   5.326   1.016   1.700
 5789WAT    EPW23878   5.389   1.046   1.665
 5790WAT      O23879   4.682   1.210   0.887
 5790WAT     H123880   4.689   1.296   0.900
 5790WAT     H223881   4.678   1.202   0.800
 5790WAT    EPW23882   4.682   1.221   0.876
 5791WAT      O23883   3.970   1.752   1.037
 5791WAT     H123884   3.944   1.835   1.030
 5791WAT     H223885   3.903   1.714   1.079
 5791WAT    EPW23886   3.956   1.759   1.042
 5792WAT      O23887   3.961   2.723   0.827
 5792WAT     H123888   3.902   2.779   0.796
 5792WAT     H223889   4.003   2.696   0.756
 5792WAT    EPW23890   3.958   2.727   0.812
 5793WAT      O23891   4.545   2.507   0.575
 5793WAT     H123892   4.487   2.480   0.634
 5793WAT     H223893   4.607   2.447   0.578
 5793WAT    EPW23894   4.545   2.494   0.584
 5794WAT      O23895   5.159   2.736   0.327
 5794WAT     H123896   5.232   2.783   0.338
 5794WAT     H223897   5.182   2.657   0.355
 5794WAT    EPW23898   5.173   2.732   0.333
 5795WAT      O23899   4.976   2.775   0.526
 5795WAT     H123900   4.997   2.828   0.593
 5795WAT     H223901   5.053   2.758   0.488
 5795WAT    EPW23902   4.990   2.781   0.531
 5796WAT      O23903   4.273   1.234   1.086
 5796WAT     H123904   4.221   1.171   1.055
 5796WAT     H223905   4.332   1.190   1.133
 5796WAT    EPW23906   4.274   1.218   1.089
 5797WAT      O23907   4.603   1.447   2.016
 5797WAT     H123908   4.615   1.402   1.942
 5797WAT     H223909   4.632   1.527   1.996
 5797WAT    EPW23910   4.609   1.452   2.002
 5798WAT      O23911   4.115   2.590   0.620
 5798WAT     H123912   4.181   2.533   0.622
 5798WAT     H223913   4.154   2.665   0.598
 5798WAT    EPW23914   4.131   2.593   0.617
 5799WAT      O23915   5.689   1.499   0.746
 5799WAT     H123916   5.654   1.567   0.789
 5799WAT     H223917   5.625   1.440   0.748
 5799WAT    EPW23918   5.674   1.501   0.753
 5800WAT      O23919   5.220   2.776   1.357
 5800WAT     H123920   5.294   2.822   1.356
 5800WAT     H223921   5.208   2.755   1.273
 5800WAT    EPW23922   5.229   2.780   1.344
 5801WAT      O23923   4.177   1.407   1.914
 5801WAT     H123924   4.099   1.368   1.907
 5801WAT     H223925   4.226   1.366   1.855
 5801WAT    EPW23926   4.172   1.395   1.905
 5802WAT      O23927   4.197   2.439   0.970
 5802WAT     H123928   4.239   2.403   0.903
 5802WAT     H223929   4.229   2.397   1.039
 5802WAT    EPW23930   4.208   2.427   0.971
 5803WAT      O23931   4.520   2.724   0.900
 5803WAT     H123932   4.605   2.734   0.880
 5803WAT     H223933   4.490   2.806   0.907
 5803WAT    EPW23934   4.528   2.738   0.898
 5804WAT      O23935   4.841   1.171   1.831
 5804WAT     H123936   4.859   1.090   1.804
 5804WAT     H223937   4.827   1.215   1.757
 5804WAT    EPW23938   4.842   1.166   1.816
 5805WAT      O23939   4.901   1.664   0.709
 5805WAT     H123940   4.930   1.640   0.630
 5805WAT     H223941   4.974   1.672   0.755
 5805WAT    EPW23942   4.916   1.661   0.704
 5806WAT      O23943   4.973   1.698   0.221
 5806WAT     H123944   5.001   1.776   0.246
 5806WAT     H223945   4.895   1.714   0.184
 5806WAT    EPW23946   4.966   1.712   0.219
 5807WAT      O23947   5.377   2.895   0.367
 5807WAT     H123948   5.444   2.880   0.313
 5807WAT     H223949   5.413   2.887   0.446
 5807WAT    EPW23950   5.392   2.892   0.371
 5808WAT      O23951   4.420   2.846   1.474
 5808WAT     H123952   4.449   2.839   1.556
 5808WAT     H223953   4.357   2.785   1.469
 5808WAT    EPW23954   4.415   2.836   1.485
 5809WAT      O23955   5.656   1.332   1.283
 5809WAT     H123956   5.732   1.339   1.241
 5809WAT     H223957   5.662   1.254   1.323
 5809WAT    EPW23958   5.668   1.321   1.283
 5810WAT      O23959   3.911   1.462   1.673
 5810WAT     H123960   3.911   1.520   1.738
 5810WAT     H223961   3.971   1.493   1.617
 5810WAT    EPW23962   3.920   1.475   1.674
 5811WAT      O23963   5.145   2.495   1.727
 5811WAT     H123964   5.142   2.533   1.806
 5811WAT     H223965   5.231   2.491   1.710
 5811WAT    EPW23966   5.157   2.500   1.736
 5812WAT      O23967   4.859   2.515   0.202
 5812WAT     H123968   4.841   2.569   0.268
 5812WAT     H223969   4.936   2.544   0.172
 5812WAT    EPW23970   4.868   2.527   0.208
 5813WAT      O23971   5.210   1.304   0.308
 5813WAT     H123972   5.264   1.236   0.315
 5813WAT     H223973   5.216   1.344   0.385
 5813WAT    EPW23974   5.219   1.300   0.320
 5814WAT      O23975   4.005   1.421   0.565
 5814WAT     H123976   3.994   1.335   0.568
 5814WAT     H223977   3.958   1.450   0.632
 5814WAT    EPW23978   3.996   1.413   0.575
 5815WAT      O23979   4.219   2.662   1.386
 5815WAT     H123980   4.149   2.611   1.399
 5815WAT     H223981   4.245   2.642   1.305
 5815WAT    EPW23982   4.213   2.652   1.376
 5816WAT      O23983   4.935   1.542   0.439
 5816WAT     H123984   4.885   1.476   0.414
 5816WAT     H223985   4.941   1.592   0.368
 5816WAT    EPW23986   4.929   1.540   0.425
 5817WAT      O23987   4.990   2.811   1.477
 5817WAT     H123988   5.067   2.803   1.436
 5817WAT     H223989   4.932   2.799   1.413
 5817WAT    EPW23990   4.993   2.808   1.462
 5818WAT      O23991   4.935   1.236   0.428
 5818WAT     H123992   4.890   1.196   0.366
 5818WAT     H223993   5.013   1.251   0.391
 5818WAT    EPW23994   4.940   1.232   0.413
 5819WAT      O23995   5.618   2.872   0.767
 5819WAT     H123996   5.573   2.943   0.787
 5819WAT     H223997   5.557   2.815   0.743
 5819WAT    EPW23998   5.602   2.874   0.767
 5820WAT      O23999   4.795   1.473   0.880
 5820WAT     H124000   4.803   1.529   0.815
 5820WAT     H224001   4.807   1.522   0.951
 5820WAT    EPW24002   4.798   1.488   0.881
 5821WAT      O24003   5.318   2.456   0.722
 5821WAT     H124004   5.388   2.408   0.740
 5821WAT     H224005   5.252   2.399   0.726
 5821WAT    EPW24006   5.318   2.441   0.725
 5822WAT      O24007   4.355   2.547   1.643
 5822WAT     H124008   4.439   2.553   1.621
 5822WAT     H224009   4.352   2.587   1.720
 5822WAT    EPW24010   4.367   2.554   1.651
 5823WAT      O24011   4.256   1.055   0.715
 5823WAT     H124012   4.310   1.124   0.714
 5823WAT     H224013   4.256   1.028   0.632
 5823WAT    EPW24014   4.264   1.061   0.703
 5824WAT      O24015   4.552   2.098   1.118
 5824WAT     H124016   4.569   2.077   1.201
 5824WAT     H224017   4.486   2.045   1.096
 5824WAT    EPW24018   4.545   2.087   1.127
 5825WAT      O24019   5.174   1.490   1.469
 5825WAT     H124020   5.165   1.522   1.550
 5825WAT     H224021   5.115   1.426   1.465
 5825WAT    EPW24022   5.164   1.485   1.481
 5826WAT      O24023   4.627   2.092   1.377
 5826WAT     H124024   4.632   2.177   1.397
 5826WAT     H224025   4.598   2.055   1.450
 5826WAT    EPW24026   4.623   2.099   1.390
 5827WAT      O24027   5.244   2.162   1.290
 5827WAT     H124028   5.193   2.120   1.347
 5827WAT     H224029   5.232   2.246   1.308
 5827WAT    EPW24030   5.235   2.168   1.301
 5828WAT      O24031   5.300   1.084   0.753
 5828WAT     H124032   5.305   1.052   0.834
 5828WAT     H224033   5.332   1.020   0.703
 5828WAT    EPW24034   5.306   1.070   0.757
 5829WAT      O24035   3.909   2.529   1.998
 5829WAT     H124036   3.984   2.564   2.024
 5829WAT     H224037   3.926   2.444   1.992
 5829WAT    EPW24038   3.923   2.522   2.001
 5830WAT      O24039   5.546   1.508   1.584
 5830WAT     H124040   5.624   1.485   1.617
 5830WAT     H224041   5.499   1.529   1.654
 5830WAT    EPW24042   5.551   1.508   1.599
 5831WAT      O24043   4.301   1.436   0.881
 5831WAT     H124044   4.328   1.393   0.810
 5831WAT     H224045   4.283   1.372   0.938
 5831WAT    EPW24046   4.302   1.420   0.879
 5832WAT      O24047   5.570   2.205   0.302
 5832WAT     H124048   5.582   2.177   0.384
 5832WAT     H224049   5.650   2.208   0.269
 5832WAT    EPW24050   5.583   2.202   0.310
 5833WAT      O24051   4.283   2.179   0.835
 5833WAT     H124052   4.368   2.171   0.818
 5833WAT     H224053   4.248   2.110   0.794
 5833WAT    EPW24054   4.291   2.167   0.827
 5834WAT      O24055   4.160   2.851   0.959
 5834WAT     H124056   4.093   2.801   0.935
 5834WAT     H224057   4.200   2.870   0.884
 5834WAT    EPW24058   4.156   2.847   0.944
 5835WAT      O24059   4.115   1.546   1.189
 5835WAT     H124060   4.199   1.568   1.184
 5835WAT     H224061   4.076   1.603   1.136
 5835WAT    EPW24062   4.122   1.558   1.180
 5836WAT      O24063   5.793   2.656   1.728
 5836WAT     H124064   5.725   2.687   1.683
 5836WAT     H224065   5.756   2.611   1.792
 5836WAT    EPW24066   5.777   2.654   1.731
 5837WAT      O24067   5.359   1.859   0.261
 5837WAT     H124068   5.337   1.932   0.219
 5837WAT     H224069   5.314   1.864   0.336
 5837WAT    EPW24070   5.349   1.871   0.266
 5838WAT      O24071   4.520   2.179   0.659
 5838WAT     H124072   4.591   2.229   0.668
 5838WAT     H224073   4.542   2.123   0.596
 5838WAT    EPW24074   4.534   2.178   0.651
 5839WAT      O24075   5.778   1.345   0.206
 5839WAT     H124076   5.712   1.288   0.208
 5839WAT     H224077   5.759   1.396   0.138
 5839WAT    EPW24078   5.765   1.344   0.196
 5840WAT      O24079   3.936   2.344   0.991
 5840WAT     H124080   3.869   2.392   1.019
 5840WAT     H224081   4.004   2.398   0.994
 5840WAT    EPW24082   3.936   2.359   0.995
 5841WAT      O24083   4.700   1.715   2.001
 5841WAT     H124084   4.652   1.772   2.045
 5841WAT     H224085   4.698   1.744   1.918
 5841WAT    EPW24086   4.693   1.728   1.995
 5842WAT      O24087   5.810   1.783   1.462
 5842WAT     H124088   5.832   1.703   1.434
 5842WAT     H224089   5.725   1.789   1.443
 5842WAT    EPW24090   5.801   1.772   1.455
 5843WAT      O24091   3.942   2.012   0.501
 5843WAT     H124092   3.924   1.928   0.516
 5843WAT     H224093   4.008   2.008   0.444
 5843WAT    EPW24094   3.949   1.999   0.495
 5844WAT      O24095   5.578   1.301   0.434
 5844WAT     H124096   5.653   1.260   0.454
 5844WAT     H224097   5.604   1.373   0.392
 5844WAT    EPW24098   5.593   1.306   0.431
 5845WAT      O24099   4.972   2.550   0.892
 5845WAT     H124100   4.920   2.613   0.862
 5845WAT     H224101   5.003   2.513   0.819
 5845WAT    EPW24102   4.969   2.554   0.877
 5846WAT      O24103   3.959   2.428   0.459
 5846WAT     H124104   4.015   2.485   0.495
 5846WAT     H224105   3.936   2.377   0.525
 5846WAT    EPW24106   3.964   2.429   0.474
 5847WAT      O24107   4.380   2.328   1.168
 5847WAT     H124108   4.427   2.357   1.235
 5847WAT     H224109   4.437   2.281   1.122
 5847WAT    EPW24110   4.395   2.326   1.171
 5848WAT      O24111   5.223   1.530   0.941
 5848WAT     H124112   5.258   1.545   1.020
 5848WAT     H224113   5.178   1.456   0.953
 5848WAT    EPW24114   5.222   1.521   0.955
 5849WAT      O24115   3.942   2.273   0.222
 5849WAT     H124116   4.018   2.230   0.227
 5849WAT     H224117   3.944   2.327   0.291
 5849WAT    EPW24118   3.954   2.275   0.233
 5850WAT      O24119   4.036   2.095   1.022
 5850WAT     H124120   4.080   2.083   0.947
 5850WAT     H224121   4.016   2.180   1.019
 5850WAT    EPW24122   4.040   2.106   1.011
 5851WAT      O24123   4.671   1.452   0.387
 5851WAT     H124124   4.671   1.440   0.301
 5851WAT     H224125   4.653   1.537   0.396
 5851WAT    EPW24126   4.668   1.463   0.376
 5852WAT      O24127   5.576   2.695   1.537
 5852WAT     H124128   5.509   2.746   1.559
 5852WAT     H224129   5.583   2.705   1.450
 5852WAT    EPW24130   5.567   2.704   1.527
 5853WAT      O24131   4.445   2.447   0.850
 5853WAT     H124132   4.457   2.531   0.869
 5853WAT     H224133   4.512   2.407   0.890
 5853WAT    EPW24134   4.457   2.454   0.859
 5854WAT      O24135   4.258   1.795   1.836
 5854WAT     H124136   4.204   1.745   1.883
 5854WAT     H224137   4.260   1.756   1.758
 5854WAT    EPW24138   4.250   1.782   1.832
 5855WAT      O24139   4.306   1.735   0.350
 5855WAT     H124140   4.294   1.690   0.424
 5855WAT     H224141   4.248   1.701   0.295
 5855WAT    EPW24142   4.296   1.723   0.353
 5856WAT      O24143   4.323   1.918   1.010
 5856WAT     H124144   4.245   1.912   0.972
 5856WAT     H224145   4.330   1.843   1.054
 5856WAT    EPW24146   4.313   1.906   1.011
 5857WAT      O24147   4.366   1.892   1.357
 5857WAT     H124148   4.369   1.824   1.302
 5857WAT     H224149   4.301   1.941   1.326
 5857WAT    EPW24150   4.357   1.889   1.344
 5858WAT      O24151   5.356   1.663   1.197
 5858WAT     H124152   5.289   1.696   1.243
 5858WAT     H224153   5.374   1.726   1.140
 5858WAT    EPW24154   5.349   1.677   1.195
 5859WAT      O24155   4.776   2.769   1.296
 5859WAT     H124156   4.748   2.705   1.244
 5859WAT     H224157   4.755   2.842   1.253
 5859WAT    EPW24158   4.769   2.771   1.282
 5860WAT      O24159   5.020   1.254   1.540
 5860WAT     H124160   5.035   1.171   1.515
 5860WAT     H224161   5.058   1.259   1.618
 5860WAT    EPW24162   5.028   1.242   1.548
 5861WAT      O24163   5.175   1.460   0.548
 5861WAT     H124164   5.224   1.532   0.540
 5861WAT     H224165   5.096   1.486   0.522
 5861WAT    EPW24166   5.170   1.474   0.543
 5862WAT      O24167   4.146   2.027   1.913
 5862WAT     H124168   4.142   2.077   1.842
 5862WAT     H224169   4.179   1.952   1.884
 5862WAT    EPW24170   4.150   2.023   1.898
 5863WAT      O24171   5.306   2.248   1.739
 5863WAT     H124172   5.355   2.320   1.749
 5863WAT     H224173   5.346   2.205   1.674
 5863WAT    EPW24174   5.319   2.252   1.731
 5864WAT      O24175   4.736   2.532   1.857
 5864WAT     H124176   4.771   2.514   1.934
 5864WAT     H224177   4.692   2.459   1.837
 5864WAT    EPW24178   4.735   2.519   1.865
 5865WAT      O24179   4.833   1.607   1.120
 5865WAT     H124180   4.881   1.677   1.141
 5865WAT     H224181   4.870   1.542   1.165
 5865WAT    EPW24182   4.846   1.608   1.130
 5866WAT      O24183   5.052   1.924   0.348
 5866WAT     H124184   5.051   1.996   0.299
 5866WAT     H224185   4.988   1.937   0.405
 5866WAT    EPW24186   5.042   1.937   0.349
 5867WAT      O24187   5.549   2.311   0.746
 5867WAT     H124188   5.585   2.276   0.817
 5867WAT     H224189   5.548   2.245   0.689
 5867WAT    EPW24190   5.554   2.296   0.748
 5868WAT      O24191   5.154   2.617   1.130
 5868WAT     H124192   5.093   2.588   1.075
 5868WAT     H224193   5.208   2.663   1.079
 5868WAT    EPW24194   5.153   2.620   1.114
 5869WAT      O24195   5.155   2.303   1.070
 5869WAT     H124196   5.075   2.325   1.098
 5869WAT     H224197   5.181   2.243   1.129
 5869WAT    EPW24198   5.147   2.297   1.083
 5870WAT      O24199   4.544   2.784   0.515
 5870WAT     H124200   4.529   2.706   0.552
 5870WAT     H224201   4.613   2.769   0.464
 5870WAT    EPW24202   4.552   2.770   0.513
 5871WAT      O24203   4.511   1.158   0.314
 5871WAT     H124204   4.521   1.147   0.400
 5871WAT     H224205   4.440   1.209   0.307
 5871WAT    EPW24206   4.502   1.164   0.326
 5872WAT      O24207   4.773   2.735   0.355
 5872WAT     H124208   4.836   2.752   0.414
 5872WAT     H224209   4.777   2.804   0.302
 5872WAT    EPW24210   4.783   2.748   0.356
 5873WAT      O24211   5.481   2.102   1.555
 5873WAT     H124212   5.486   2.115   1.469
 5873WAT     H224213   5.556   2.134   1.585
 5873WAT    EPW24214   5.493   2.109   1.547
 5874WAT      O24215   5.100   2.637   1.983
 5874WAT     H124216   5.116   2.666   2.063
 5874WAT     H224217   5.126   2.703   1.932
 5874WAT    EPW24218   5.106   2.651   1.987
 5875WAT      O24219   5.584   1.132   1.854
 5875WAT     H124220   5.520   1.092   1.809
 5875WAT     H224221   5.587   1.089   1.929
 5875WAT    EPW24222   5.575   1.120   1.858
 5876WAT      O24223   4.223   1.989   0.438
 5876WAT     H124224   4.256   1.911   0.416
 5876WAT     H224225   4.288   2.026   0.484
 5876WAT    EPW24226   4.238   1.983   0.442
 5877WAT      O24227   5.054   2.083   1.515
 5877WAT     H124228   5.039   2.144   1.575
 5877WAT     H224229   5.107   2.027   1.555
 5877WAT    EPW24230   5.060   2.084   1.530
 5878WAT      O24231   3.923   1.155   0.535
 5878WAT     H124232   3.936   1.084   0.486
 5878WAT     H224233   3.886   1.123   0.607
 5878WAT    EPW24234   3.920   1.140   0.538
 5879WAT      O24235   4.892   1.923   0.581
 5879WAT     H124236   4.898   1.988   0.639
 5879WAT     H224237   4.874   1.853   0.630
 5879WAT    EPW24238   4.891   1.922   0.596
 5880WAT      O24239   5.415   2.356   1.168
 5880WAT     H124240   5.367   2.386   1.101
 5880WAT     H224241   5.379   2.278   1.185
 5880WAT    EPW24242   5.403   2.349   1.160
 5881WAT      O24243   4.342   1.375   0.232
 5881WAT     H124244   4.291   1.380   0.161
 5881WAT     H224245   4.420   1.399   0.202
 5881WAT    EPW24246   4.346   1.379   0.217
 5882WAT      O24247   4.815   2.128   1.024
 5882WAT     H124248   4.730   2.108   1.032
 5882WAT     H224249   4.847   2.111   1.103
 5882WAT    EPW24250   4.807   2.122   1.037
 5883WAT      O24251   4.200   2.097   1.255
 5883WAT     H124252   4.272   2.146   1.252
 5883WAT     H224253   4.173   2.094   1.172
 5883WAT    EPW24254   4.206   2.104   1.243
 5884WAT      O24255   4.523   1.614   0.929
 5884WAT     H124256   4.607   1.595   0.939
 5884WAT     H224257   4.486   1.536   0.915
 5884WAT    EPW24258   4.530   1.600   0.928
 5885WAT      O24259   5.784   2.772   0.362
 5885WAT     H124260   5.854   2.726   0.337
 5885WAT     H224261   5.730   2.713   0.395
 5885WAT    EPW24262   5.787   2.757   0.363
 5886WAT      O24263   4.005   1.748   0.594
 5886WAT     H124264   4.054   1.719   0.660
 5886WAT     H224265   4.018   1.689   0.532
 5886WAT    EPW24266   4.014   1.735   0.595
 5887WAT      O24267   5.508   2.050   1.279
 5887WAT     H124268   5.507   1.972   1.319
 5887WAT     H224269   5.424   2.073   1.279
 5887WAT    EPW24270   5.496   2.042   1.285
 5888WAT      O24271   4.139   2.202   1.683
 5888WAT     H124272   4.097   2.150   1.627
 5888WAT     H224273   4.104   2.281   1.669
 5888WAT    EPW24274   4.128   2.206   1.673
 5889WAT      O24275   5.634   2.057   1.023
 5889WAT     H124276   5.605   2.097   1.095
 5889WAT     H224277   5.720   2.051   1.036
 5889WAT    EPW24278   5.642   2.062   1.036
 5890WAT      O24279   4.603   1.737   0.414
 5890WAT     H124280   4.630   1.820   0.421
 5890WAT     H224281   4.516   1.745   0.404
 5890WAT    EPW24282   4.594   1.751   0.413
 5891WAT      O24283   5.400   1.450   1.877
 5891WAT     H124284   5.347   1.495   1.930
 5891WAT     H224285   5.364   1.370   1.877
 5891WAT    EPW24286   5.387   1.445   1.885
 5892WAT      O24287   3.951   1.334   1.068
 5892WAT     H124288   3.955   1.369   0.987
 5892WAT     H224289   4.026   1.358   1.104
 5892WAT    EPW24290   3.962   1.343   1.061
 5893WAT      O24291   5.747   2.620   1.076
 5893WAT     H124292   5.776   2.646   0.998
 5893WAT     H224293   5.816   2.630   1.128
 5893WAT    EPW24294   5.761   2.626   1.072
 5894WAT      O24295   5.249   1.806   1.885
 5894WAT     H124296   5.256   1.817   1.971
 5894WAT     H224297   5.186   1.862   1.863
 5894WAT    EPW24298   5.241   1.816   1.894
 5895WAT      O24299   5.476   1.838   1.721
 5895WAT     H124300   5.508   1.917   1.742
 5895WAT     H224301   5.439   1.811   1.796
 5895WAT    EPW24302   5.475   1.846   1.735
 5896WAT      O24303   5.407   2.481   0.274
 5896WAT     H124304   5.441   2.400   0.278
 5896WAT     H224305   5.332   2.474   0.317
 5896WAT    EPW24306   5.401   2.468   0.281
 5897WAT      O24307   5.456   1.664   0.840
 5897WAT     H124308   5.381   1.632   0.872
 5897WAT     H224309   5.456   1.747   0.868
 5897WAT    EPW24310   5.445   1.672   0.849
 5898WAT      O24311   5.746   1.893   1.995
 5898WAT     H124312   5.741   1.858   1.915
 5898WAT     H224313   5.819   1.939   1.993
 5898WAT    EPW24314   5.756   1.894   1.983
 5899WAT      O24315   5.700   2.260   1.615
 5899WAT     H124316   5.762   2.205   1.590
 5899WAT     H224317   5.693   2.317   1.549
 5899WAT    EPW24318   5.708   2.260   1.602
 5900WAT      O24319   5.145   2.268   0.215
 5900WAT     H124320   5.213   2.217   0.198
 5900WAT     H224321   5.103   2.273   0.138
 5900WAT    EPW24322   5.149   2.261   0.201
 5901WAT      O24323   4.411   2.278   1.685
 5901WAT     H124324   4.330   2.249   1.701
 5901WAT     H224325   4.402   2.365   1.685
 5901WAT    EPW24326   4.398   2.287   1.687
 5902WAT      O24327   5.347   1.297   1.586
 5902WAT     H124328   5.421   1.342   1.580
 5902WAT     H224329   5.290   1.344   1.539
 5902WAT    EPW24330   5.349   1.311   1.578
 5903WAT      O24331   4.865   2.026   1.294
 5903WAT     H124332   4.912   2.063   1.357
 5903WAT     H224333   4.782   2.039   1.320
 5903WAT    EPW24334   4.859   2.033   1.307
 5904WAT      O24335   4.536   1.586   1.568
 5904WAT     H124336   4.552   1.511   1.611
 5904WAT     H224337   4.531   1.561   1.485
 5904WAT    EPW24338   4.537   1.571   1.562
 5905WAT      O24339   4.791   2.765   0.817
 5905WAT     H124340   4.846   2.833   0.822
 5905WAT     H224341   4.756   2.773   0.737
 5905WAT    EPW24342   4.794   2.776   0.806
 5906WAT      O24343   5.475   1.095   1.353
 5906WAT     H124344   5.447   1.178   1.349
 5906WAT     H224345   5.547   1.100   1.403
 5906WAT    EPW24346   5.482   1.108   1.360
 5907WAT      O24347   4.711   1.167   1.556
 5907WAT     H124348   4.781   1.199   1.516
 5907WAT     H224349   4.735   1.086   1.579
 5907WAT    EPW24350   4.725   1.159   1.554
 5908WAT      O24351   4.609   2.588   1.156
 5908WAT     H124352   4.547   2.646   1.138
 5908WAT     H224353   4.634   2.559   1.077
 5908WAT    EPW24354   4.604   2.592   1.141
 5909WAT      O24355   5.040   2.251   1.855
 5909WAT     H124356   5.116   2.280   1.822
 5909WAT     H224357   4.985   2.256   1.787
 5909WAT    EPW24358   5.043   2.256   1.840
 5910WAT      O24359   5.431   2.506   1.705
 5910WAT     H124360   5.466   2.533   1.780
 5910WAT     H224361   5.460   2.564   1.647
 5910WAT    EPW24362   5.441   2.519   1.708
 5911WAT      O24363   5.617   1.721   0.239
 5911WAT     H124364   5.655   1.788   0.199
 5911WAT     H224365   5.533   1.743   0.242
 5911WAT    EPW24366   5.610   1.734   0.233
 5912WAT      O24367   4.362   1.672   1.162
 5912WAT     H124368   4.406   1.662   1.088
 5912WAT     H224369   4.416   1.641   1.223
 5912WAT    EPW24370   4.376   1.666   1.160
 5913WAT      O24371   5.163   1.582   1.721
 5913WAT     H124372   5.098   1.629   1.756
 5913WAT     H224373   5.220   1.573   1.787
 5913WAT    EPW24374   5.162   1.588   1.736
 5914WAT      O24375   5.132   1.736   1.351
 5914WAT     H124376   5.162   1.778   1.422
 5914WAT     H224377   5.136   1.652   1.374
 5914WAT    EPW24378   5.137   1.730   1.365
 5915WAT      O24379   4.875   2.753   1.744
 5915WAT     H124380   4.922   2.693   1.702
 5915WAT     H224381   4.839   2.708   1.810
 5915WAT    EPW24382   4.876   2.737   1.747
 5916WAT      O24383   5.387   1.681   0.576
 5916WAT     H124384   5.408   1.660   0.659
 5916WAT     H224385   5.462   1.707   0.542
 5916WAT    EPW24386   5.401   1.682   0.584
 5917WAT      O24387   4.716   1.170   1.167
 5917WAT     H124388   4.634   1.156   1.191
 5917WAT     H224389   4.712   1.174   1.080
 5917WAT    EPW24390   4.704   1.169   1.158
 5918WAT      O24391   5.489   1.289   0.724
 5918WAT     H124392   5.418   1.242   0.741
 5918WAT     H224393   5.473   1.323   0.645
 5918WAT    EPW24394   5.476   1.287   0.715
 5919WAT      O24395   5.533   2.083   0.562
 5919WAT     H124396   5.581   2.010   0.557
 5919WAT     H224397   5.451   2.055   0.554
 5919WAT    EPW24398   5.528   2.068   0.560
 5920WAT      O24399   4.880   2.274   1.646
 5920WAT     H124400   4.801   2.268   1.681
 5920WAT     H224401   4.888   2.359   1.626
 5920WAT    EPW24402   4.870   2.286   1.648
 5921WAT      O24403   3.973   1.210   1.770
 5921WAT     H124404   3.959   1.290   1.737
 5921WAT     H224405   3.894   1.186   1.799
 5921WAT    EPW24406   3.959   1.218   1.770
 5922WAT      O24407   4.463   2.895   1.177
 5922WAT     H124408   4.465   2.901   1.264
 5922WAT     H224409   4.421   2.820   1.162
 5922WAT    EPW24410   4.457   2.885   1.188
 5923WAT      O24411   4.279   1.485   0.493
 5923WAT     H124412   4.292   1.452   0.413
 5923WAT     H224413   4.198   1.460   0.513
 5923WAT    EPW24414   4.269   1.476   0.484
 5924WAT      O24415   5.155   2.200   0.797
 5924WAT     H124416   5.163   2.234   0.877
 5924WAT     H224417   5.172   2.115   0.809
 5924WAT    EPW24418   5.159   2.192   0.811
 5925WAT      O24419   4.907   2.127   0.754
 5925WAT     H124420   4.877   2.096   0.830
 5925WAT     H224421   4.977   2.175   0.777
 5925WAT    EPW24422   4.913   2.130   0.769
 5926WAT      O24423   4.929   2.539   1.557
 5926WAT     H124424   4.998   2.528   1.609
 5926WAT     H224425   4.943   2.618   1.522
 5926WAT    EPW24426   4.941   2.549   1.559
 5927WAT      O24427   5.747   1.800   1.738
 5927WAT     H124428   5.661   1.788   1.750
 5927WAT     H224429   5.762   1.761   1.661
 5927WAT    EPW24430   5.737   1.792   1.728
 5928WAT      O24431   5.198   1.867   1.595
 5928WAT     H124432   5.173   1.795   1.637
 5928WAT     H224433   5.280   1.878   1.622
 5928WAT    EPW24434   5.207   1.858   1.605
 5929WAT      O24435   4.140   2.845   1.722
 5929WAT     H124436   4.074   2.788   1.731
 5929WAT     H224437   4.102   2.922   1.737
 5929WAT    EPW24438   4.125   2.848   1.725
 5930WAT      O24439   4.992   1.986   1.914
 5930WAT     H124440   5.024   2.054   1.871
 5930WAT     H224441   4.921   2.018   1.954
 5930WAT    EPW24442   4.986   2.000   1.913
 5931WAT      O24443   5.300   2.823   1.007
 5931WAT     H124444   5.255   2.887   1.045
 5931WAT     H224445   5.371   2.815   1.057
 5931WAT    EPW24446   5.304   2.831   1.020
 5932WAT      O24447   4.970   2.332   1.300
 5932WAT     H124448   4.901   2.372   1.334
 5932WAT     H224449   5.038   2.375   1.334
 5932WAT    EPW24450   4.970   2.344   1.310
 5933WAT      O24451   5.508   2.591   1.958
 5933WAT     H124452   5.585   2.552   1.966
 5933WAT     H224453   5.461   2.558   2.023
 5933WAT    EPW24454   5.512   2.581   1.969
 5934WAT      O24455   4.277   1.686   1.535
 5934WAT     H124456   4.314   1.748   1.486
 5934WAT     H224457   4.344   1.638   1.563
 5934WAT    EPW24458   4.292   1.688   1.532
 5935WAT      O24459   4.054   1.531   1.462
 5935WAT     H124460   4.062   1.514   1.377
 5935WAT     H224461   4.129   1.571   1.482
 5935WAT    EPW24462   4.067   1.534   1.452
 5936WAT      O24463   5.610   1.795   0.506
 5936WAT     H124464   5.621   1.789   0.420
 5936WAT     H224465   5.684   1.761   0.538
 5936WAT    EPW24466   5.623   1.789   0.498
 5937WAT      O24467   4.310   1.272   1.703
 5937WAT     H124468   4.302   1.187   1.724
 5937WAT     H224469   4.278   1.276   1.622
 5937WAT    EPW24470   4.304   1.260   1.694
 5938WAT      O24471   5.002   2.491   0.617
 5938WAT     H124472   4.982   2.574   0.601
 5938WAT     H224473   4.925   2.453   0.629
 5938WAT    EPW24474   4.988   2.498   0.616
 5939WAT      O24475   5.521   1.809   1.442
 5939WAT     H124476   5.520   1.723   1.454
 5939WAT     H224477   5.527   1.842   1.522
 5939WAT    EPW24478   5.522   1.801   1.455
 5940WAT      O24479   3.994   2.053   1.484
 5940WAT     H124480   4.026   2.075   1.406
 5940WAT     H224481   3.984   1.967   1.479
 5940WAT    EPW24482   3.997   2.044   1.472
 5941WAT      O24483   5.108   1.289   1.820
 5941WAT     H124484   5.118   1.360   1.869
 5941WAT     H224485   5.045   1.245   1.860
 5941WAT    EPW24486   5.100   1.293   1.833
 5942WAT      O24487   5.008   1.308   0.905
 5942WAT     H124488   4.938   1.360   0.900
 5942WAT     H224489   5.012   1.270   0.827
 5942WAT    EPW24490   4.998   1.310   0.893
 5943WAT      O24491   4.539   2.517   0.258
 5943WAT     H124492   4.583   2.525   0.332
 5943WAT     H224493   4.458   2.496   0.283
 5943WAT    EPW24494   4.533   2.515   0.273
 5944WAT      O24495   5.368   1.360   1.185
 5944WAT     H124496   5.453   1.370   1.200
 5944WAT     H224497   5.331   1.415   1.242
 5944WAT    EPW24498   5.375   1.369   1.196
 5945WAT      O24499   4.470   1.982   1.623
 5945WAT     H124500   4.431   2.060   1.630
 5945WAT     H224501   4.430   1.945   1.555
 5945WAT    EPW24502   4.459   1.988   1.614
 5946WAT      O24503   5.398   1.888   1.034
 5946WAT     H124504   5.465   1.942   1.050
 5946WAT     H224505   5.364   1.919   0.960
 5946WAT    EPW24506   5.403   1.900   1.026
 5947WAT      O24507   5.429   2.694   0.615
 5947WAT     H124508   5.412   2.629   0.670
 5947WAT     H224509   5.501   2.667   0.573
 5947WAT    EPW24510   5.437   2.681   0.617
 5948WAT      O24511   4.271   2.424   0.318
 5948WAT     H124512   4.247   2.394   0.396
 5948WAT     H224513   4.268   2.354   0.266
 5948WAT    EPW24514   4.267   2.409   0.322
 5949WAT      O24515   4.553   2.249   0.192
 5949WAT     H124516   4.472   2.222   0.206
 5949WAT     H224517   4.551   2.334   0.211
 5949WAT    EPW24518   4.541   2.257   0.197
 5950WAT      O24519   4.513   1.280   1.368
 5950WAT     H124520   4.427   1.288   1.376
 5950WAT     H224521   4.535   1.229   1.435
 5950WAT    EPW24522   4.504   1.274   1.379
 5951WAT      O24523   5.715   1.144   1.501
 5951WAT     H124524   5.710   1.139   1.588
 5951WAT     H224525   5.784   1.093   1.482
 5951WAT    EPW24526   5.725   1.136   1.511
 5952WAT      O24527   4.924   1.355   1.205
 5952WAT     H124528   4.850   1.309   1.217
 5952WAT     H224529   4.981   1.315   1.258
 5952WAT    EPW24530   4.921   1.342   1.215
 5953WAT      O24531   5.197   2.440   1.384
 5953WAT     H124532   5.217   2.470   1.463
 5953WAT     H224533   5.191   2.512   1.336
 5953WAT    EPW24534   5.199   2.455   1.389
 5954WAT      O24535   5.150   2.861   1.809
 5954WAT     H124536   5.075   2.859   1.765
 5954WAT     H224537   5.167   2.946   1.817
 5954WAT    EPW24538   5.142   2.873   1.803
 5955WAT      O24539   4.674   1.788   1.726
 5955WAT     H124540   4.642   1.730   1.669
 5955WAT     H224541   4.638   1.863   1.701
 5955WAT    EPW24542   4.664   1.790   1.714
 5956WAT      O24543   5.678   2.304   1.330
 5956WAT     H124544   5.675   2.217   1.316
 5956WAT     H224545   5.609   2.334   1.287
 5956WAT    EPW24546   5.667   2.295   1.322
 5957WAT      O24547   4.517   2.823   1.751
 5957WAT     H124548   4.522   2.836   1.837
 5957WAT     H224549   4.583   2.767   1.735
 5957WAT    EPW24550   4.528   2.817   1.761
 5958WAT      O24551   5.489   2.630   1.210
 5958WAT     H124552   5.541   2.621   1.141
 5958WAT     H224553   5.449   2.552   1.215
 5958WAT    EPW24554   5.491   2.617   1.200
 5959WAT      O24555   4.235   1.288   1.433
 5959WAT     H124556   4.201   1.212   1.409
 5959WAT     H224557   4.166   1.341   1.439
 5959WAT    EPW24558   4.220   1.285   1.430
 5960WAT      O24559   5.140   1.174   1.130
 5960WAT     H124560   5.207   1.228   1.143
 5960WAT     H224561   5.090   1.216   1.073
 5960WAT    EPW24562   5.142   1.188   1.124
 5961WAT      O24563   4.277   2.662   1.887
 5961WAT     H124564   4.336   2.705   1.934
 5961WAT     H224565   4.240   2.724   1.838
 5961WAT    EPW24566   4.280   2.677   1.886
 5962WAT      O24567   5.076   1.755   0.880
 5962WAT     H124568   5.131   1.694   0.910
 5962WAT     H224569   5.033   1.781   0.951
 5962WAT    EPW24570   5.078   1.750   0.895
 5963WAT      O24571   4.101   1.620   0.828
 5963WAT     H124572   4.064   1.650   0.901
 5963WAT     H224573   4.154   1.557   0.857
 5963WAT    EPW24574   4.103   1.615   0.843
 5964WAT      O24575   4.069   2.461   1.579
 5964WAT     H124576   4.012   2.502   1.630
 5964WAT     H224577   4.143   2.507   1.589
 5964WAT    EPW24578   4.072   2.474   1.588
 5965WAT      O24579   5.273   1.938   0.536
 5965WAT     H124580   5.280   1.853   0.554
 5965WAT     H224581   5.191   1.946   0.508
 5965WAT    EPW24582   5.262   1.927   0.535
 5966WAT      O24583   4.248   2.787   0.457
 5966WAT     H124584   4.234   2.803   0.372
 5966WAT     H224585   4.335   2.795   0.465
 5966WAT    EPW24586   4.259   2.791   0.446
 5967WAT      O24587   4.665   2.027   0.430
 5967WAT     H124588   4.675   2.041   0.344
 5967WAT     H224589   4.747   2.021   0.459
 5967WAT    EPW24590   4.678   2.028   0.421
 5968WAT      O24591   5.581   2.833   0.178
 5968WAT     H124592   5.644   2.820   0.236
 5968WAT     H224593   5.547   2.754   0.166
 5968WAT    EPW24594   5.585   2.820   0.185
 5969WAT      O24595   5.600   2.075   1.851
 5969WAT     H124596   5.664   2.058   1.908
 5969WAT     H224597   5.642   2.115   1.786
 5969WAT    EPW24598   5.616   2.079   1.850
 5970WAT      O24599   5.188   2.460   0.410
 5970WAT     H124600   5.163   2.447   0.493
 5970WAT     H224601   5.157   2.390   0.368
 5970WAT    EPW24602   5.180   2.448   0.416
 5971WAT      O24603   5.663   1.532   1.925
 5971WAT     H124604   5.643   1.596   1.980
 5971WAT     H224605   5.591   1.483   1.924
 5971WAT    EPW24606   5.649   1.534   1.933
 5972WAT      O24607   5.653   1.626   1.222
 5972WAT     H124608   5.569   1.651   1.215
 5972WAT     H224609   5.647   1.542   1.245
 5972WAT    EPW24610   5.640   1.617   1.224
 5973WAT      O24611   4.579   1.324   1.741
 5973WAT     H124612   4.602   1.267   1.680
 5973WAT     H224613   4.494   1.306   1.755
 5973WAT    EPW24614   4.570   1.313   1.734
 5974WAT      O24615   5.341   2.086   1.987
 5974WAT     H124616   5.428   2.083   1.983
 5974WAT     H224617   5.319   2.128   1.913
 5974WAT    EPW24618   5.351   2.092   1.975
 5975WAT      O24619   4.317   2.669   1.105
 5975WAT     H124620   4.309   2.588   1.073
 5975WAT     H224621   4.272   2.717   1.047
 5975WAT    EPW24622   4.309   2.664   1.092
 5976WAT      O24623   4.877   2.281   0.353
 5976WAT     H124624   4.949   2.246   0.317
 5976WAT     H224625   4.873   2.361   0.318
 5976WAT    EPW24626   4.887   2.287   0.343
 5977WAT      O24627   4.074   2.893   1.463
 5977WAT     H124628   4.123   2.888   1.535
 5977WAT     H224629   4.093   2.820   1.419
 5977WAT    EPW24630   4.084   2.881   1.467
 5978WAT      O24631   3.986   0.403   6.392
 5978WAT     H124632   3.941   0.414   6.466
 5978WAT     H224633   3.957   0.325   6.363
 5978WAT    EPW24634   3.975   0.393   6.399
 5979WAT      O24635   5.613   0.733   6.143
 5979WAT     H124636   5.683   0.681   6.143
 5979WAT     H224637   5.554   0.688   6.097
 5979WAT    EPW24638   5.615   0.718   6.136
 5980WAT      O24639   4.274   0.308   5.910
 5980WAT     H124640   4.235   0.271   5.841
 5980WAT     H224641   4.266   0.248   5.973
 5980WAT    EPW24642   4.267   0.294   5.909
 5981WAT      O24643   4.236   0.472   6.300
 5981WAT     H124644   4.297   0.455   6.360
 5981WAT     H224645   4.161   0.458   6.342
 5981WAT    EPW24646   4.234   0.468   6.315
 5982WAT      O24647   4.126   0.781   5.908
 5982WAT     H124648   4.172   0.790   5.834
 5982WAT     H224649   4.171   0.723   5.954
 5982WAT    EPW24650   4.139   0.774   5.904
 5983WAT      O24651   3.980   0.676   7.017
 5983WAT     H124652   3.992   0.648   7.099
 5983WAT     H224653   3.919   0.622   6.987
 5983WAT    EPW24654   3.972   0.664   7.025
 5984WAT      O24655   4.637   0.429   7.524
 5984WAT     H124656   4.613   0.428   7.608
 5984WAT     H224657   4.562   0.414   7.482
 5984WAT    EPW24658   4.622   0.426   7.530
 5985WAT      O24659   4.635   0.748   7.250
 5985WAT     H124660   4.649   0.824   7.210
 5985WAT     H224661   4.714   0.711   7.253
 5985WAT    EPW24662   4.649   0.754   7.245
 5986WAT      O24663   4.745   0.536   6.701
 5986WAT     H124664   4.779   0.456   6.704
 5986WAT     H224665   4.811   0.587   6.675
 5986WAT    EPW24666   4.760   0.532   6.698
 5987WAT      O24667   4.750   0.481   6.322
 5987WAT     H124668   4.783   0.417   6.371
 5987WAT     H224669   4.774   0.460   6.241
 5987WAT    EPW24670   4.759   0.469   6.317
 5988WAT      O24671   3.961   0.875   6.529
 5988WAT     H124672   3.902   0.931   6.498
 5988WAT     H224673   4.003   0.848   6.458
 5988WAT    EPW24674   3.958   0.879   6.514
 5989WAT      O24675   4.545   0.660   6.277
 5989WAT     H124676   4.487   0.632   6.336
 5989WAT     H224677   4.607   0.599   6.279
 5989WAT    EPW24678   4.545   0.647   6.286
 5990WAT      O24679   5.159   0.888   6.029
 5990WAT     H124680   5.232   0.936   6.039
 5990WAT     H224681   5.182   0.809   6.057
 5990WAT    EPW24682   5.173   0.884   6.035
 5991WAT      O24683   4.976   0.928   6.228
 5991WAT     H124684   4.997   0.980   6.294
 5991WAT     H224685   5.053   0.910   6.190
 5991WAT    EPW24686   4.990   0.933   6.232
 5992WAT      O24687   4.115   0.742   6.322
 5992WAT     H124688   4.181   0.685   6.324
 5992WAT     H224689   4.154   0.817   6.300
 5992WAT    EPW24690   4.131   0.745   6.319
 5993WAT      O24691   5.220   0.929   7.059
 5993WAT     H124692   5.294   0.974   7.058
 5993WAT     H224693   5.208   0.907   6.975
 5993WAT    EPW24694   5.229   0.932   7.046
 5994WAT      O24695   4.197   0.591   6.672
 5994WAT     H124696   4.239   0.555   6.605
 5994WAT     H224697   4.229   0.549   6.741
 5994WAT    EPW24698   4.208   0.579   6.672
 5995WAT      O24699   4.520   0.876   6.602
 5995WAT     H124700   4.605   0.887   6.582
 5995WAT     H224701   4.490   0.958   6.608
 5995WAT    EPW24702   4.528   0.890   6.600
 5996WAT      O24703   5.377   1.047   6.069
 5996WAT     H124704   5.444   1.032   6.015
 5996WAT     H224705   5.413   1.039   6.148
 5996WAT    EPW24706   5.392   1.044   6.073
 5997WAT      O24707   4.420   0.998   7.176
 5997WAT     H124708   4.449   0.991   7.258
 5997WAT     H224709   4.357   0.938   7.171
 5997WAT    EPW24710   4.415   0.988   7.187
 5998WAT      O24711   5.145   0.647   7.429
 5998WAT     H124712   5.142   0.685   7.507
 5998WAT     H224713   5.231   0.643   7.412
 5998WAT    EPW24714   5.157   0.652   7.438
 5999WAT      O24715   4.859   0.667   5.904
 5999WAT     H124716   4.841   0.721   5.970
 5999WAT     H224717   4.936   0.696   5.874
 5999WAT    EPW24718   4.868   0.679   5.909
 6000WAT      O24719   4.219   0.814   7.088
 6000WAT     H124720   4.149   0.763   7.100
 6000WAT     H224721   4.245   0.794   7.007
 6000WAT    EPW24722   4.213   0.804   7.078
 6001WAT      O24723   4.990   0.964   7.179
 6001WAT     H124724   5.067   0.956   7.138
 6001WAT     H224725   4.932   0.951   7.115
 6001WAT    EPW24726   4.993   0.961   7.163
 6002WAT      O24727   5.618   1.024   6.469
 6002WAT     H124728   5.573   1.096   6.489
 6002WAT     H224729   5.557   0.967   6.445
 6002WAT    EPW24730   5.602   1.026   6.468
 6003WAT      O24731   5.318   0.608   6.423
 6003WAT     H124732   5.388   0.560   6.442
 6003WAT     H224733   5.252   0.551   6.428
 6003WAT    EPW24734   5.318   0.593   6.427
 6004WAT      O24735   4.355   0.699   7.345
 6004WAT     H124736   4.439   0.706   7.322
 6004WAT     H224737   4.352   0.739   7.422
 6004WAT    EPW24738   4.367   0.706   7.353
 6005WAT      O24739   4.552   0.250   6.819
 6005WAT     H124740   4.569   0.229   6.902
 6005WAT     H224741   4.486   0.197   6.798
 6005WAT    EPW24742   4.545   0.239   6.829
 6006WAT      O24743   4.627   0.244   7.078
 6006WAT     H124744   4.632   0.329   7.099
 6006WAT     H224745   4.598   0.207   7.152
 6006WAT    EPW24746   4.623   0.251   7.092
 6007WAT      O24747   5.244   0.314   6.991
 6007WAT     H124748   5.193   0.273   7.049
 6007WAT     H224749   5.232   0.398   7.010
 6007WAT    EPW24750   5.235   0.320   7.003
 6008WAT      O24751   5.570   0.358   6.004
 6008WAT     H124752   5.582   0.329   6.086
 6008WAT     H224753   5.650   0.360   5.971
 6008WAT    EPW24754   5.583   0.354   6.011
 6009WAT      O24755   4.283   0.331   6.537
 6009WAT     H124756   4.368   0.323   6.520
 6009WAT     H224757   4.248   0.263   6.496
 6009WAT    EPW24758   4.291   0.320   6.529
 6010WAT      O24759   4.160   1.003   6.661
 6010WAT     H124760   4.093   0.954   6.636
 6010WAT     H224761   4.200   1.022   6.586
 6010WAT    EPW24762   4.156   0.999   6.646
 6011WAT      O24763   5.793   0.809   7.430
 6011WAT     H124764   5.725   0.840   7.385
 6011WAT     H224765   5.756   0.763   7.494
 6011WAT    EPW24766   5.777   0.806   7.432
 6012WAT      O24767   4.520   0.332   6.361
 6012WAT     H124768   4.591   0.381   6.370
 6012WAT     H224769   4.542   0.275   6.298
 6012WAT    EPW24770   4.534   0.330   6.353
 6013WAT      O24771   3.936   0.496   6.693
 6013WAT     H124772   3.869   0.545   6.720
 6013WAT     H224773   4.004   0.550   6.696
 6013WAT    EPW24774   3.936   0.511   6.697
 6014WAT      O24775   4.972   0.702   6.593
 6014WAT     H124776   4.920   0.765   6.564
 6014WAT     H224777   5.003   0.665   6.521
 6014WAT    EPW24778   4.969   0.706   6.578
 6015WAT      O24779   3.959   0.581   6.161
 6015WAT     H124780   4.015   0.638   6.197
 6015WAT     H224781   3.936   0.529   6.227
 6015WAT    EPW24782   3.964   0.581   6.176
 6016WAT      O24783   4.380   0.481   6.869
 6016WAT     H124784   4.427   0.510   6.937
 6016WAT     H224785   4.437   0.433   6.824
 6016WAT    EPW24786   4.395   0.478   6.873
 6017WAT      O24787   3.942   0.426   5.923
 6017WAT     H124788   4.018   0.382   5.929
 6017WAT     H224789   3.944   0.479   5.992
 6017WAT    EPW24790   3.954   0.427   5.934
 6018WAT      O24791   4.036   0.248   6.724
 6018WAT     H124792   4.080   0.235   6.649
 6018WAT     H224793   4.016   0.332   6.721
 6018WAT    EPW24794   4.040   0.258   6.712
 6019WAT      O24795   5.576   0.847   7.239
 6019WAT     H124796   5.509   0.898   7.260
 6019WAT     H224797   5.583   0.857   7.152
 6019WAT    EPW24798   5.567   0.856   7.229
 6020WAT      O24799   4.445   0.599   6.552
 6020WAT     H124800   4.457   0.684   6.571
 6020WAT     H224801   4.512   0.559   6.592
 6020WAT    EPW24802   4.457   0.606   6.561
 6021WAT      O24803   4.776   0.922   6.998
 6021WAT     H124804   4.748   0.858   6.946
 6021WAT     H224805   4.755   0.994   6.954
 6021WAT    EPW24806   4.769   0.923   6.984
 6022WAT      O24807   5.306   0.400   7.441
 6022WAT     H124808   5.355   0.472   7.450
 6022WAT     H224809   5.346   0.357   7.376
 6022WAT    EPW24810   5.319   0.404   7.432
 6023WAT      O24811   4.736   0.684   7.558
 6023WAT     H124812   4.771   0.667   7.636
 6023WAT     H224813   4.692   0.612   7.538
 6023WAT    EPW24814   4.735   0.671   7.567
 6024WAT      O24815   5.549   0.463   6.448
 6024WAT     H124816   5.585   0.428   6.519
 6024WAT     H224817   5.548   0.397   6.391
 6024WAT    EPW24818   5.554   0.448   6.450
 6025WAT      O24819   5.154   0.770   6.832
 6025WAT     H124820   5.093   0.740   6.776
 6025WAT     H224821   5.208   0.815   6.781
 6025WAT    EPW24822   5.153   0.772   6.816
 6026WAT      O24823   5.155   0.455   6.772
 6026WAT     H124824   5.075   0.477   6.799
 6026WAT     H224825   5.181   0.395   6.831
 6026WAT    EPW24826   5.147   0.449   6.785
 6027WAT      O24827   4.544   0.936   6.217
 6027WAT     H124828   4.529   0.858   6.254
 6027WAT     H224829   4.613   0.921   6.165
 6027WAT    EPW24830   4.552   0.922   6.215
 6028WAT      O24831   4.773   0.888   6.057
 6028WAT     H124832   4.836   0.904   6.116
 6028WAT     H224833   4.777   0.957   6.004
 6028WAT    EPW24834   4.783   0.900   6.058
 6029WAT      O24835   5.481   0.255   7.257
 6029WAT     H124836   5.486   0.267   7.170
 6029WAT     H224837   5.556   0.287   7.287
 6029WAT    EPW24838   5.493   0.261   7.248
 6030WAT      O24839   5.054   0.235   7.217
 6030WAT     H124840   5.039   0.296   7.277
 6030WAT     H224841   5.107   0.179   7.257
 6030WAT    EPW24842   5.060   0.236   7.232
 6031WAT      O24843   5.415   0.508   6.869
 6031WAT     H124844   5.367   0.538   6.803
 6031WAT     H224845   5.379   0.430   6.887
 6031WAT    EPW24846   5.403   0.501   6.862
 6032WAT      O24847   4.815   0.280   6.726
 6032WAT     H124848   4.730   0.260   6.734
 6032WAT     H224849   4.847   0.263   6.805
 6032WAT    EPW24850   4.807   0.275   6.738
 6033WAT      O24851   4.490   0.953   5.814
 6033WAT     H124852   4.534   0.883   5.843
 6033WAT     H224853   4.511   1.015   5.871
 6033WAT    EPW24854   4.500   0.952   5.827
 6034WAT      O24855   4.200   0.249   6.957
 6034WAT     H124856   4.272   0.298   6.953
 6034WAT     H224857   4.173   0.246   6.874
 6034WAT    EPW24858   4.206   0.256   6.944
 6035WAT      O24859   5.784   0.925   6.063
 6035WAT     H124860   5.854   0.878   6.039
 6035WAT     H224861   5.730   0.865   6.097
 6035WAT    EPW24862   5.787   0.909   6.065
 6036WAT      O24863   4.139   0.354   7.385
 6036WAT     H124864   4.097   0.303   7.329
 6036WAT     H224865   4.104   0.433   7.371
 6036WAT    EPW24866   4.128   0.358   7.375
 6037WAT      O24867   5.634   0.209   6.725
 6037WAT     H124868   5.605   0.249   6.797
 6037WAT     H224869   5.720   0.203   6.738
 6037WAT    EPW24870   5.642   0.214   6.737
 6038WAT      O24871   5.747   0.773   6.778
 6038WAT     H124872   5.776   0.798   6.700
 6038WAT     H224873   5.816   0.782   6.830
 6038WAT    EPW24874   5.761   0.778   6.774
 6039WAT      O24875   5.407   0.633   5.976
 6039WAT     H124876   5.441   0.552   5.980
 6039WAT     H224877   5.332   0.626   6.019
 6039WAT    EPW24878   5.401   0.620   5.983
 6040WAT      O24879   5.700   0.412   7.317
 6040WAT     H124880   5.762   0.357   7.292
 6040WAT     H224881   5.693   0.469   7.251
 6040WAT    EPW24882   5.708   0.413   7.304
 6041WAT      O24883   5.145   0.420   5.916
 6041WAT     H124884   5.213   0.369   5.899
 6041WAT     H224885   5.103   0.425   5.840
 6041WAT    EPW24886   5.149   0.414   5.903
 6042WAT      O24887   4.613   0.535   7.047
 6042WAT     H124888   4.583   0.595   7.103
 6042WAT     H224889   4.618   0.580   6.972
 6042WAT    EPW24890   4.609   0.551   7.044
 6043WAT      O24891   4.411   0.430   7.387
 6043WAT     H124892   4.330   0.401   7.403
 6043WAT     H224893   4.402   0.517   7.387
 6043WAT    EPW24894   4.398   0.439   7.389
 6044WAT      O24895   4.865   0.178   6.996
 6044WAT     H124896   4.912   0.215   7.059
 6044WAT     H224897   4.782   0.191   7.022
 6044WAT    EPW24898   4.859   0.185   7.009
 6045WAT      O24899   4.791   0.917   6.519
 6045WAT     H124900   4.846   0.985   6.524
 6045WAT     H224901   4.756   0.925   6.439
 6045WAT    EPW24902   4.794   0.928   6.508
 6046WAT      O24903   4.609   0.740   6.858
 6046WAT     H124904   4.547   0.798   6.839
 6046WAT     H224905   4.634   0.711   6.779
 6046WAT    EPW24906   4.604   0.744   6.843
 6047WAT      O24907   5.040   0.403   7.556
 6047WAT     H124908   5.116   0.432   7.524
 6047WAT     H224909   4.985   0.408   7.489
 6047WAT    EPW24910   5.043   0.408   7.542
 6048WAT      O24911   5.431   0.658   7.407
 6048WAT     H124912   5.466   0.685   7.482
 6048WAT     H224913   5.460   0.716   7.349
 6048WAT    EPW24914   5.441   0.671   7.409
 6049WAT      O24915   4.769   0.217   5.849
 6049WAT     H124916   4.688   0.200   5.821
 6049WAT     H224917   4.765   0.303   5.868
 6049WAT    EPW24918   4.756   0.227   5.848
 6050WAT      O24919   4.875   0.905   7.446
 6050WAT     H124920   4.922   0.845   7.404
 6050WAT     H224921   4.839   0.860   7.512
 6050WAT    EPW24922   4.876   0.889   7.449
 6051WAT      O24923   5.533   0.235   6.264
 6051WAT     H124924   5.581   0.163   6.259
 6051WAT     H224925   5.451   0.207   6.256
 6051WAT    EPW24926   5.528   0.220   6.262
 6052WAT      O24927   4.880   0.427   7.348
 6052WAT     H124928   4.801   0.420   7.383
 6052WAT     H224929   4.888   0.511   7.328
 6052WAT    EPW24930   4.870   0.438   7.350
 6053WAT      O24931   4.463   1.047   6.879
 6053WAT     H124932   4.465   1.053   6.966
 6053WAT     H224933   4.421   0.973   6.864
 6053WAT    EPW24934   4.457   1.037   6.890
 6054WAT      O24935   5.155   0.352   6.499
 6054WAT     H124936   5.163   0.386   6.579
 6054WAT     H224937   5.172   0.267   6.511
 6054WAT    EPW24938   5.159   0.345   6.513
 6055WAT      O24939   4.907   0.280   6.456
 6055WAT     H124940   4.877   0.248   6.531
 6055WAT     H224941   4.977   0.327   6.479
 6055WAT    EPW24942   4.913   0.282   6.470
 6056WAT      O24943   4.929   0.691   7.258
 6056WAT     H124944   4.998   0.680   7.311
 6056WAT     H224945   4.943   0.770   7.224
 6056WAT    EPW24946   4.941   0.701   7.261
 6057WAT      O24947   4.140   0.997   7.423
 6057WAT     H124948   4.074   0.940   7.433
 6057WAT     H224949   4.102   1.074   7.439
 6057WAT    EPW24950   4.125   1.000   7.427
 6058WAT      O24951   5.300   0.975   6.709
 6058WAT     H124952   5.255   1.039   6.747
 6058WAT     H224953   5.371   0.967   6.759
 6058WAT    EPW24954   5.304   0.983   6.722
 6059WAT      O24955   4.970   0.484   7.002
 6059WAT     H124956   4.901   0.524   7.036
 6059WAT     H224957   5.038   0.527   7.036
 6059WAT    EPW24958   4.970   0.496   7.012
 6060WAT      O24959   5.002   0.643   6.319
 6060WAT     H124960   4.982   0.727   6.303
 6060WAT     H224961   4.925   0.605   6.331
 6060WAT    EPW24962   4.988   0.650   6.318
 6061WAT      O24963   4.539   0.669   5.959
 6061WAT     H124964   4.583   0.677   6.034
 6061WAT     H224965   4.458   0.648   5.985
 6061WAT    EPW24966   4.533   0.667   5.974
 6062WAT      O24967   5.429   0.847   6.317
 6062WAT     H124968   5.412   0.781   6.372
 6062WAT     H224969   5.501   0.819   6.275
 6062WAT    EPW24970   5.437   0.833   6.319
 6063WAT      O24971   4.271   0.576   6.020
 6063WAT     H124972   4.247   0.546   6.098
 6063WAT     H224973   4.268   0.506   5.968
 6063WAT    EPW24974   4.267   0.562   6.023
 6064WAT      O24975   4.553   0.401   5.894
 6064WAT     H124976   4.472   0.374   5.908
 6064WAT     H224977   4.551   0.486   5.912
 6064WAT    EPW24978   4.541   0.410   5.899
 6065WAT      O24979   5.197   0.592   7.086
 6065WAT     H124980   5.217   0.622   7.165
 6065WAT     H224981   5.191   0.664   7.037
 6065WAT    EPW24982   5.199   0.607   7.090
 6066WAT      O24983   5.150   1.013   7.511
 6066WAT     H124984   5.075   1.011   7.466
 6066WAT     H224985   5.167   1.098   7.519
 6066WAT    EPW24986   5.142   1.026   7.505
 6067WAT      O24987   5.678   0.456   7.032
 6067WAT     H124988   5.675   0.370   7.018
 6067WAT     H224989   5.609   0.486   6.988
 6067WAT    EPW24990   5.667   0.447   7.023
 6068WAT      O24991   4.517   0.976   7.452
 6068WAT     H124992   4.522   0.988   7.539
 6068WAT     H224993   4.583   0.920   7.437
 6068WAT    EPW24994   4.528   0.969   7.463
 6069WAT      O24995   5.489   0.782   6.911
 6069WAT     H124996   5.541   0.773   6.842
 6069WAT     H224997   5.449   0.704   6.917
 6069WAT    EPW24998   5.491   0.769   6.902
 6070WAT      O24999   4.277   0.814   7.588
 6070WAT     H125000   4.336   0.857   7.636
 6070WAT     H225001   4.240   0.876   7.539
 6070WAT    EPW25002   4.280   0.829   7.588
 6071WAT      O25003   4.069   0.613   7.281
 6071WAT     H125004   4.012   0.654   7.332
 6071WAT     H225005   4.143   0.659   7.291
 6071WAT    EPW25006   4.072   0.626   7.290
 6072WAT      O25007   4.248   0.939   6.159
 6072WAT     H125008   4.234   0.955   6.074
 6072WAT     H225009   4.335   0.947   6.167
 6072WAT    EPW25010   4.259   0.943   6.147
 6073WAT      O25011   4.665   0.179   6.132
 6073WAT     H125012   4.675   0.193   6.046
 6073WAT     H225013   4.747   0.173   6.161
 6073WAT    EPW25014   4.678   0.180   6.123
 6074WAT      O25015   5.581   0.986   5.880
 6074WAT     H125016   5.644   0.972   5.938
 6074WAT     H225017   5.547   0.906   5.868
 6074WAT    EPW25018   5.585   0.972   5.886
 6075WAT      O25019   5.600   0.227   7.553
 6075WAT     H125020   5.664   0.210   7.610
 6075WAT     H225021   5.642   0.268   7.488
 6075WAT    EPW25022   5.616   0.231   7.552
 6076WAT      O25023   5.188   0.612   6.112
 6076WAT     H125024   5.163   0.599   6.194
 6076WAT     H225025   5.157   0.543   6.070
 6076WAT    EPW25026   5.180   0.600   6.118
 6077WAT      O25027   5.341   0.238   7.688
 6077WAT     H125028   5.428   0.235   7.685
 6077WAT     H225029   5.319   0.280   7.615
 6077WAT    EPW25030   5.351   0.244   7.677
 6078WAT      O25031   4.317   0.821   6.806
 6078WAT     H125032   4.309   0.740   6.775
 6078WAT     H225033   4.272   0.870   6.749
 6078WAT    EPW25034   4.309   0.816   6.793
 6079WAT      O25035   4.877   0.433   6.055
 6079WAT     H125036   4.949   0.398   6.019
 6079WAT     H225037   4.873   0.513   6.020
 6079WAT    EPW25038   4.887   0.440   6.044
 6080WAT      O25039   4.074   1.045   7.165
 6080WAT     H125040   4.123   1.040   7.236
 6080WAT     H225041   4.093   0.972   7.121
 6080WAT    EPW25042   4.084   1.034   7.169
 6081WAT      O25043   3.986   0.403   4.491
 6081WAT     H125044   3.941   0.414   4.566
 6081WAT     H225045   3.957   0.325   4.463
 6081WAT    EPW25046   3.975   0.393   4.498
 6082WAT      O25047   5.613   0.733   4.243
 6082WAT     H125048   5.683   0.681   4.242
 6082WAT     H225049   5.554   0.688   4.196
 6082WAT    EPW25050   5.615   0.718   4.236
 6083WAT      O25051   4.274   0.308   4.009
 6083WAT     H125052   4.235   0.271   3.941
 6083WAT     H225053   4.266   0.248   4.072
 6083WAT    EPW25054   4.267   0.294   4.008
 6084WAT      O25055   4.236   0.472   4.399
 6084WAT     H125056   4.297   0.455   4.460
 6084WAT     H225057   4.161   0.458   4.441
 6084WAT    EPW25058   4.234   0.468   4.414
 6085WAT      O25059   4.126   0.781   4.007
 6085WAT     H125060   4.172   0.790   3.934
 6085WAT     H225061   4.171   0.723   4.054
 6085WAT    EPW25062   4.139   0.774   4.003
 6086WAT      O25063   3.980   0.676   5.117
 6086WAT     H125064   3.992   0.648   5.198
 6086WAT     H225065   3.919   0.622   5.086
 6086WAT    EPW25066   3.972   0.664   5.124
 6087WAT      O25067   4.637   0.429   5.624
 6087WAT     H125068   4.613   0.428   5.708
 6087WAT     H225069   4.562   0.414   5.581
 6087WAT    EPW25070   4.622   0.426   5.630
 6088WAT      O25071   4.635   0.748   5.350
 6088WAT     H125072   4.649   0.824   5.309
 6088WAT     H225073   4.714   0.711   5.353
 6088WAT    EPW25074   4.649   0.754   5.344
 6089WAT      O25075   4.745   0.536   4.800
 6089WAT     H125076   4.779   0.456   4.803
 6089WAT     H225077   4.811   0.587   4.775
 6089WAT    EPW25078   4.760   0.532   4.797
 6090WAT      O25079   4.750   0.481   4.421
 6090WAT     H125080   4.783   0.417   4.470
 6090WAT     H225081   4.774   0.460   4.340
 6090WAT    EPW25082   4.759   0.469   4.417
 6091WAT      O25083   3.961   0.875   4.628
 6091WAT     H125084   3.902   0.931   4.597
 6091WAT     H225085   4.003   0.848   4.557
 6091WAT    EPW25086   3.958   0.879   4.613
 6092WAT      O25087   4.545   0.660   4.376
 6092WAT     H125088   4.487   0.632   4.436
 6092WAT     H225089   4.607   0.599   4.379
 6092WAT    EPW25090   4.545   0.647   4.385
 6093WAT      O25091   5.159   0.888   4.129
 6093WAT     H125092   5.232   0.936   4.139
 6093WAT     H225093   5.182   0.809   4.157
 6093WAT    EPW25094   5.173   0.884   4.134
 6094WAT      O25095   4.976   0.928   4.328
 6094WAT     H125096   4.997   0.980   4.394
 6094WAT     H225097   5.053   0.910   4.290
 6094WAT    EPW25098   4.990   0.933   4.332
 6095WAT      O25099   4.115   0.742   4.421
 6095WAT     H125100   4.181   0.685   4.423
 6095WAT     H225101   4.154   0.817   4.399
 6095WAT    EPW25102   4.131   0.745   4.418
 6096WAT      O25103   5.220   0.929   5.158
 6096WAT     H125104   5.294   0.974   5.157
 6096WAT     H225105   5.208   0.907   5.074
 6096WAT    EPW25106   5.229   0.932   5.146
 6097WAT      O25107   4.197   0.591   4.771
 6097WAT     H125108   4.239   0.555   4.704
 6097WAT     H225109   4.229   0.549   4.841
 6097WAT    EPW25110   4.208   0.579   4.772
 6098WAT      O25111   4.520   0.876   4.701
 6098WAT     H125112   4.605   0.887   4.682
 6098WAT     H225113   4.490   0.958   4.708
 6098WAT    EPW25114   4.528   0.890   4.699
 6099WAT      O25115   5.377   1.047   4.169
 6099WAT     H125116   5.444   1.032   4.114
 6099WAT     H225117   5.413   1.039   4.248
 6099WAT    EPW25118   5.392   1.044   4.172
 6100WAT      O25119   4.420   0.998   5.275
 6100WAT     H125120   4.449   0.991   5.357
 6100WAT     H225121   4.357   0.938   5.271
 6100WAT    EPW25122   4.415   0.988   5.287
 6101WAT      O25123   5.145   0.647   5.528
 6101WAT     H125124   5.142   0.685   5.607
 6101WAT     H225125   5.231   0.643   5.511
 6101WAT    EPW25126   5.157   0.652   5.538
 6102WAT      O25127   4.859   0.667   4.003
 6102WAT     H125128   4.841   0.721   4.069
 6102WAT     H225129   4.936   0.696   3.973
 6102WAT    EPW25130   4.868   0.679   4.009
 6103WAT      O25131   4.219   0.814   5.187
 6103WAT     H125132   4.149   0.763   5.200
 6103WAT     H225133   4.245   0.794   5.106
 6103WAT    EPW25134   4.213   0.804   5.177
 6104WAT      O25135   4.990   0.964   5.278
 6104WAT     H125136   5.067   0.956   5.238
 6104WAT     H225137   4.932   0.951   5.214
 6104WAT    EPW25138   4.993   0.961   5.263
 6105WAT      O25139   5.618   1.024   4.568
 6105WAT     H125140   5.573   1.096   4.588
 6105WAT     H225141   5.557   0.967   4.544
 6105WAT    EPW25142   5.602   1.026   4.568
 6106WAT      O25143   5.318   0.608   4.523
 6106WAT     H125144   5.388   0.560   4.542
 6106WAT     H225145   5.252   0.551   4.527
 6106WAT    EPW25146   5.318   0.593   4.526
 6107WAT      O25147   4.355   0.699   5.444
 6107WAT     H125148   4.439   0.706   5.422
 6107WAT     H225149   4.352   0.739   5.522
 6107WAT    EPW25150   4.367   0.706   5.452
 6108WAT      O25151   4.552   0.250   4.919
 6108WAT     H125152   4.569   0.229   5.002
 6108WAT     H225153   4.486   0.197   4.897
 6108WAT    EPW25154   4.545   0.239   4.928
 6109WAT      O25155   4.627   0.244   5.178
 6109WAT     H125156   4.632   0.329   5.198
 6109WAT     H225157   4.598   0.207   5.252
 6109WAT    EPW25158   4.623   0.251   5.192
 6110WAT      O25159   5.244   0.314   5.091
 6110WAT     H125160   5.193   0.273   5.148
 6110WAT     H225161   5.232   0.398   5.109
 6110WAT    EPW25162   5.235   0.320   5.102
 6111WAT      O25163   3.909   0.681   5.799
 6111WAT     H125164   3.984   0.716   5.825
 6111WAT     H225165   3.926   0.596   5.793
 6111WAT    EPW25166   3.923   0.674   5.802
 6112WAT      O25167   5.570   0.358   4.104
 6112WAT     H125168   5.582   0.329   4.185
 6112WAT     H225169   5.650   0.360   4.071
 6112WAT    EPW25170   5.583   0.354   4.111
 6113WAT      O25171   4.283   0.331   4.637
 6113WAT     H125172   4.368   0.323   4.619
 6113WAT     H225173   4.248   0.263   4.595
 6113WAT    EPW25174   4.291   0.320   4.628
 6114WAT      O25175   4.160   1.003   4.760
 6114WAT     H125176   4.093   0.954   4.736
 6114WAT     H225177   4.200   1.022   4.685
 6114WAT    EPW25178   4.156   0.999   4.746
 6115WAT      O25179   5.793   0.809   5.529
 6115WAT     H125180   5.725   0.840   5.484
 6115WAT     H225181   5.756   0.763   5.593
 6115WAT    EPW25182   5.777   0.806   5.532
 6116WAT      O25183   4.520   0.332   4.460
 6116WAT     H125184   4.591   0.381   4.469
 6116WAT     H225185   4.542   0.275   4.398
 6116WAT    EPW25186   4.534   0.330   4.452
 6117WAT      O25187   3.936   0.496   4.792
 6117WAT     H125188   3.869   0.545   4.820
 6117WAT     H225189   4.004   0.550   4.795
 6117WAT    EPW25190   3.936   0.511   4.797
 6118WAT      O25191   4.972   0.702   4.693
 6118WAT     H125192   4.920   0.765   4.664
 6118WAT     H225193   5.003   0.665   4.620
 6118WAT    EPW25194   4.969   0.706   4.678
 6119WAT      O25195   3.959   0.581   4.260
 6119WAT     H125196   4.015   0.638   4.296
 6119WAT     H225197   3.936   0.529   4.326
 6119WAT    EPW25198   3.964   0.581   4.275
 6120WAT      O25199   4.380   0.481   4.969
 6120WAT     H125200   4.427   0.510   5.037
 6120WAT     H225201   4.437   0.433   4.923
 6120WAT    EPW25202   4.395   0.478   4.972
 6121WAT      O25203   3.942   0.426   4.023
 6121WAT     H125204   4.018   0.382   4.029
 6121WAT     H225205   3.944   0.479   4.092
 6121WAT    EPW25206   3.954   0.427   4.034
 6122WAT      O25207   4.036   0.248   4.823
 6122WAT     H125208   4.080   0.235   4.749
 6122WAT     H225209   4.016   0.332   4.821
 6122WAT    EPW25210   4.040   0.258   4.812
 6123WAT      O25211   5.576   0.847   5.338
 6123WAT     H125212   5.509   0.898   5.360
 6123WAT     H225213   5.583   0.857   5.252
 6123WAT    EPW25214   5.567   0.856   5.328
 6124WAT      O25215   4.445   0.599   4.651
 6124WAT     H125216   4.457   0.684   4.670
 6124WAT     H225217   4.512   0.559   4.691
 6124WAT    EPW25218   4.457   0.606   4.660
 6125WAT      O25219   4.776   0.922   5.098
 6125WAT     H125220   4.748   0.858   5.045
 6125WAT     H225221   4.755   0.994   5.054
 6125WAT    EPW25222   4.769   0.923   5.083
 6126WAT      O25223   5.306   0.400   5.540
 6126WAT     H125224   5.355   0.472   5.550
 6126WAT     H225225   5.346   0.357   5.475
 6126WAT    EPW25226   5.319   0.404   5.532
 6127WAT      O25227   4.736   0.684   5.658
 6127WAT     H125228   4.771   0.667   5.735
 6127WAT     H225229   4.692   0.612   5.638
 6127WAT    EPW25230   4.735   0.671   5.666
 6128WAT      O25231   5.549   0.463   4.547
 6128WAT     H125232   5.585   0.428   4.619
 6128WAT     H225233   5.548   0.397   4.490
 6128WAT    EPW25234   5.554   0.448   4.549
 6129WAT      O25235   5.154   0.770   4.931
 6129WAT     H125236   5.093   0.740   4.876
 6129WAT     H225237   5.208   0.815   4.881
 6129WAT    EPW25238   5.153   0.772   4.916
 6130WAT      O25239   5.155   0.455   4.871
 6130WAT     H125240   5.075   0.477   4.899
 6130WAT     H225241   5.181   0.395   4.930
 6130WAT    EPW25242   5.147   0.449   4.884
 6131WAT      O25243   4.544   0.936   4.316
 6131WAT     H125244   4.529   0.858   4.353
 6131WAT     H225245   4.613   0.921   4.265
 6131WAT    EPW25246   4.552   0.922   4.314
 6132WAT      O25247   4.773   0.888   4.156
 6132WAT     H125248   4.836   0.904   4.215
 6132WAT     H225249   4.777   0.957   4.103
 6132WAT    EPW25250   4.783   0.900   4.157
 6133WAT      O25251   5.481   0.255   5.356
 6133WAT     H125252   5.486   0.267   5.270
 6133WAT     H225253   5.556   0.287   5.386
 6133WAT    EPW25254   5.493   0.261   5.348
 6134WAT      O25255   5.100   0.789   5.784
 6134WAT     H125256   5.116   0.818   5.865
 6134WAT     H225257   5.126   0.856   5.733
 6134WAT    EPW25258   5.106   0.803   5.788
 6135WAT      O25259   5.054   0.235   5.316
 6135WAT     H125260   5.039   0.296   5.376
 6135WAT     H225261   5.107   0.179   5.357
 6135WAT    EPW25262   5.060   0.236   5.331
 6136WAT      O25263   5.415   0.508   4.969
 6136WAT     H125264   5.367   0.538   4.902
 6136WAT     H225265   5.379   0.430   4.987
 6136WAT    EPW25266   5.403   0.501   4.962
 6137WAT      O25267   4.815   0.280   4.825
 6137WAT     H125268   4.730   0.260   4.833
 6137WAT     H225269   4.847   0.263   4.904
 6137WAT    EPW25270   4.807   0.275   4.838
 6138WAT      O25271   4.490   0.953   3.914
 6138WAT     H125272   4.534   0.883   3.942
 6138WAT     H225273   4.511   1.015   3.971
 6138WAT    EPW25274   4.500   0.952   3.926
 6139WAT      O25275   4.200   0.249   5.057
 6139WAT     H125276   4.272   0.298   5.053
 6139WAT     H225277   4.173   0.246   4.974
 6139WAT    EPW25278   4.206   0.256   5.044
 6140WAT      O25279   5.784   0.925   4.163
 6140WAT     H125280   5.854   0.878   4.138
 6140WAT     H225281   5.730   0.865   4.196
 6140WAT    EPW25282   5.787   0.909   4.164
 6141WAT      O25283   4.139   0.354   5.484
 6141WAT     H125284   4.097   0.303   5.428
 6141WAT     H225285   4.104   0.433   5.470
 6141WAT    EPW25286   4.128   0.358   5.474
 6142WAT      O25287   5.634   0.209   4.824
 6142WAT     H125288   5.605   0.249   4.896
 6142WAT     H225289   5.720   0.203   4.837
 6142WAT    EPW25290   5.642   0.214   4.837
 6143WAT      O25291   5.747   0.773   4.877
 6143WAT     H125292   5.776   0.798   4.799
 6143WAT     H225293   5.816   0.782   4.929
 6143WAT    EPW25294   5.761   0.778   4.873
 6144WAT      O25295   5.407   0.633   4.075
 6144WAT     H125296   5.441   0.552   4.079
 6144WAT     H225297   5.332   0.626   4.118
 6144WAT    EPW25298   5.401   0.620   4.082
 6145WAT      O25299   5.700   0.412   5.417
 6145WAT     H125300   5.762   0.357   5.391
 6145WAT     H225301   5.693   0.469   5.350
 6145WAT    EPW25302   5.708   0.413   5.403
 6146WAT      O25303   5.145   0.420   4.016
 6146WAT     H125304   5.213   0.369   3.999
 6146WAT     H225305   5.103   0.425   3.939
 6146WAT    EPW25306   5.149   0.414   4.002
 6147WAT      O25307   4.613   0.535   5.146
 6147WAT     H125308   4.583   0.595   5.203
 6147WAT     H225309   4.618   0.580   5.071
 6147WAT    EPW25310   4.609   0.551   5.143
 6148WAT      O25311   4.411   0.430   5.486
 6148WAT     H125312   4.330   0.401   5.503
 6148WAT     H225313   4.402   0.517   5.487
 6148WAT    EPW25314   4.398   0.439   5.488
 6149WAT      O25315   4.865   0.178   5.095
 6149WAT     H125316   4.912   0.215   5.158
 6149WAT     H225317   4.782   0.191   5.121
 6149WAT    EPW25318   4.859   0.185   5.108
 6150WAT      O25319   4.791   0.917   4.618
 6150WAT     H125320   4.846   0.985   4.623
 6150WAT     H225321   4.756   0.925   4.539
 6150WAT    EPW25322   4.794   0.928   4.607
 6151WAT      O25323   4.609   0.740   4.957
 6151WAT     H125324   4.547   0.798   4.939
 6151WAT     H225325   4.634   0.711   4.878
 6151WAT    EPW25326   4.604   0.744   4.943
 6152WAT      O25327   5.040   0.403   5.656
 6152WAT     H125328   5.116   0.432   5.623
 6152WAT     H225329   4.985   0.408   5.588
 6152WAT    EPW25330   5.043   0.408   5.641
 6153WAT      O25331   5.431   0.658   5.506
 6153WAT     H125332   5.466   0.685   5.582
 6153WAT     H225333   5.460   0.716   5.448
 6153WAT    EPW25334   5.441   0.671   5.509
 6154WAT      O25335   4.769   0.217   3.948
 6154WAT     H125336   4.688   0.200   3.920
 6154WAT     H225337   4.765   0.303   3.968
 6154WAT    EPW25338   4.756   0.227   3.947
 6155WAT      O25339   4.875   0.905   5.545
 6155WAT     H125340   4.922   0.845   5.503
 6155WAT     H225341   4.839   0.860   5.611
 6155WAT    EPW25342   4.876   0.889   5.549
 6156WAT      O25343   5.533   0.235   4.363
 6156WAT     H125344   5.581   0.163   4.358
 6156WAT     H225345   5.451   0.207   4.355
 6156WAT    EPW25346   5.528   0.220   4.361
 6157WAT      O25347   4.880   0.427   5.447
 6157WAT     H125348   4.801   0.420   5.482
 6157WAT     H225349   4.888   0.511   5.427
 6157WAT    EPW25350   4.870   0.438   5.449
 6158WAT      O25351   4.463   1.047   4.979
 6158WAT     H125352   4.465   1.053   5.066
 6158WAT     H225353   4.421   0.973   4.964
 6158WAT    EPW25354   4.457   1.037   4.989
 6159WAT      O25355   5.155   0.352   4.599
 6159WAT     H125356   5.163   0.386   4.678
 6159WAT     H225357   5.172   0.267   4.611
 6159WAT    EPW25358   5.159   0.345   4.612
 6160WAT      O25359   4.907   0.280   4.555
 6160WAT     H125360   4.877   0.248   4.631
 6160WAT     H225361   4.977   0.327   4.579
 6160WAT    EPW25362   4.913   0.282   4.570
 6161WAT      O25363   4.929   0.691   5.358
 6161WAT     H125364   4.998   0.680   5.410
 6161WAT     H225365   4.943   0.770   5.323
 6161WAT    EPW25366   4.941   0.701   5.360
 6162WAT      O25367   4.140   0.997   5.523
 6162WAT     H125368   4.074   0.940   5.533
 6162WAT     H225369   4.102   1.074   5.538
 6162WAT    EPW25370   4.125   1.000   5.527
 6163WAT      O25371   5.300   0.975   4.808
 6163WAT     H125372   5.255   1.039   4.846
 6163WAT     H225373   5.371   0.967   4.859
 6163WAT    EPW25374   5.304   0.983   4.821
 6164WAT      O25375   4.970   0.484   5.101
 6164WAT     H125376   4.901   0.524   5.135
 6164WAT     H225377   5.038   0.527   5.135
 6164WAT    EPW25378   4.970   0.496   5.111
 6165WAT      O25379   5.508   0.743   5.759
 6165WAT     H125380   5.585   0.704   5.767
 6165WAT     H225381   5.461   0.710   5.825
 6165WAT    EPW25382   5.512   0.733   5.770
 6166WAT      O25383   5.002   0.643   4.418
 6166WAT     H125384   4.982   0.727   4.402
 6166WAT     H225385   4.925   0.605   4.430
 6166WAT    EPW25386   4.988   0.650   4.417
 6167WAT      O25387   4.539   0.669   4.059
 6167WAT     H125388   4.583   0.677   4.134
 6167WAT     H225389   4.458   0.648   4.085
 6167WAT    EPW25390   4.533   0.667   4.074
 6168WAT      O25391   5.429   0.847   4.416
 6168WAT     H125392   5.412   0.781   4.471
 6168WAT     H225393   5.501   0.819   4.374
 6168WAT    EPW25394   5.437   0.833   4.418
 6169WAT      O25395   4.271   0.576   4.119
 6169WAT     H125396   4.247   0.546   4.197
 6169WAT     H225397   4.268   0.506   4.067
 6169WAT    EPW25398   4.267   0.562   4.123
 6170WAT      O25399   4.553   0.401   3.993
 6170WAT     H125400   4.472   0.374   4.007
 6170WAT     H225401   4.551   0.486   4.012
 6170WAT    EPW25402   4.541   0.410   3.998
 6171WAT      O25403   5.197   0.592   5.185
 6171WAT     H125404   5.217   0.622   5.265
 6171WAT     H225405   5.191   0.664   5.137
 6171WAT    EPW25406   5.199   0.607   5.190
 6172WAT      O25407   5.150   1.013   5.610
 6172WAT     H125408   5.075   1.011   5.566
 6172WAT     H225409   5.167   1.098   5.618
 6172WAT    EPW25410   5.142   1.026   5.605
 6173WAT      O25411   5.678   0.456   5.131
 6173WAT     H125412   5.675   0.370   5.118
 6173WAT     H225413   5.609   0.486   5.088
 6173WAT    EPW25414   5.667   0.447   5.123
 6174WAT      O25415   4.517   0.976   5.552
 6174WAT     H125416   4.522   0.988   5.638
 6174WAT     H225417   4.583   0.920   5.536
 6174WAT    EPW25418   4.528   0.969   5.562
 6175WAT      O25419   5.489   0.782   5.011
 6175WAT     H125420   5.541   0.773   4.942
 6175WAT     H225421   5.449   0.704   5.016
 6175WAT    EPW25422   5.491   0.769   5.001
 6176WAT      O25423   4.277   0.814   5.688
 6176WAT     H125424   4.336   0.857   5.735
 6176WAT     H225425   4.240   0.876   5.639
 6176WAT    EPW25426   4.280   0.829   5.687
 6177WAT      O25427   4.069   0.613   5.381
 6177WAT     H125428   4.012   0.654   5.432
 6177WAT     H225429   4.143   0.659   5.390
 6177WAT    EPW25430   4.072   0.626   5.390
 6178WAT      O25431   4.248   0.939   4.258
 6178WAT     H125432   4.234   0.955   4.174
 6178WAT     H225433   4.335   0.947   4.266
 6178WAT    EPW25434   4.259   0.943   4.247
 6179WAT      O25435   4.665   0.179   4.231
 6179WAT     H125436   4.675   0.193   4.145
 6179WAT     H225437   4.747   0.173   4.261
 6179WAT    EPW25438   4.678   0.180   4.223
 6180WAT      O25439   5.581   0.986   3.979
 6180WAT     H125440   5.644   0.972   4.037
 6180WAT     H225441   5.547   0.906   3.967
 6180WAT    EPW25442   5.585   0.972   3.986
 6181WAT      O25443   5.600   0.227   5.652
 6181WAT     H125444   5.664   0.210   5.710
 6181WAT     H225445   5.642   0.268   5.587
 6181WAT    EPW25446   5.616   0.231   5.651
 6182WAT      O25447   5.188   0.612   4.211
 6182WAT     H125448   5.163   0.599   4.294
 6182WAT     H225449   5.157   0.543   4.169
 6182WAT    EPW25450   5.180   0.600   4.217
 6183WAT      O25451   5.341   0.238   5.788
 6183WAT     H125452   5.428   0.235   5.784
 6183WAT     H225453   5.319   0.280   5.715
 6183WAT    EPW25454   5.351   0.244   5.776
 6184WAT      O25455   4.317   0.821   4.906
 6184WAT     H125456   4.309   0.740   4.874
 6184WAT     H225457   4.272   0.870   4.849
 6184WAT    EPW25458   4.309   0.816   4.893
 6185WAT      O25459   4.877   0.433   4.154
 6185WAT     H125460   4.949   0.398   4.119
 6185WAT     H225461   4.873   0.513   4.119
 6185WAT    EPW25462   4.887   0.440   4.144
 6186WAT      O25463   4.074   1.045   5.264
 6186WAT     H125464   4.123   1.040   5.336
 6186WAT     H225465   4.093   0.972   5.220
 6186WAT    EPW25466   4.084   1.034   5.268
 6187WAT      O25467   3.986   0.403   2.591
 6187WAT     H125468   3.941   0.414   2.665
 6187WAT     H225469   3.957   0.325   2.562
 6187WAT    EPW25470   3.975   0.393   2.598
 6188WAT      O25471   5.613   0.733   2.342
 6188WAT     H125472   5.683   0.681   2.342
 6188WAT     H225473   5.554   0.688   2.295
 6188WAT    EPW25474   5.615   0.718   2.335
 6189WAT      O25475   4.274   0.308   2.109
 6189WAT     H125476   4.235   0.271   2.040
 6189WAT     H225477   4.266   0.248   2.172
 6189WAT    EPW25478   4.267   0.294   2.108
 6190WAT      O25479   4.236   0.472   2.499
 6190WAT     H125480   4.297   0.455   2.559
 6190WAT     H225481   4.161   0.458   2.541
 6190WAT    EPW25482   4.234   0.468   2.514
 6191WAT      O25483   4.126   0.781   2.106
 6191WAT     H125484   4.172   0.790   2.033
 6191WAT     H225485   4.171   0.723   2.153
 6191WAT    EPW25486   4.139   0.774   2.102
 6192WAT      O25487   3.980   0.676   3.216
 6192WAT     H125488   3.992   0.648   3.298
 6192WAT     H225489   3.919   0.622   3.185
 6192WAT    EPW25490   3.972   0.664   3.224
 6193WAT      O25491   4.637   0.429   3.723
 6193WAT     H125492   4.613   0.428   3.807
 6193WAT     H225493   4.562   0.414   3.681
 6193WAT    EPW25494   4.622   0.426   3.729
 6194WAT      O25495   4.635   0.748   3.449
 6194WAT     H125496   4.649   0.824   3.409
 6194WAT     H225497   4.714   0.711   3.452
 6194WAT    EPW25498   4.649   0.754   3.444
 6195WAT      O25499   4.745   0.536   2.900
 6195WAT     H125500   4.779   0.456   2.903
 6195WAT     H225501   4.811   0.587   2.874
 6195WAT    EPW25502   4.760   0.532   2.896
 6196WAT      O25503   4.750   0.481   2.521
 6196WAT     H125504   4.783   0.417   2.569
 6196WAT     H225505   4.774   0.460   2.440
 6196WAT    EPW25506   4.759   0.469   2.516
 6197WAT      O25507   3.961   0.875   2.728
 6197WAT     H125508   3.902   0.931   2.696
 6197WAT     H225509   4.003   0.848   2.657
 6197WAT    EPW25510   3.958   0.879   2.713
 6198WAT      O25511   4.545   0.660   2.476
 6198WAT     H125512   4.487   0.632   2.535
 6198WAT     H225513   4.607   0.599   2.478
 6198WAT    EPW25514   4.545   0.647   2.485
 6199WAT      O25515   5.159   0.888   2.228
 6199WAT     H125516   5.232   0.936   2.238
 6199WAT     H225517   5.182   0.809   2.256
 6199WAT    EPW25518   5.173   0.884   2.234
 6200WAT      O25519   4.976   0.928   2.427
 6200WAT     H125520   4.997   0.980   2.493
 6200WAT     H225521   5.053   0.910   2.389
 6200WAT    EPW25522   4.990   0.933   2.431
 6201WAT      O25523   4.115   0.742   2.521
 6201WAT     H125524   4.181   0.685   2.522
 6201WAT     H225525   4.154   0.817   2.499
 6201WAT    EPW25526   4.131   0.745   2.518
 6202WAT      O25527   5.220   0.929   3.257
 6202WAT     H125528   5.294   0.974   3.256
 6202WAT     H225529   5.208   0.907   3.174
 6202WAT    EPW25530   5.229   0.932   3.245
 6203WAT      O25531   4.197   0.591   2.871
 6203WAT     H125532   4.239   0.555   2.803
 6203WAT     H225533   4.229   0.549   2.940
 6203WAT    EPW25534   4.208   0.579   2.871
 6204WAT      O25535   4.520   0.876   2.800
 6204WAT     H125536   4.605   0.887   2.781
 6204WAT     H225537   4.490   0.958   2.807
 6204WAT    EPW25538   4.528   0.890   2.799
 6205WAT      O25539   5.377   1.047   2.268
 6205WAT     H125540   5.444   1.032   2.213
 6205WAT     H225541   5.413   1.039   2.347
 6205WAT    EPW25542   5.392   1.044   2.272
 6206WAT      O25543   4.420   0.998   3.374
 6206WAT     H125544   4.449   0.991   3.456
 6206WAT     H225545   4.357   0.938   3.370
 6206WAT    EPW25546   4.415   0.988   3.386
 6207WAT      O25547   5.145   0.647   3.628
 6207WAT     H125548   5.142   0.685   3.706
 6207WAT     H225549   5.231   0.643   3.611
 6207WAT    EPW25550   5.157   0.652   3.637
 6208WAT      O25551   4.859   0.667   2.103
 6208WAT     H125552   4.841   0.721   2.169
 6208WAT     H225553   4.936   0.696   2.073
 6208WAT    EPW25554   4.868   0.679   2.108
 6209WAT      O25555   4.219   0.814   3.287
 6209WAT     H125556   4.149   0.763   3.299
 6209WAT     H225557   4.245   0.794   3.206
 6209WAT    EPW25558   4.213   0.804   3.277
 6210WAT      O25559   4.990   0.964   3.378
 6210WAT     H125560   5.067   0.956   3.337
 6210WAT     H225561   4.932   0.951   3.314
 6210WAT    EPW25562   4.993   0.961   3.362
 6211WAT      O25563   5.618   1.024   2.668
 6211WAT     H125564   5.573   1.096   2.688
 6211WAT     H225565   5.557   0.967   2.644
 6211WAT    EPW25566   5.602   1.026   2.667
 6212WAT      O25567   5.318   0.608   2.622
 6212WAT     H125568   5.388   0.560   2.641
 6212WAT     H225569   5.252   0.551   2.627
 6212WAT    EPW25570   5.318   0.593   2.626
 6213WAT      O25571   4.355   0.699   3.543
 6213WAT     H125572   4.439   0.706   3.521
 6213WAT     H225573   4.352   0.739   3.621
 6213WAT    EPW25574   4.367   0.706   3.552
 6214WAT      O25575   4.552   0.250   3.018
 6214WAT     H125576   4.569   0.229   3.101
 6214WAT     H225577   4.486   0.197   2.997
 6214WAT    EPW25578   4.545   0.239   3.027
 6215WAT      O25579   4.627   0.244   3.277
 6215WAT     H125580   4.632   0.329   3.297
 6215WAT     H225581   4.598   0.207   3.351
 6215WAT    EPW25582   4.623   0.251   3.291
 6216WAT      O25583   5.244   0.314   3.190
 6216WAT     H125584   5.193   0.273   3.247
 6216WAT     H225585   5.232   0.398   3.208
 6216WAT    EPW25586   5.235   0.320   3.201
 6217WAT      O25587   3.909   0.681   3.898
 6217WAT     H125588   3.984   0.716   3.924
 6217WAT     H225589   3.926   0.596   3.893
 6217WAT    EPW25590   3.923   0.674   3.901
 6218WAT      O25591   5.570   0.358   2.203
 6218WAT     H125592   5.582   0.329   2.284
 6218WAT     H225593   5.650   0.360   2.170
 6218WAT    EPW25594   5.583   0.354   2.210
 6219WAT      O25595   4.283   0.331   2.736
 6219WAT     H125596   4.368   0.323   2.719
 6219WAT     H225597   4.248   0.263   2.695
 6219WAT    EPW25598   4.291   0.320   2.727
 6220WAT      O25599   4.160   1.003   2.860
 6220WAT     H125600   4.093   0.954   2.835
 6220WAT     H225601   4.200   1.022   2.785
 6220WAT    EPW25602   4.156   0.999   2.845
 6221WAT      O25603   5.793   0.809   3.628
 6221WAT     H125604   5.725   0.840   3.584
 6221WAT     H225605   5.756   0.763   3.693
 6221WAT    EPW25606   5.777   0.806   3.631
 6222WAT      O25607   4.520   0.332   2.560
 6222WAT     H125608   4.591   0.381   2.569
 6222WAT     H225609   4.542   0.275   2.497
 6222WAT    EPW25610   4.534   0.330   2.552
 6223WAT      O25611   3.936   0.496   2.892
 6223WAT     H125612   3.869   0.545   2.919
 6223WAT     H225613   4.004   0.550   2.894
 6223WAT    EPW25614   3.936   0.511   2.896
 6224WAT      O25615   4.972   0.702   2.792
 6224WAT     H125616   4.920   0.765   2.763
 6224WAT     H225617   5.003   0.665   2.719
 6224WAT    EPW25618   4.969   0.706   2.777
 6225WAT      O25619   3.959   0.581   2.359
 6225WAT     H125620   4.015   0.638   2.396
 6225WAT     H225621   3.936   0.529   2.426
 6225WAT    EPW25622   3.964   0.581   2.375
 6226WAT      O25623   4.380   0.481   3.068
 6226WAT     H125624   4.427   0.510   3.136
 6226WAT     H225625   4.437   0.433   3.023
 6226WAT    EPW25626   4.395   0.478   3.072
 6227WAT      O25627   3.942   0.426   2.122
 6227WAT     H125628   4.018   0.382   2.128
 6227WAT     H225629   3.944   0.479   2.191
 6227WAT    EPW25630   3.954   0.427   2.133
 6228WAT      O25631   4.036   0.248   2.923
 6228WAT     H125632   4.080   0.235   2.848
 6228WAT     H225633   4.016   0.332   2.920
 6228WAT    EPW25634   4.040   0.258   2.911
 6229WAT      O25635   5.576   0.847   3.437
 6229WAT     H125636   5.509   0.898   3.459
 6229WAT     H225637   5.583   0.857   3.351
 6229WAT    EPW25638   5.567   0.856   3.428
 6230WAT      O25639   4.445   0.599   2.751
 6230WAT     H125640   4.457   0.684   2.770
 6230WAT     H225641   4.512   0.559   2.790
 6230WAT    EPW25642   4.457   0.606   2.759
 6231WAT      O25643   4.776   0.922   3.197
 6231WAT     H125644   4.748   0.858   3.145
 6231WAT     H225645   4.755   0.994   3.153
 6231WAT    EPW25646   4.769   0.923   3.183
 6232WAT      O25647   5.306   0.400   3.639
 6232WAT     H125648   5.355   0.472   3.649
 6232WAT     H225649   5.346   0.357   3.574
 6232WAT    EPW25650   5.319   0.404   3.631
 6233WAT      O25651   4.736   0.684   3.757
 6233WAT     H125652   4.771   0.667   3.835
 6233WAT     H225653   4.692   0.612   3.737
 6233WAT    EPW25654   4.735   0.671   3.766
 6234WAT      O25655   5.549   0.463   2.646
 6234WAT     H125656   5.585   0.428   2.718
 6234WAT     H225657   5.548   0.397   2.589
 6234WAT    EPW25658   5.554   0.448   2.649
 6235WAT      O25659   5.154   0.770   3.031
 6235WAT     H125660   5.093   0.740   2.975
 6235WAT     H225661   5.208   0.815   2.980
 6235WAT    EPW25662   5.153   0.772   3.015
 6236WAT      O25663   5.155   0.455   2.971
 6236WAT     H125664   5.075   0.477   2.998
 6236WAT     H225665   5.181   0.395   3.029
 6236WAT    EPW25666   5.147   0.449   2.984
 6237WAT      O25667   4.544   0.936   2.416
 6237WAT     H125668   4.529   0.858   2.453
 6237WAT     H225669   4.613   0.921   2.364
 6237WAT    EPW25670   4.552   0.922   2.414
 6238WAT      O25671   4.773   0.888   2.256
 6238WAT     H125672   4.836   0.904   2.315
 6238WAT     H225673   4.777   0.957   2.203
 6238WAT    EPW25674   4.783   0.900   2.257
 6239WAT      O25675   5.481   0.255   3.455
 6239WAT     H125676   5.486   0.267   3.369
 6239WAT     H225677   5.556   0.287   3.486
 6239WAT    EPW25678   5.493   0.261   3.447
 6240WAT      O25679   5.100   0.789   3.883
 6240WAT     H125680   5.116   0.818   3.964
 6240WAT     H225681   5.126   0.856   3.833
 6240WAT    EPW25682   5.106   0.803   3.888
 6241WAT      O25683   5.054   0.235   3.415
 6241WAT     H125684   5.039   0.296   3.476
 6241WAT     H225685   5.107   0.179   3.456
 6241WAT    EPW25686   5.060   0.236   3.430
 6242WAT      O25687   5.415   0.508   3.068
 6242WAT     H125688   5.367   0.538   3.002
 6242WAT     H225689   5.379   0.430   3.086
 6242WAT    EPW25690   5.403   0.501   3.061
 6243WAT      O25691   4.815   0.280   2.924
 6243WAT     H125692   4.730   0.260   2.932
 6243WAT     H225693   4.847   0.263   3.004
 6243WAT    EPW25694   4.807   0.275   2.937
 6244WAT      O25695   4.490   0.953   2.013
 6244WAT     H125696   4.534   0.883   2.042
 6244WAT     H225697   4.511   1.015   2.070
 6244WAT    EPW25698   4.500   0.952   2.026
 6245WAT      O25699   4.200   0.249   3.156
 6245WAT     H125700   4.272   0.298   3.152
 6245WAT     H225701   4.173   0.246   3.073
 6245WAT    EPW25702   4.206   0.256   3.143
 6246WAT      O25703   5.784   0.925   2.262
 6246WAT     H125704   5.854   0.878   2.237
 6246WAT     H225705   5.730   0.865   2.296
 6246WAT    EPW25706   5.787   0.909   2.263
 6247WAT      O25707   4.139   0.354   3.584
 6247WAT     H125708   4.097   0.303   3.528
 6247WAT     H225709   4.104   0.433   3.569
 6247WAT    EPW25710   4.128   0.358   3.573
 6248WAT      O25711   5.634   0.209   2.924
 6248WAT     H125712   5.605   0.249   2.996
 6248WAT     H225713   5.720   0.203   2.936
 6248WAT    EPW25714   5.642   0.214   2.936
 6249WAT      O25715   5.747   0.773   2.977
 6249WAT     H125716   5.776   0.798   2.899
 6249WAT     H225717   5.816   0.782   3.029
 6249WAT    EPW25718   5.761   0.778   2.973
 6250WAT      O25719   5.407   0.633   2.175
 6250WAT     H125720   5.441   0.552   2.178
 6250WAT     H225721   5.332   0.626   2.218
 6250WAT    EPW25722   5.401   0.620   2.182
 6251WAT      O25723   5.700   0.412   3.516
 6251WAT     H125724   5.762   0.357   3.490
 6251WAT     H225725   5.693   0.469   3.450
 6251WAT    EPW25726   5.708   0.413   3.502
 6252WAT      O25727   5.145   0.420   2.115
 6252WAT     H125728   5.213   0.369   2.098
 6252WAT     H225729   5.103   0.425   2.039
 6252WAT    EPW25730   5.149   0.414   2.101
 6253WAT      O25731   4.613   0.535   3.246
 6253WAT     H125732   4.583   0.595   3.302
 6253WAT     H225733   4.618   0.580   3.171
 6253WAT    EPW25734   4.609   0.551   3.243
 6254WAT      O25735   4.411   0.430   3.585
 6254WAT     H125736   4.330   0.401   3.602
 6254WAT     H225737   4.402   0.517   3.586
 6254WAT    EPW25738   4.398   0.439   3.588
 6255WAT      O25739   4.865   0.178   3.195
 6255WAT     H125740   4.912   0.215   3.257
 6255WAT     H225741   4.782   0.191   3.221
 6255WAT    EPW25742   4.859   0.185   3.208
 6256WAT      O25743   4.791   0.917   2.717
 6256WAT     H125744   4.846   0.985   2.723
 6256WAT     H225745   4.756   0.925   2.638
 6256WAT    EPW25746   4.794   0.928   2.706
 6257WAT      O25747   4.609   0.740   3.056
 6257WAT     H125748   4.547   0.798   3.038
 6257WAT     H225749   4.634   0.711   2.978
 6257WAT    EPW25750   4.604   0.744   3.042
 6258WAT      O25751   5.040   0.403   3.755
 6258WAT     H125752   5.116   0.432   3.723
 6258WAT     H225753   4.985   0.408   3.687
 6258WAT    EPW25754   5.043   0.408   3.740
 6259WAT      O25755   5.431   0.658   3.606
 6259WAT     H125756   5.466   0.685   3.681
 6259WAT     H225757   5.460   0.716   3.548
 6259WAT    EPW25758   5.441   0.671   3.608
 6260WAT      O25759   4.769   0.217   2.048
 6260WAT     H125760   4.688   0.200   2.019
 6260WAT     H225761   4.765   0.303   2.067
 6260WAT    EPW25762   4.756   0.227   2.047
 6261WAT      O25763   4.875   0.905   3.644
 6261WAT     H125764   4.922   0.845   3.603
 6261WAT     H225765   4.839   0.860   3.711
 6261WAT    EPW25766   4.876   0.889   3.648
 6262WAT      O25767   5.533   0.235   2.462
 6262WAT     H125768   5.581   0.163   2.458
 6262WAT     H225769   5.451   0.207   2.455
 6262WAT    EPW25770   5.528   0.220   2.461
 6263WAT      O25771   4.880   0.427   3.546
 6263WAT     H125772   4.801   0.420   3.581
 6263WAT     H225773   4.888   0.511   3.527
 6263WAT    EPW25774   4.870   0.438   3.549
 6264WAT      O25775   4.463   1.047   3.078
 6264WAT     H125776   4.465   1.053   3.165
 6264WAT     H225777   4.421   0.973   3.063
 6264WAT    EPW25778   4.457   1.037   3.089
 6265WAT      O25779   5.155   0.352   2.698
 6265WAT     H125780   5.163   0.386   2.778
 6265WAT     H225781   5.172   0.267   2.710
 6265WAT    EPW25782   5.159   0.345   2.712
 6266WAT      O25783   4.907   0.280   2.654
 6266WAT     H125784   4.877   0.248   2.730
 6266WAT     H225785   4.977   0.327   2.678
 6266WAT    EPW25786   4.913   0.282   2.669
 6267WAT      O25787   4.929   0.691   3.457
 6267WAT     H125788   4.998   0.680   3.510
 6267WAT     H225789   4.943   0.770   3.423
 6267WAT    EPW25790   4.941   0.701   3.460
 6268WAT      O25791   4.140   0.997   3.622
 6268WAT     H125792   4.074   0.940   3.632
 6268WAT     H225793   4.102   1.074   3.637
 6268WAT    EPW25794   4.125   1.000   3.626
 6269WAT      O25795   5.300   0.975   2.907
 6269WAT     H125796   5.255   1.039   2.945
 6269WAT     H225797   5.371   0.967   2.958
 6269WAT    EPW25798   5.304   0.983   2.921
 6270WAT      O25799   4.970   0.484   3.200
 6270WAT     H125800   4.901   0.524   3.235
 6270WAT     H225801   5.038   0.527   3.234
 6270WAT    EPW25802   4.970   0.496   3.211
 6271WAT      O25803   5.508   0.743   3.858
 6271WAT     H125804   5.585   0.704   3.867
 6271WAT     H225805   5.461   0.710   3.924
 6271WAT    EPW25806   5.512   0.733   3.869
 6272WAT      O25807   5.002   0.643   2.517
 6272WAT     H125808   4.982   0.727   2.501
 6272WAT     H225809   4.925   0.605   2.530
 6272WAT    EPW25810   4.988   0.650   2.517
 6273WAT      O25811   4.539   0.669   2.158
 6273WAT     H125812   4.583   0.677   2.233
 6273WAT     H225813   4.458   0.648   2.184
 6273WAT    EPW25814   4.533   0.667   2.173
 6274WAT      O25815   5.429   0.847   2.516
 6274WAT     H125816   5.412   0.781   2.571
 6274WAT     H225817   5.501   0.819   2.473
 6274WAT    EPW25818   5.437   0.833   2.518
 6275WAT      O25819   4.271   0.576   2.218
 6275WAT     H125820   4.247   0.546   2.296
 6275WAT     H225821   4.268   0.506   2.167
 6275WAT    EPW25822   4.267   0.562   2.222
 6276WAT      O25823   4.553   0.401   2.093
 6276WAT     H125824   4.472   0.374   2.107
 6276WAT     H225825   4.551   0.486   2.111
 6276WAT    EPW25826   4.541   0.410   2.097
 6277WAT      O25827   5.197   0.592   3.285
 6277WAT     H125828   5.217   0.622   3.364
 6277WAT     H225829   5.191   0.664   3.236
 6277WAT    EPW25830   5.199   0.607   3.289
 6278WAT      O25831   5.150   1.013   3.709
 6278WAT     H125832   5.075   1.011   3.665
 6278WAT     H225833   5.167   1.098   3.718
 6278WAT    EPW25834   5.142   1.026   3.704
 6279WAT      O25835   5.678   0.456   3.231
 6279WAT     H125836   5.675   0.370   3.217
 6279WAT     H225837   5.609   0.486   3.187
 6279WAT    EPW25838   5.667   0.447   3.222
 6280WAT      O25839   4.517   0.976   3.651
 6280WAT     H125840   4.522   0.988   3.737
 6280WAT     H225841   4.583   0.920   3.636
 6280WAT    EPW25842   4.528   0.969   3.662
 6281WAT      O25843   5.489   0.782   3.110
 6281WAT     H125844   5.541   0.773   3.041
 6281WAT     H225845   5.449   0.704   3.116
 6281WAT    EPW25846   5.491   0.769   3.101
 6282WAT      O25847   4.277   0.814   3.787
 6282WAT     H125848   4.336   0.857   3.834
 6282WAT     H225849   4.240   0.876   3.738
 6282WAT    EPW25850   4.280   0.829   3.787
 6283WAT      O25851   4.069   0.613   3.480
 6283WAT     H125852   4.012   0.654   3.531
 6283WAT     H225853   4.143   0.659   3.490
 6283WAT    EPW25854   4.072   0.626   3.489
 6284WAT      O25855   4.248   0.939   2.358
 6284WAT     H125856   4.234   0.955   2.273
 6284WAT     H225857   4.335   0.947   2.365
 6284WAT    EPW25858   4.259   0.943   2.346
 6285WAT      O25859   4.665   0.179   2.330
 6285WAT     H125860   4.675   0.193   2.245
 6285WAT     H225861   4.747   0.173   2.360
 6285WAT    EPW25862   4.678   0.180   2.322
 6286WAT      O25863   5.581   0.986   2.078
 6286WAT     H125864   5.644   0.972   2.136
 6286WAT     H225865   5.547   0.906   2.067
 6286WAT    EPW25866   5.585   0.972   2.085
 6287WAT      O25867   5.600   0.227   3.752
 6287WAT     H125868   5.664   0.210   3.809
 6287WAT     H225869   5.642   0.268   3.686
 6287WAT    EPW25870   5.616   0.231   3.751
 6288WAT      O25871   5.188   0.612   2.311
 6288WAT     H125872   5.163   0.599   2.393
 6288WAT     H225873   5.157   0.543   2.268
 6288WAT    EPW25874   5.180   0.600   2.317
 6289WAT      O25875   5.341   0.238   3.887
 6289WAT     H125876   5.428   0.235   3.884
 6289WAT     H225877   5.319   0.280   3.814
 6289WAT    EPW25878   5.351   0.244   3.876
 6290WAT      O25879   4.317   0.821   3.005
 6290WAT     H125880   4.309   0.740   2.974
 6290WAT     H225881   4.272   0.870   2.948
 6290WAT    EPW25882   4.309   0.816   2.992
 6291WAT      O25883   4.877   0.433   2.254
 6291WAT     H125884   4.949   0.398   2.218
 6291WAT     H225885   4.873   0.513   2.219
 6291WAT    EPW25886   4.887   0.440   2.243
 6292WAT      O25887   4.074   1.045   3.363
 6292WAT     H125888   4.123   1.040   3.435
 6292WAT     H225889   4.093   0.972   3.320
 6292WAT    EPW25890   4.084   1.034   3.368
 6293WAT      O25891   3.986   0.403   0.690
 6293WAT     H125892   3.941   0.414   0.764
 6293WAT     H225893   3.957   0.325   0.662
 6293WAT    EPW25894   3.975   0.393   0.697
 6294WAT      O25895   5.613   0.733   0.442
 6294WAT     H125896   5.683   0.681   0.441
 6294WAT     H225897   5.554   0.688   0.395
 6294WAT    EPW25898   5.615   0.718   0.435
 6295WAT      O25899   4.274   0.308   0.208
 6295WAT     H125900   4.235   0.271   0.139
 6295WAT     H225901   4.266   0.248   0.271
 6295WAT    EPW25902   4.267   0.294   0.207
 6296WAT      O25903   4.236   0.472   0.598
 6296WAT     H125904   4.297   0.455   0.658
 6296WAT     H225905   4.161   0.458   0.640
 6296WAT    EPW25906   4.234   0.468   0.613
 6297WAT      O25907   4.126   0.781   0.206
 6297WAT     H125908   4.172   0.790   0.133
 6297WAT     H225909   4.171   0.723   0.253
 6297WAT    EPW25910   4.139   0.774   0.202
 6298WAT      O25911   3.980   0.676   1.316
 6298WAT     H125912   3.992   0.648   1.397
 6298WAT     H225913   3.919   0.622   1.285
 6298WAT    EPW25914   3.972   0.664   1.323
 6299WAT      O25915   4.637   0.429   1.822
 6299WAT     H125916   4.613   0.428   1.906
 6299WAT     H225917   4.562   0.414   1.780
 6299WAT    EPW25918   4.622   0.426   1.828
 6300WAT      O25919   4.635   0.748   1.549
 6300WAT     H125920   4.649   0.824   1.508
 6300WAT     H225921   4.714   0.711   1.551
 6300WAT    EPW25922   4.649   0.754   1.543
 6301WAT      O25923   4.745   0.536   0.999
 6301WAT     H125924   4.779   0.456   1.002
 6301WAT     H225925   4.811   0.587   0.974
 6301WAT    EPW25926   4.760   0.532   0.996
 6302WAT      O25927   4.750   0.481   0.620
 6302WAT     H125928   4.783   0.417   0.669
 6302WAT     H225929   4.774   0.460   0.539
 6302WAT    EPW25930   4.759   0.469   0.615
 6303WAT      O25931   3.961   0.875   0.827
 6303WAT     H125932   3.902   0.931   0.796
 6303WAT     H225933   4.003   0.848   0.756
 6303WAT    EPW25934   3.958   0.879   0.812
 6304WAT      O25935   4.545   0.660   0.575
 6304WAT     H125936   4.487   0.632   0.634
 6304WAT     H225937   4.607   0.599   0.578
 6304WAT    EPW25938   4.545   0.647   0.584
 6305WAT      O25939   5.159   0.888   0.327
 6305WAT     H125940   5.232   0.936   0.338
 6305WAT     H225941   5.182   0.809   0.355
 6305WAT    EPW25942   5.173   0.884   0.333
 6306WAT      O25943   4.976   0.928   0.526
 6306WAT     H125944   4.997   0.980   0.593
 6306WAT     H225945   5.053   0.910   0.488
 6306WAT    EPW25946   4.990   0.933   0.531
 6307WAT      O25947   4.115   0.742   0.620
 6307WAT     H125948   4.181   0.685   0.622
 6307WAT     H225949   4.154   0.817   0.598
 6307WAT    EPW25950   4.131   0.745   0.617
 6308WAT      O25951   5.220   0.929   1.357
 6308WAT     H125952   5.294   0.974   1.356
 6308WAT     H225953   5.208   0.907   1.273
 6308WAT    EPW25954   5.229   0.932   1.344
 6309WAT      O25955   4.197   0.591   0.970
 6309WAT     H125956   4.239   0.555   0.903
 6309WAT     H225957   4.229   0.549   1.039
 6309WAT    EPW25958   4.208   0.579   0.971
 6310WAT      O25959   4.520   0.876   0.900
 6310WAT     H125960   4.605   0.887   0.880
 6310WAT     H225961   4.490   0.958   0.907
 6310WAT    EPW25962   4.528   0.890   0.898
 6311WAT      O25963   5.377   1.047   0.367
 6311WAT     H125964   5.444   1.032   0.313
 6311WAT     H225965   5.413   1.039   0.446
 6311WAT    EPW25966   5.392   1.044   0.371
 6312WAT      O25967   4.420   0.998   1.474
 6312WAT     H125968   4.449   0.991   1.556
 6312WAT     H225969   4.357   0.938   1.469
 6312WAT    EPW25970   4.415   0.988   1.485
 6313WAT      O25971   5.145   0.647   1.727
 6313WAT     H125972   5.142   0.685   1.806
 6313WAT     H225973   5.231   0.643   1.710
 6313WAT    EPW25974   5.157   0.652   1.736
 6314WAT      O25975   4.859   0.667   0.202
 6314WAT     H125976   4.841   0.721   0.268
 6314WAT     H225977   4.936   0.696   0.172
 6314WAT    EPW25978   4.868   0.679   0.208
 6315WAT      O25979   4.219   0.814   1.386
 6315WAT     H125980   4.149   0.763   1.399
 6315WAT     H225981   4.245   0.794   1.305
 6315WAT    EPW25982   4.213   0.804   1.376
 6316WAT      O25983   4.990   0.964   1.477
 6316WAT     H125984   5.067   0.956   1.436
 6316WAT     H225985   4.932   0.951   1.413
 6316WAT    EPW25986   4.993   0.961   1.462
 6317WAT      O25987   5.618   1.024   0.767
 6317WAT     H125988   5.573   1.096   0.787
 6317WAT     H225989   5.557   0.967   0.743
 6317WAT    EPW25990   5.602   1.026   0.767
 6318WAT      O25991   5.318   0.608   0.722
 6318WAT     H125992   5.388   0.560   0.740
 6318WAT     H225993   5.252   0.551   0.726
 6318WAT    EPW25994   5.318   0.593   0.725
 6319WAT      O25995   4.355   0.699   1.643
 6319WAT     H125996   4.439   0.706   1.621
 6319WAT     H225997   4.352   0.739   1.720
 6319WAT    EPW25998   4.367   0.706   1.651
 6320WAT      O25999   4.552   0.250   1.118
 6320WAT     H126000   4.569   0.229   1.201
 6320WAT     H226001   4.486   0.197   1.096
 6320WAT    EPW26002   4.545   0.239   1.127
 6321WAT      O26003   4.627   0.244   1.377
 6321WAT     H126004   4.632   0.329   1.397
 6321WAT     H226005   4.598   0.207   1.450
 6321WAT    EPW26006   4.623   0.251   1.390
 6322WAT      O26007   5.244   0.314   1.290
 6322WAT     H126008   5.193   0.273   1.347
 6322WAT     H226009   5.232   0.398   1.308
 6322WAT    EPW26010   5.235   0.320   1.301
 6323WAT      O26011   3.909   0.681   1.998
 6323WAT     H126012   3.984   0.716   2.024
 6323WAT     H226013   3.926   0.596   1.992
 6323WAT    EPW26014   3.923   0.674   2.001
 6324WAT      O26015   5.570   0.358   0.302
 6324WAT     H126016   5.582   0.329   0.384
 6324WAT     H226017   5.650   0.360   0.269
 6324WAT    EPW26018   5.583   0.354   0.310
 6325WAT      O26019   4.283   0.331   0.835
 6325WAT     H126020   4.368   0.323   0.818
 6325WAT     H226021   4.248   0.263   0.794
 6325WAT    EPW26022   4.291   0.320   0.827
 6326WAT      O26023   4.160   1.003   0.959
 6326WAT     H126024   4.093   0.954   0.935
 6326WAT     H226025   4.200   1.022   0.884
 6326WAT    EPW26026   4.156   0.999   0.944
 6327WAT      O26027   5.793   0.809   1.728
 6327WAT     H126028   5.725   0.840   1.683
 6327WAT     H226029   5.756   0.763   1.792
 6327WAT    EPW26030   5.777   0.806   1.731
 6328WAT      O26031   4.520   0.332   0.659
 6328WAT     H126032   4.591   0.381   0.668
 6328WAT     H226033   4.542   0.275   0.596
 6328WAT    EPW26034   4.534   0.330   0.651
 6329WAT      O26035   3.936   0.496   0.991
 6329WAT     H126036   3.869   0.545   1.019
 6329WAT     H226037   4.004   0.550   0.994
 6329WAT    EPW26038   3.936   0.511   0.995
 6330WAT      O26039   4.972   0.702   0.892
 6330WAT     H126040   4.920   0.765   0.862
 6330WAT     H226041   5.003   0.665   0.819
 6330WAT    EPW26042   4.969   0.706   0.877
 6331WAT      O26043   3.959   0.581   0.459
 6331WAT     H126044   4.015   0.638   0.495
 6331WAT     H226045   3.936   0.529   0.525
 6331WAT    EPW26046   3.964   0.581   0.474
 6332WAT      O26047   4.380   0.481   1.168
 6332WAT     H126048   4.427   0.510   1.235
 6332WAT     H226049   4.437   0.433   1.122
 6332WAT    EPW26050   4.395   0.478   1.171
 6333WAT      O26051   3.942   0.426   0.222
 6333WAT     H126052   4.018   0.382   0.227
 6333WAT     H226053   3.944   0.479   0.291
 6333WAT    EPW26054   3.954   0.427   0.233
 6334WAT      O26055   4.036   0.248   1.022
 6334WAT     H126056   4.080   0.235   0.947
 6334WAT     H226057   4.016   0.332   1.019
 6334WAT    EPW26058   4.040   0.258   1.011
 6335WAT      O26059   5.576   0.847   1.537
 6335WAT     H126060   5.509   0.898   1.559
 6335WAT     H226061   5.583   0.857   1.450
 6335WAT    EPW26062   5.567   0.856   1.527
 6336WAT      O26063   4.445   0.599   0.850
 6336WAT     H126064   4.457   0.684   0.869
 6336WAT     H226065   4.512   0.559   0.890
 6336WAT    EPW26066   4.457   0.606   0.859
 6337WAT      O26067   4.776   0.922   1.296
 6337WAT     H126068   4.748   0.858   1.244
 6337WAT     H226069   4.755   0.994   1.253
 6337WAT    EPW26070   4.769   0.923   1.282
 6338WAT      O26071   5.306   0.400   1.739
 6338WAT     H126072   5.355   0.472   1.749
 6338WAT     H226073   5.346   0.357   1.674
 6338WAT    EPW26074   5.319   0.404   1.731
 6339WAT      O26075   4.736   0.684   1.857
 6339WAT     H126076   4.771   0.667   1.934
 6339WAT     H226077   4.692   0.612   1.837
 6339WAT    EPW26078   4.735   0.671   1.865
 6340WAT      O26079   5.549   0.463   0.746
 6340WAT     H126080   5.585   0.428   0.817
 6340WAT     H226081   5.548   0.397   0.689
 6340WAT    EPW26082   5.554   0.448   0.748
 6341WAT      O26083   5.154   0.770   1.130
 6341WAT     H126084   5.093   0.740   1.075
 6341WAT     H226085   5.208   0.815   1.079
 6341WAT    EPW26086   5.153   0.772   1.114
 6342WAT      O26087   5.155   0.455   1.070
 6342WAT     H126088   5.075   0.477   1.098
 6342WAT     H226089   5.181   0.395   1.129
 6342WAT    EPW26090   5.147   0.449   1.083
 6343WAT      O26091   4.544   0.936   0.515
 6343WAT     H126092   4.529   0.858   0.552
 6343WAT     H226093   4.613   0.921   0.464
 6343WAT    EPW26094   4.552   0.922   0.513
 6344WAT      O26095   4.773   0.888   0.355
 6344WAT     H126096   4.836   0.904   0.414
 6344WAT     H226097   4.777   0.957   0.302
 6344WAT    EPW26098   4.783   0.900   0.356
 6345WAT      O26099   5.481   0.255   1.555
 6345WAT     H126100   5.486   0.267   1.469
 6345WAT     H226101   5.556   0.287   1.585
 6345WAT    EPW26102   5.493   0.261   1.547
 6346WAT      O26103   5.100   0.789   1.983
 6346WAT     H126104   5.116   0.818   2.063
 6346WAT     H226105   5.126   0.856   1.932
 6346WAT    EPW26106   5.106   0.803   1.987
 6347WAT      O26107   5.054   0.235   1.515
 6347WAT     H126108   5.039   0.296   1.575
 6347WAT     H226109   5.107   0.179   1.555
 6347WAT    EPW26110   5.060   0.236   1.530
 6348WAT      O26111   5.415   0.508   1.168
 6348WAT     H126112   5.367   0.538   1.101
 6348WAT     H226113   5.379   0.430   1.185
 6348WAT    EPW26114   5.403   0.501   1.160
 6349WAT      O26115   4.815   0.280   1.024
 6349WAT     H126116   4.730   0.260   1.032
 6349WAT     H226117   4.847   0.263   1.103
 6349WAT    EPW26118   4.807   0.275   1.037
 6350WAT      O26119   4.200   0.249   1.255
 6350WAT     H126120   4.272   0.298   1.252
 6350WAT     H226121   4.173   0.246   1.172
 6350WAT    EPW26122   4.206   0.256   1.243
 6351WAT      O26123   5.784   0.925   0.362
 6351WAT     H126124   5.854   0.878   0.337
 6351WAT     H226125   5.730   0.865   0.395
 6351WAT    EPW26126   5.787   0.909   0.363
 6352WAT      O26127   4.139   0.354   1.683
 6352WAT     H126128   4.097   0.303   1.627
 6352WAT     H226129   4.104   0.433   1.669
 6352WAT    EPW26130   4.128   0.358   1.673
 6353WAT      O26131   5.634   0.209   1.023
 6353WAT     H126132   5.605   0.249   1.095
 6353WAT     H226133   5.720   0.203   1.036
 6353WAT    EPW26134   5.642   0.214   1.036
 6354WAT      O26135   5.747   0.773   1.076
 6354WAT     H126136   5.776   0.798   0.998
 6354WAT     H226137   5.816   0.782   1.128
 6354WAT    EPW26138   5.761   0.778   1.072
 6355WAT      O26139   5.407   0.633   0.274
 6355WAT     H126140   5.441   0.552   0.278
 6355WAT     H226141   5.332   0.626   0.317
 6355WAT    EPW26142   5.401   0.620   0.281
 6356WAT      O26143   5.700   0.412   1.615
 6356WAT     H126144   5.762   0.357   1.590
 6356WAT     H226145   5.693   0.469   1.549
 6356WAT    EPW26146   5.708   0.413   1.602
 6357WAT      O26147   5.145   0.420   0.215
 6357WAT     H126148   5.213   0.369   0.198
 6357WAT     H226149   5.103   0.425   0.138
 6357WAT    EPW26150   5.149   0.414   0.201
 6358WAT      O26151   4.613   0.535   1.345
 6358WAT     H126152   4.583   0.595   1.402
 6358WAT     H226153   4.618   0.580   1.270
 6358WAT    EPW26154   4.609   0.551   1.342
 6359WAT      O26155   4.411   0.430   1.685
 6359WAT     H126156   4.330   0.401   1.701
 6359WAT     H226157   4.402   0.517   1.685
 6359WAT    EPW26158   4.398   0.439   1.687
 6360WAT      O26159   4.865   0.178   1.294
 6360WAT     H126160   4.912   0.215   1.357
 6360WAT     H226161   4.782   0.191   1.320
 6360WAT    EPW26162   4.859   0.185   1.307
 6361WAT      O26163   4.791   0.917   0.817
 6361WAT     H126164   4.846   0.985   0.822
 6361WAT     H226165   4.756   0.925   0.737
 6361WAT    EPW26166   4.794   0.928   0.806
 6362WAT      O26167   4.609   0.740   1.156
 6362WAT     H126168   4.547   0.798   1.138
 6362WAT     H226169   4.634   0.711   1.077
 6362WAT    EPW26170   4.604   0.744   1.141
 6363WAT      O26171   5.040   0.403   1.855
 6363WAT     H126172   5.116   0.432   1.822
 6363WAT     H226173   4.985   0.408   1.787
 6363WAT    EPW26174   5.043   0.408   1.840
 6364WAT      O26175   5.431   0.658   1.705
 6364WAT     H126176   5.466   0.685   1.780
 6364WAT     H226177   5.460   0.716   1.647
 6364WAT    EPW26178   5.441   0.671   1.708
 6365WAT      O26179   4.875   0.905   1.744
 6365WAT     H126180   4.922   0.845   1.702
 6365WAT     H226181   4.839   0.860   1.810
 6365WAT    EPW26182   4.876   0.889   1.747
 6366WAT      O26183   5.533   0.235   0.562
 6366WAT     H126184   5.581   0.163   0.557
 6366WAT     H226185   5.451   0.207   0.554
 6366WAT    EPW26186   5.528   0.220   0.560
 6367WAT      O26187   4.880   0.427   1.646
 6367WAT     H126188   4.801   0.420   1.681
 6367WAT     H226189   4.888   0.511   1.626
 6367WAT    EPW26190   4.870   0.438   1.648
 6368WAT      O26191   4.463   1.047   1.177
 6368WAT     H126192   4.465   1.053   1.264
 6368WAT     H226193   4.421   0.973   1.162
 6368WAT    EPW26194   4.457   1.037   1.188
 6369WAT      O26195   5.155   0.352   0.797
 6369WAT     H126196   5.163   0.386   0.877
 6369WAT     H226197   5.172   0.267   0.809
 6369WAT    EPW26198   5.159   0.345   0.811
 6370WAT      O26199   4.907   0.280   0.754
 6370WAT     H126200   4.877   0.248   0.830
 6370WAT     H226201   4.977   0.327   0.777
 6370WAT    EPW26202   4.913   0.282   0.769
 6371WAT      O26203   4.929   0.691   1.557
 6371WAT     H126204   4.998   0.680   1.609
 6371WAT     H226205   4.943   0.770   1.522
 6371WAT    EPW26206   4.941   0.701   1.559
 6372WAT      O26207   4.140   0.997   1.722
 6372WAT     H126208   4.074   0.940   1.731
 6372WAT     H226209   4.102   1.074   1.737
 6372WAT    EPW26210   4.125   1.000   1.725
 6373WAT      O26211   5.300   0.975   1.007
 6373WAT     H126212   5.255   1.039   1.045
 6373WAT     H226213   5.371   0.967   1.057
 6373WAT    EPW26214   5.304   0.983   1.020
 6374WAT      O26215   4.970   0.484   1.300
 6374WAT     H126216   4.901   0.524   1.334
 6374WAT     H226217   5.038   0.527   1.334
 6374WAT    EPW26218   4.970   0.496   1.310
 6375WAT      O26219   5.508   0.743   1.958
 6375WAT     H126220   5.585   0.704   1.966
 6375WAT     H226221   5.461   0.710   2.023
 6375WAT    EPW26222   5.512   0.733   1.969
 6376WAT      O26223   5.002   0.643   0.617
 6376WAT     H126224   4.982   0.727   0.601
 6376WAT     H226225   4.925   0.605   0.629
 6376WAT    EPW26226   4.988   0.650   0.616
 6377WAT      O26227   4.539   0.669   0.258
 6377WAT     H126228   4.583   0.677   0.332
 6377WAT     H226229   4.458   0.648   0.283
 6377WAT    EPW26230   4.533   0.667   0.273
 6378WAT      O26231   5.429   0.847   0.615
 6378WAT     H126232   5.412   0.781   0.670
 6378WAT     H226233   5.501   0.819   0.573
 6378WAT    EPW26234   5.437   0.833   0.617
 6379WAT      O26235   4.271   0.576   0.318
 6379WAT     H126236   4.247   0.546   0.396
 6379WAT     H226237   4.268   0.506   0.266
 6379WAT    EPW26238   4.267   0.562   0.322
 6380WAT      O26239   4.553   0.401   0.192
 6380WAT     H126240   4.472   0.374   0.206
 6380WAT     H226241   4.551   0.486   0.211
 6380WAT    EPW26242   4.541   0.410   0.197
 6381WAT      O26243   5.197   0.592   1.384
 6381WAT     H126244   5.217   0.622   1.463
 6381WAT     H226245   5.191   0.664   1.336
 6381WAT    EPW26246   5.199   0.607   1.389
 6382WAT      O26247   5.150   1.013   1.809
 6382WAT     H126248   5.075   1.011   1.765
 6382WAT     H226249   5.167   1.098   1.817
 6382WAT    EPW26250   5.142   1.026   1.803
 6383WAT      O26251   5.678   0.456   1.330
 6383WAT     H126252   5.675   0.370   1.316
 6383WAT     H226253   5.609   0.486   1.287
 6383WAT    EPW26254   5.667   0.447   1.322
 6384WAT      O26255   4.517   0.976   1.751
 6384WAT     H126256   4.522   0.988   1.837
 6384WAT     H226257   4.583   0.920   1.735
 6384WAT    EPW26258   4.528   0.969   1.761
 6385WAT      O26259   5.489   0.782   1.210
 6385WAT     H126260   5.541   0.773   1.141
 6385WAT     H226261   5.449   0.704   1.215
 6385WAT    EPW26262   5.491   0.769   1.200
 6386WAT      O26263   4.277   0.814   1.887
 6386WAT     H126264   4.336   0.857   1.934
 6386WAT     H226265   4.240   0.876   1.838
 6386WAT    EPW26266   4.280   0.829   1.886
 6387WAT      O26267   4.069   0.613   1.579
 6387WAT     H126268   4.012   0.654   1.630
 6387WAT     H226269   4.143   0.659   1.589
 6387WAT    EPW26270   4.072   0.626   1.588
 6388WAT      O26271   4.248   0.939   0.457
 6388WAT     H126272   4.234   0.955   0.372
 6388WAT     H226273   4.335   0.947   0.465
 6388WAT    EPW26274   4.259   0.943   0.446
 6389WAT      O26275   4.665   0.179   0.430
 6389WAT     H126276   4.675   0.193   0.344
 6389WAT     H226277   4.747   0.173   0.459
 6389WAT    EPW26278   4.678   0.180   0.421
 6390WAT      O26279   5.581   0.986   0.178
 6390WAT     H126280   5.644   0.972   0.236
 6390WAT     H226281   5.547   0.906   0.166
 6390WAT    EPW26282   5.585   0.972   0.185
 6391WAT      O26283   5.600   0.227   1.851
 6391WAT     H126284   5.664   0.210   1.908
 6391WAT     H226285   5.642   0.268   1.786
 6391WAT    EPW26286   5.616   0.231   1.850
 6392WAT      O26287   5.188   0.612   0.410
 6392WAT     H126288   5.163   0.599   0.493
 6392WAT     H226289   5.157   0.543   0.368
 6392WAT    EPW26290   5.180   0.600   0.416
 6393WAT      O26291   5.341   0.238   1.987
 6393WAT     H126292   5.428   0.235   1.983
 6393WAT     H226293   5.319   0.280   1.913
 6393WAT    EPW26294   5.351   0.244   1.975
 6394WAT      O26295   4.317   0.821   1.105
 6394WAT     H126296   4.309   0.740   1.073
 6394WAT     H226297   4.272   0.870   1.047
 6394WAT    EPW26298   4.309   0.816   1.092
 6395WAT      O26299   4.877   0.433   0.353
 6395WAT     H126300   4.949   0.398   0.317
 6395WAT     H226301   4.873   0.513   0.318
 6395WAT    EPW26302   4.887   0.440   0.343
 6396WAT      O26303   4.074   1.045   1.463
 6396WAT     H126304   4.123   1.040   1.535
 6396WAT     H226305   4.093   0.972   1.419
 6396WAT    EPW26306   4.084   1.034   1.467
 6397WAT      O26307   3.131   6.688   6.379
 6397WAT     H126308   3.107   6.737   6.311
 6397WAT     H226309   3.218   6.681   6.369
 6397WAT    EPW26310   3.140   6.694   6.368
 6398WAT      O26311   3.112   7.380   6.846
 6398WAT     H126312   3.060   7.439   6.883
 6398WAT     H226313   3.152   7.343   6.915
 6398WAT    EPW26314   3.110   7.383   6.862
 6399WAT      O26315   2.073   7.173   6.043
 6399WAT     H126316   1.996   7.189   6.007
 6399WAT     H226317   2.077   7.086   6.045
 6399WAT    EPW26318   2.063   7.162   6.038
 6400WAT      O26319   3.379   7.486   6.514
 6400WAT     H126320   3.387   7.487   6.427
 6400WAT     H226321   3.321   7.423   6.529
 6400WAT    EPW26322   3.372   7.477   6.503
 6401WAT      O26323   2.778   6.797   6.295
 6401WAT     H126324   2.771   6.865   6.240
 6401WAT     H226325   2.852   6.758   6.270
 6401WAT    EPW26326   2.788   6.801   6.283
 6402WAT      O26327   2.238   7.519   6.438
 6402WAT     H126328   2.192   7.480   6.375
 6402WAT     H226329   2.308   7.468   6.447
 6402WAT    EPW26330   2.241   7.506   6.430
 6403WAT      O26331   2.689   7.080   6.972
 6403WAT     H126332   2.756   7.082   6.917
 6403WAT     H226333   2.684   6.997   6.997
 6403WAT    EPW26334   2.698   7.068   6.968
 6404WAT      O26335   2.438   7.329   6.440
 6404WAT     H126336   2.520   7.311   6.464
 6404WAT     H226337   2.390   7.268   6.480
 6404WAT    EPW26338   2.443   7.318   6.449
 6405WAT      O26339   3.061   7.285   7.456
 6405WAT     H126340   2.976   7.276   7.438
 6405WAT     H226341   3.064   7.360   7.501
 6405WAT    EPW26342   3.049   7.295   7.460
 6406WAT      O26343   2.498   6.839   6.367
 6406WAT     H126344   2.468   6.889   6.302
 6406WAT     H226345   2.584   6.847   6.361
 6406WAT    EPW26346   2.506   6.847   6.356
 6407WAT      O26347   3.517   6.581   7.367
 6407WAT     H126348   3.501   6.658   7.329
 6407WAT     H226349   3.439   6.559   7.402
 6407WAT    EPW26350   3.503   6.590   7.367
 6408WAT      O26351   2.795   6.753   6.589
 6408WAT     H126352   2.803   6.839   6.602
 6408WAT     H226353   2.792   6.745   6.502
 6408WAT    EPW26354   2.796   6.765   6.578
 6409WAT      O26355   3.263   7.046   5.819
 6409WAT     H126356   3.218   7.114   5.849
 6409WAT     H226357   3.274   6.995   5.889
 6409WAT    EPW26358   3.258   7.048   5.834
 6410WAT      O26359   2.083   7.295   6.739
 6410WAT     H126360   2.058   7.379   6.731
 6410WAT     H226361   2.017   7.257   6.781
 6410WAT    EPW26362   2.070   7.302   6.744
 6411WAT      O26363   2.386   6.777   6.788
 6411WAT     H126364   2.334   6.714   6.757
 6411WAT     H226365   2.445   6.733   6.835
 6411WAT    EPW26366   2.387   6.761   6.790
 6412WAT      O26367   3.802   7.043   6.448
 6412WAT     H126368   3.768   7.111   6.491
 6412WAT     H226369   3.739   6.983   6.450
 6412WAT    EPW26370   3.788   7.044   6.455
 6413WAT      O26371   2.290   6.950   7.616
 6413WAT     H126372   2.212   6.911   7.609
 6413WAT     H226373   2.339   6.909   7.557
 6413WAT    EPW26374   2.286   6.938   7.606
 6414WAT      O26375   2.955   6.714   7.533
 6414WAT     H126376   2.973   6.634   7.506
 6414WAT     H226377   2.941   6.759   7.459
 6414WAT    EPW26378   2.956   6.709   7.518
 6415WAT      O26379   3.014   7.207   6.410
 6415WAT     H126380   3.043   7.184   6.331
 6415WAT     H226381   3.088   7.215   6.457
 6415WAT    EPW26382   3.029   7.205   6.406
 6416WAT      O26383   3.087   7.241   5.922
 6416WAT     H126384   3.115   7.320   5.947
 6416WAT     H226385   3.009   7.257   5.886
 6416WAT    EPW26386   3.079   7.255   5.921
 6417WAT      O26387   3.770   6.875   6.985
 6417WAT     H126388   3.845   6.882   6.942
 6417WAT     H226389   3.776   6.798   7.025
 6417WAT    EPW26390   3.782   6.865   6.985
 6418WAT      O26391   2.025   7.005   7.375
 6418WAT     H126392   2.025   7.064   7.439
 6418WAT     H226393   2.084   7.036   7.319
 6418WAT    EPW26394   2.034   7.018   7.376
 6419WAT      O26395   3.323   6.848   6.009
 6419WAT     H126396   3.377   6.779   6.017
 6419WAT     H226397   3.329   6.887   6.087
 6419WAT    EPW26398   3.332   6.843   6.022
 6420WAT      O26399   2.119   6.964   6.266
 6420WAT     H126400   2.107   6.878   6.269
 6420WAT     H226401   2.071   6.994   6.333
 6420WAT    EPW26402   2.110   6.956   6.277
 6421WAT      O26403   3.049   7.085   6.141
 6421WAT     H126404   2.998   7.019   6.115
 6421WAT     H226405   3.054   7.136   6.070
 6421WAT    EPW26406   3.042   7.083   6.127
 6422WAT      O26407   3.049   6.779   6.130
 6422WAT     H126408   3.004   6.739   6.067
 6422WAT     H226409   3.126   6.795   6.092
 6422WAT    EPW26410   3.054   6.776   6.115
 6423WAT      O26411   2.909   7.016   6.582
 6423WAT     H126412   2.916   7.073   6.516
 6423WAT     H226413   2.921   7.065   6.653
 6423WAT    EPW26414   2.912   7.032   6.583
 6424WAT      O26415   2.370   6.598   6.417
 6424WAT     H126416   2.423   6.667   6.416
 6424WAT     H226417   2.370   6.571   6.334
 6424WAT    EPW26418   2.378   6.604   6.405
 6425WAT      O26419   3.288   7.033   7.171
 6425WAT     H126420   3.279   7.065   7.252
 6425WAT     H226421   3.229   6.969   7.167
 6425WAT    EPW26422   3.278   7.028   7.182
 6426WAT      O26423   3.414   6.627   6.455
 6426WAT     H126424   3.419   6.596   6.536
 6426WAT     H226425   3.446   6.563   6.405
 6426WAT    EPW26426   3.419   6.613   6.459
 6427WAT      O26427   3.660   7.051   7.285
 6427WAT     H126428   3.737   7.029   7.319
 6427WAT     H226429   3.613   7.073   7.355
 6427WAT    EPW26430   3.664   7.051   7.301
 6428WAT      O26431   2.414   6.979   6.582
 6428WAT     H126432   2.442   6.936   6.512
 6428WAT     H226433   2.397   6.916   6.639
 6428WAT    EPW26434   2.416   6.964   6.580
 6429WAT      O26435   2.229   7.090   6.891
 6429WAT     H126436   2.313   7.112   6.886
 6429WAT     H226437   2.190   7.147   6.837
 6429WAT    EPW26438   2.235   7.101   6.882
 6430WAT      O26439   3.473   7.403   5.963
 6430WAT     H126440   3.451   7.476   5.920
 6430WAT     H226441   3.428   7.408   6.037
 6430WAT    EPW26442   3.463   7.414   5.967
 6431WAT      O26443   3.891   6.889   5.908
 6431WAT     H126444   3.825   6.832   5.910
 6431WAT     H226445   3.872   6.940   5.840
 6431WAT    EPW26446   3.879   6.888   5.898
 6432WAT      O26447   3.924   7.326   7.164
 6432WAT     H126448   3.945   7.246   7.136
 6432WAT     H226449   3.839   7.332   7.145
 6432WAT    EPW26450   3.914   7.316   7.157
 6433WAT      O26451   3.692   6.844   6.136
 6433WAT     H126452   3.766   6.804   6.156
 6433WAT     H226453   3.718   6.916   6.093
 6433WAT    EPW26454   3.707   6.849   6.133
 6434WAT      O26455   3.337   7.073   6.643
 6434WAT     H126456   3.371   7.088   6.722
 6434WAT     H226457   3.292   6.999   6.654
 6434WAT    EPW26458   3.335   7.065   6.656
 6435WAT      O26459   2.785   6.995   6.089
 6435WAT     H126460   2.784   6.984   6.002
 6435WAT     H226461   2.767   7.080   6.098
 6435WAT    EPW26462   2.782   7.006   6.077
 6436WAT      O26463   2.371   7.339   7.538
 6436WAT     H126464   2.318   7.288   7.585
 6436WAT     H226465   2.373   7.300   7.460
 6436WAT    EPW26466   2.364   7.325   7.534
 6437WAT      O26467   2.420   7.278   6.052
 6437WAT     H126468   2.407   7.234   6.126
 6437WAT     H226469   2.362   7.244   5.997
 6437WAT    EPW26470   2.409   7.267   6.055
 6438WAT      O26471   2.437   7.461   6.712
 6438WAT     H126472   2.359   7.456   6.674
 6438WAT     H226473   2.444   7.386   6.756
 6438WAT    EPW26474   2.426   7.450   6.713
 6439WAT      O26475   2.480   7.435   7.059
 6439WAT     H126476   2.482   7.368   7.004
 6439WAT     H226477   2.415   7.485   7.028
 6439WAT    EPW26478   2.471   7.432   7.046
 6440WAT      O26479   3.469   7.206   6.899
 6440WAT     H126480   3.403   7.239   6.945
 6440WAT     H226481   3.488   7.270   6.842
 6440WAT    EPW26482   3.462   7.221   6.897
 6441WAT      O26483   3.134   6.797   7.241
 6441WAT     H126484   3.149   6.715   7.217
 6441WAT     H226485   3.172   6.803   7.320
 6441WAT    EPW26486   3.141   6.786   7.249
 6442WAT      O26487   3.288   7.003   6.250
 6442WAT     H126488   3.337   7.075   6.242
 6442WAT     H226489   3.209   7.029   6.223
 6442WAT    EPW26490   3.284   7.018   6.245
 6443WAT      O26491   2.947   7.150   6.822
 6443WAT     H126492   2.995   7.220   6.843
 6443WAT     H226493   2.984   7.086   6.867
 6443WAT    EPW26494   2.959   7.151   6.832
 6444WAT      O26495   3.166   7.467   6.050
 6444WAT     H126496   3.165   7.539   6.001
 6444WAT     H226497   3.102   7.481   6.107
 6444WAT    EPW26498   3.156   7.480   6.051
 6445WAT      O26499   2.625   6.701   6.016
 6445WAT     H126500   2.635   6.691   6.102
 6445WAT     H226501   2.554   6.752   6.009
 6445WAT    EPW26502   2.616   6.707   6.027
 6446WAT      O26503   3.698   6.676   7.555
 6446WAT     H126504   3.634   6.636   7.511
 6446WAT     H226505   3.700   6.632   7.631
 6446WAT    EPW26506   3.689   6.663   7.560
 6447WAT      O26507   2.037   6.698   6.237
 6447WAT     H126508   2.050   6.627   6.188
 6447WAT     H226509   2.000   6.666   6.309
 6447WAT    EPW26510   2.033   6.683   6.240
 6448WAT      O26511   3.006   7.466   6.282
 6448WAT     H126512   3.012   7.531   6.340
 6448WAT     H226513   2.987   7.397   6.332
 6448WAT    EPW26514   3.004   7.466   6.298
 6449WAT      O26515   2.456   6.918   5.934
 6449WAT     H126516   2.405   6.923   5.863
 6449WAT     H226517   2.534   6.942   5.904
 6449WAT    EPW26518   2.460   6.922   5.919
 6450WAT      O26519   2.636   7.157   6.631
 6450WAT     H126520   2.721   7.138   6.640
 6450WAT     H226521   2.599   7.080   6.617
 6450WAT    EPW26522   2.643   7.143   6.630
 6451WAT      O26523   2.118   7.291   6.296
 6451WAT     H126524   2.167   7.262   6.362
 6451WAT     H226525   2.131   7.232   6.233
 6451WAT    EPW26526   2.127   7.278   6.297
 6452WAT      O26527   2.571   7.435   5.845
 6452WAT     H126528   2.510   7.394   5.892
 6452WAT     H226529   2.532   7.446   5.767
 6452WAT    EPW26530   2.556   7.430   5.840
 6453WAT      O26531   2.716   7.281   6.116
 6453WAT     H126532   2.743   7.363   6.122
 6453WAT     H226533   2.630   7.288   6.106
 6453WAT    EPW26534   2.708   7.294   6.115
 6454WAT      O26535   3.514   6.993   7.579
 6454WAT     H126536   3.461   7.039   7.631
 6454WAT     H226537   3.477   6.913   7.578
 6454WAT    EPW26538   3.500   6.988   7.587
 6455WAT      O26539   2.064   6.878   6.769
 6455WAT     H126540   2.069   6.912   6.689
 6455WAT     H226541   2.140   6.901   6.806
 6455WAT    EPW26542   2.076   6.886   6.763
 6456WAT      O26543   3.363   7.350   7.587
 6456WAT     H126544   3.370   7.360   7.673
 6456WAT     H226545   3.299   7.406   7.564
 6456WAT    EPW26546   3.354   7.360   7.596
 6457WAT      O26547   3.590   7.382   7.423
 6457WAT     H126548   3.621   7.460   7.443
 6457WAT     H226549   3.553   7.355   7.497
 6457WAT    EPW26550   3.589   7.389   7.437
 6458WAT      O26551   3.569   7.208   6.542
 6458WAT     H126552   3.495   7.175   6.574
 6458WAT     H226553   3.569   7.290   6.570
 6458WAT    EPW26554   3.558   7.215   6.551
 6459WAT      O26555   3.460   6.841   7.288
 6459WAT     H126556   3.535   6.886   7.282
 6459WAT     H226557   3.404   6.888   7.241
 6459WAT    EPW26558   3.463   6.854   7.280
 6460WAT      O26559   2.649   7.129   7.270
 6460WAT     H126560   2.665   7.055   7.313
 6460WAT     H226561   2.645   7.104   7.186
 6460WAT    EPW26562   2.651   7.115   7.264
 6461WAT      O26563   3.589   6.639   7.055
 6461WAT     H126564   3.561   6.721   7.051
 6461WAT     H226565   3.660   6.644   7.105
 6461WAT    EPW26566   3.595   6.652   7.062
 6462WAT      O26567   2.824   6.710   7.258
 6462WAT     H126568   2.895   6.742   7.218
 6462WAT     H226569   2.848   6.629   7.281
 6462WAT    EPW26570   2.838   6.703   7.255
 6463WAT      O26571   3.731   7.264   5.941
 6463WAT     H126572   3.769   7.332   5.901
 6463WAT     H226573   3.647   7.286   5.944
 6463WAT    EPW26574   3.724   7.277   5.935
 6464WAT      O26575   2.475   7.215   6.864
 6464WAT     H126576   2.519   7.205   6.789
 6464WAT     H226577   2.530   7.184   6.925
 6464WAT    EPW26578   2.490   7.209   6.862
 6465WAT      O26579   3.277   7.126   7.423
 6465WAT     H126580   3.212   7.173   7.458
 6465WAT     H226581   3.333   7.117   7.489
 6465WAT    EPW26582   3.276   7.131   7.438
 6466WAT      O26583   3.246   7.279   7.053
 6466WAT     H126584   3.276   7.321   7.123
 6466WAT     H226585   3.249   7.195   7.076
 6466WAT    EPW26586   3.251   7.273   7.067
 6467WAT      O26587   3.500   7.224   6.278
 6467WAT     H126588   3.521   7.204   6.361
 6467WAT     H226589   3.576   7.251   6.244
 6467WAT    EPW26590   3.515   7.225   6.285
 6468WAT      O26591   2.830   6.714   6.869
 6468WAT     H126592   2.747   6.699   6.892
 6468WAT     H226593   2.826   6.717   6.782
 6468WAT    EPW26594   2.817   6.712   6.859
 6469WAT      O26595   3.603   6.832   6.426
 6469WAT     H126596   3.531   6.785   6.443
 6469WAT     H226597   3.586   6.866   6.347
 6469WAT    EPW26598   3.590   6.830   6.417
 6470WAT      O26599   2.086   6.754   7.472
 6470WAT     H126600   2.072   6.833   7.439
 6470WAT     H226601   2.008   6.729   7.501
 6470WAT    EPW26602   2.073   6.762   7.472
 6471WAT      O26603   2.393   7.028   6.195
 6471WAT     H126604   2.405   6.995   6.115
 6471WAT     H226605   2.312   7.003   6.215
 6471WAT    EPW26606   2.383   7.020   6.186
 6472WAT      O26607   3.861   7.343   7.439
 6472WAT     H126608   3.775   7.331   7.452
 6472WAT     H226609   3.876   7.304   7.363
 6472WAT    EPW26610   3.850   7.336   7.430
 6473WAT      O26611   3.312   7.410   7.297
 6473WAT     H126612   3.286   7.338   7.339
 6473WAT     H226613   3.394   7.422   7.324
 6473WAT    EPW26614   3.320   7.401   7.307
 6474WAT      O26615   2.391   7.229   7.236
 6474WAT     H126616   2.428   7.291   7.188
 6474WAT     H226617   2.458   7.182   7.265
 6474WAT    EPW26618   2.406   7.231   7.233
 6475WAT      O26619   2.168   7.074   7.164
 6475WAT     H126620   2.176   7.057   7.079
 6475WAT     H226621   2.243   7.115   7.184
 6475WAT    EPW26622   2.180   7.077   7.154
 6476WAT      O26623   3.724   7.338   6.208
 6476WAT     H126624   3.734   7.332   6.121
 6476WAT     H226625   3.798   7.305   6.240
 6476WAT    EPW26626   3.736   7.332   6.200
 6477WAT      O26627   2.423   6.815   7.405
 6477WAT     H126628   2.415   6.731   7.426
 6477WAT     H226629   2.392   6.819   7.324
 6477WAT    EPW26630   2.418   6.803   7.396
 6478WAT      O26631   3.634   7.353   7.143
 6478WAT     H126632   3.634   7.266   7.156
 6478WAT     H226633   3.641   7.385   7.224
 6478WAT    EPW26634   3.635   7.345   7.157
 6479WAT      O26635   2.253   7.190   5.848
 6479WAT     H126636   2.186   7.192   5.904
 6479WAT     H226637   2.263   7.105   5.830
 6479WAT    EPW26638   2.245   7.178   5.854
 6480WAT      O26639   3.222   6.833   7.522
 6480WAT     H126640   3.231   6.904   7.571
 6480WAT     H226641   3.158   6.788   7.561
 6480WAT    EPW26642   3.214   6.836   7.535
 6481WAT      O26643   3.121   6.852   6.607
 6481WAT     H126644   3.051   6.903   6.601
 6481WAT     H226645   3.125   6.814   6.529
 6481WAT    EPW26646   3.112   6.854   6.595
 6482WAT      O26647   3.481   6.903   6.887
 6482WAT     H126648   3.567   6.913   6.902
 6482WAT     H226649   3.444   6.958   6.944
 6482WAT    EPW26650   3.488   6.913   6.898
 6483WAT      O26651   3.512   7.431   6.736
 6483WAT     H126652   3.578   7.485   6.752
 6483WAT     H226653   3.477   7.462   6.662
 6483WAT    EPW26654   3.516   7.444   6.728
 6484WAT      O26655   2.627   6.823   7.070
 6484WAT     H126656   2.541   6.832   7.078
 6484WAT     H226657   2.649   6.772   7.137
 6484WAT    EPW26658   2.617   6.817   7.081
 6485WAT      O26659   3.829   6.687   7.203
 6485WAT     H126660   3.824   6.683   7.290
 6485WAT     H226661   3.897   6.637   7.184
 6485WAT    EPW26662   3.838   6.679   7.213
 6486WAT      O26663   3.037   6.898   6.907
 6486WAT     H126664   2.964   6.853   6.918
 6486WAT     H226665   3.094   6.858   6.959
 6486WAT    EPW26666   3.035   6.886   6.917
 6487WAT      O26667   2.788   7.331   7.428
 6487WAT     H126668   2.755   7.274   7.371
 6487WAT     H226669   2.752   7.407   7.403
 6487WAT    EPW26670   2.778   7.334   7.416
 6488WAT      O26671   2.867   6.656   5.890
 6488WAT     H126672   2.875   6.681   5.807
 6488WAT     H226673   2.793   6.694   5.916
 6488WAT    EPW26674   2.857   6.666   5.882
 6489WAT      O26675   2.349   6.832   7.135
 6489WAT     H126676   2.315   6.755   7.111
 6489WAT     H226677   2.279   6.884   7.141
 6489WAT    EPW26678   2.334   6.828   7.132
 6490WAT      O26679   3.254   6.717   6.832
 6490WAT     H126680   3.321   6.772   6.845
 6490WAT     H226681   3.203   6.760   6.775
 6490WAT    EPW26682   3.256   6.732   6.826
 6491WAT      O26683   3.189   7.298   6.582
 6491WAT     H126684   3.245   7.237   6.612
 6491WAT     H226685   3.147   7.324   6.653
 6491WAT    EPW26686   3.191   7.293   6.596
 6492WAT      O26687   2.214   7.163   6.530
 6492WAT     H126688   2.177   7.193   6.603
 6492WAT     H226689   2.268   7.100   6.559
 6492WAT    EPW26690   2.217   7.158   6.545
 6493WAT      O26691   3.386   7.481   6.238
 6493WAT     H126692   3.393   7.396   6.256
 6493WAT     H226693   3.304   7.490   6.210
 6493WAT    EPW26694   3.375   7.470   6.236
 6494WAT      O26695   3.776   7.075   7.627
 6494WAT     H126696   3.757   7.139   7.682
 6494WAT     H226697   3.704   7.026   7.626
 6494WAT    EPW26698   3.763   7.077   7.635
 6495WAT      O26699   3.766   7.169   6.924
 6495WAT     H126700   3.683   7.194   6.917
 6495WAT     H226701   3.761   7.085   6.947
 6495WAT    EPW26702   3.753   7.160   6.926
 6496WAT      O26703   2.692   6.868   7.443
 6496WAT     H126704   2.716   6.810   7.382
 6496WAT     H226705   2.608   6.850   7.457
 6496WAT    EPW26706   2.683   6.857   7.436
 6497WAT      O26707   3.131   6.688   4.479
 6497WAT     H126708   3.107   6.737   4.411
 6497WAT     H226709   3.218   6.681   4.469
 6497WAT    EPW26710   3.140   6.694   4.467
 6498WAT      O26711   3.112   7.380   4.946
 6498WAT     H126712   3.060   7.439   4.982
 6498WAT     H226713   3.152   7.343   5.014
 6498WAT    EPW26714   3.110   7.383   4.961
 6499WAT      O26715   2.073   7.173   4.142
 6499WAT     H126716   1.996   7.189   4.106
 6499WAT     H226717   2.077   7.086   4.144
 6499WAT    EPW26718   2.063   7.162   4.137
 6500WAT      O26719   3.379   7.486   4.613
 6500WAT     H126720   3.387   7.487   4.526
 6500WAT     H226721   3.321   7.423   4.628
 6500WAT    EPW26722   3.372   7.477   4.603
 6501WAT      O26723   2.778   6.797   4.394
 6501WAT     H126724   2.771   6.865   4.340
 6501WAT     H226725   2.852   6.758   4.369
 6501WAT    EPW26726   2.788   6.801   4.382
 6502WAT      O26727   2.238   7.519   4.537
 6502WAT     H126728   2.192   7.480   4.474
 6502WAT     H226729   2.308   7.468   4.546
 6502WAT    EPW26730   2.241   7.506   4.529
 6503WAT      O26731   2.689   7.080   5.072
 6503WAT     H126732   2.756   7.082   5.017
 6503WAT     H226733   2.684   6.997   5.096
 6503WAT    EPW26734   2.698   7.068   5.067
 6504WAT      O26735   2.438   7.329   4.539
 6504WAT     H126736   2.520   7.311   4.564
 6504WAT     H226737   2.390   7.268   4.579
 6504WAT    EPW26738   2.443   7.318   4.549
 6505WAT      O26739   3.061   7.285   5.555
 6505WAT     H126740   2.976   7.276   5.538
 6505WAT     H226741   3.064   7.360   5.601
 6505WAT    EPW26742   3.049   7.295   5.559
 6506WAT      O26743   2.498   6.839   4.466
 6506WAT     H126744   2.468   6.889   4.401
 6506WAT     H226745   2.584   6.847   4.460
 6506WAT    EPW26746   2.506   6.847   4.456
 6507WAT      O26747   3.517   6.581   5.467
 6507WAT     H126748   3.501   6.658   5.429
 6507WAT     H226749   3.439   6.559   5.501
 6507WAT    EPW26750   3.503   6.590   5.466
 6508WAT      O26751   2.795   6.753   4.688
 6508WAT     H126752   2.803   6.839   4.701
 6508WAT     H226753   2.792   6.745   4.601
 6508WAT    EPW26754   2.796   6.765   4.677
 6509WAT      O26755   3.263   7.046   3.918
 6509WAT     H126756   3.218   7.114   3.949
 6509WAT     H226757   3.274   6.995   3.988
 6509WAT    EPW26758   3.258   7.048   3.933
 6510WAT      O26759   2.083   7.295   4.838
 6510WAT     H126760   2.058   7.379   4.831
 6510WAT     H226761   2.017   7.257   4.880
 6510WAT    EPW26762   2.070   7.302   4.843
 6511WAT      O26763   2.386   6.777   4.887
 6511WAT     H126764   2.334   6.714   4.857
 6511WAT     H226765   2.445   6.733   4.935
 6511WAT    EPW26766   2.387   6.761   4.890
 6512WAT      O26767   2.717   6.990   5.817
 6512WAT     H126768   2.729   6.945   5.744
 6512WAT     H226769   2.746   7.070   5.797
 6512WAT    EPW26770   2.723   6.996   5.803
 6513WAT      O26771   3.802   7.043   4.548
 6513WAT     H126772   3.768   7.111   4.590
 6513WAT     H226773   3.739   6.983   4.549
 6513WAT    EPW26774   3.788   7.044   4.554
 6514WAT      O26775   2.290   6.950   5.716
 6514WAT     H126776   2.212   6.911   5.708
 6514WAT     H226777   2.339   6.909   5.657
 6514WAT    EPW26778   2.286   6.938   5.706
 6515WAT      O26779   2.955   6.714   5.632
 6515WAT     H126780   2.973   6.634   5.605
 6515WAT     H226781   2.941   6.759   5.559
 6515WAT    EPW26782   2.956   6.709   5.617
 6516WAT      O26783   3.014   7.207   4.510
 6516WAT     H126784   3.043   7.184   4.431
 6516WAT     H226785   3.088   7.215   4.557
 6516WAT    EPW26786   3.029   7.205   4.505
 6517WAT      O26787   3.087   7.241   4.022
 6517WAT     H126788   3.115   7.320   4.047
 6517WAT     H226789   3.009   7.257   3.986
 6517WAT    EPW26790   3.079   7.255   4.020
 6518WAT      O26791   3.770   6.875   5.085
 6518WAT     H126792   3.845   6.882   5.042
 6518WAT     H226793   3.776   6.798   5.124
 6518WAT    EPW26794   3.782   6.865   5.084
 6519WAT      O26795   2.025   7.005   5.474
 6519WAT     H126796   2.025   7.064   5.539
 6519WAT     H226797   2.084   7.036   5.419
 6519WAT    EPW26798   2.034   7.018   5.476
 6520WAT      O26799   3.323   6.848   4.109
 6520WAT     H126800   3.377   6.779   4.116
 6520WAT     H226801   3.329   6.887   4.186
 6520WAT    EPW26802   3.332   6.843   4.121
 6521WAT      O26803   2.119   6.964   4.366
 6521WAT     H126804   2.107   6.878   4.369
 6521WAT     H226805   2.071   6.994   4.433
 6521WAT    EPW26806   2.110   6.956   4.376
 6522WAT      O26807   3.049   7.085   4.240
 6522WAT     H126808   2.998   7.019   4.215
 6522WAT     H226809   3.054   7.136   4.169
 6522WAT    EPW26810   3.042   7.083   4.226
 6523WAT      O26811   3.049   6.779   4.229
 6523WAT     H126812   3.004   6.739   4.167
 6523WAT     H226813   3.126   6.795   4.192
 6523WAT    EPW26814   3.054   6.776   4.215
 6524WAT      O26815   2.909   7.016   4.682
 6524WAT     H126816   2.916   7.073   4.616
 6524WAT     H226817   2.921   7.065   4.753
 6524WAT    EPW26818   2.912   7.032   4.682
 6525WAT      O26819   2.370   6.598   4.516
 6525WAT     H126820   2.423   6.667   4.515
 6525WAT     H226821   2.370   6.571   4.434
 6525WAT    EPW26822   2.378   6.604   4.504
 6526WAT      O26823   3.288   7.033   5.270
 6526WAT     H126824   3.279   7.065   5.351
 6526WAT     H226825   3.229   6.969   5.267
 6526WAT    EPW26826   3.278   7.028   5.282
 6527WAT      O26827   3.414   6.627   4.554
 6527WAT     H126828   3.419   6.596   4.635
 6527WAT     H226829   3.446   6.563   4.505
 6527WAT    EPW26830   3.419   6.613   4.559
 6528WAT      O26831   3.660   7.051   5.385
 6528WAT     H126832   3.737   7.029   5.418
 6528WAT     H226833   3.613   7.073   5.455
 6528WAT    EPW26834   3.664   7.051   5.400
 6529WAT      O26835   2.414   6.979   4.682
 6529WAT     H126836   2.442   6.936   4.611
 6529WAT     H226837   2.397   6.916   4.739
 6529WAT    EPW26838   2.416   6.964   4.680
 6530WAT      O26839   2.229   7.090   4.990
 6530WAT     H126840   2.313   7.112   4.986
 6530WAT     H226841   2.190   7.147   4.937
 6530WAT    EPW26842   2.235   7.101   4.981
 6531WAT      O26843   3.473   7.403   4.062
 6531WAT     H126844   3.451   7.476   4.020
 6531WAT     H226845   3.428   7.408   4.137
 6531WAT    EPW26846   3.463   7.414   4.067
 6532WAT      O26847   3.891   6.889   4.007
 6532WAT     H126848   3.825   6.832   4.010
 6532WAT     H226849   3.872   6.940   3.939
 6532WAT    EPW26850   3.879   6.888   3.998
 6533WAT      O26851   2.814   7.258   5.802
 6533WAT     H126852   2.766   7.316   5.846
 6533WAT     H226853   2.811   7.288   5.720
 6533WAT    EPW26854   2.806   7.271   5.796
 6534WAT      O26855   3.924   7.326   5.263
 6534WAT     H126856   3.945   7.246   5.235
 6534WAT     H226857   3.839   7.332   5.244
 6534WAT    EPW26858   3.914   7.316   5.256
 6535WAT      O26859   3.692   6.844   4.235
 6535WAT     H126860   3.766   6.804   4.255
 6535WAT     H226861   3.718   6.916   4.193
 6535WAT    EPW26862   3.707   6.849   4.232
 6536WAT      O26863   3.337   7.073   4.743
 6536WAT     H126864   3.371   7.088   4.821
 6536WAT     H226865   3.292   6.999   4.754
 6536WAT    EPW26866   3.335   7.065   4.756
 6537WAT      O26867   2.785   6.995   4.188
 6537WAT     H126868   2.784   6.984   4.102
 6537WAT     H226869   2.767   7.080   4.197
 6537WAT    EPW26870   2.782   7.006   4.177
 6538WAT      O26871   2.371   7.339   5.638
 6538WAT     H126872   2.318   7.288   5.684
 6538WAT     H226873   2.373   7.300   5.560
 6538WAT    EPW26874   2.364   7.325   5.633
 6539WAT      O26875   2.420   7.278   4.152
 6539WAT     H126876   2.407   7.234   4.225
 6539WAT     H226877   2.362   7.244   4.096
 6539WAT    EPW26878   2.409   7.267   4.154
 6540WAT      O26879   2.437   7.461   4.812
 6540WAT     H126880   2.359   7.456   4.773
 6540WAT     H226881   2.444   7.386   4.855
 6540WAT    EPW26882   2.426   7.450   4.812
 6541WAT      O26883   2.480   7.435   5.158
 6541WAT     H126884   2.482   7.368   5.103
 6541WAT     H226885   2.415   7.485   5.127
 6541WAT    EPW26886   2.471   7.432   5.146
 6542WAT      O26887   3.469   7.206   4.998
 6542WAT     H126888   3.403   7.239   5.044
 6542WAT     H226889   3.488   7.270   4.941
 6542WAT    EPW26890   3.462   7.221   4.996
 6543WAT      O26891   3.134   6.797   5.341
 6543WAT     H126892   3.149   6.715   5.317
 6543WAT     H226893   3.172   6.803   5.419
 6543WAT    EPW26894   3.141   6.786   5.349
 6544WAT      O26895   3.288   7.003   4.349
 6544WAT     H126896   3.337   7.075   4.341
 6544WAT     H226897   3.209   7.029   4.323
 6544WAT    EPW26898   3.284   7.018   4.344
 6545WAT      O26899   2.947   7.150   4.922
 6545WAT     H126900   2.995   7.220   4.942
 6545WAT     H226901   2.984   7.086   4.967
 6545WAT    EPW26902   2.959   7.151   4.931
 6546WAT      O26903   3.166   7.467   4.149
 6546WAT     H126904   3.165   7.539   4.100
 6546WAT     H226905   3.102   7.481   4.207
 6546WAT    EPW26906   3.156   7.480   4.150
 6547WAT      O26907   2.625   6.701   4.115
 6547WAT     H126908   2.635   6.691   4.201
 6547WAT     H226909   2.554   6.752   4.109
 6547WAT    EPW26910   2.616   6.707   4.127
 6548WAT      O26911   3.698   6.676   5.655
 6548WAT     H126912   3.634   6.636   5.611
 6548WAT     H226913   3.700   6.632   5.731
 6548WAT    EPW26914   3.689   6.663   5.659
 6549WAT      O26915   2.037   6.698   4.336
 6549WAT     H126916   2.050   6.627   4.287
 6549WAT     H226917   2.000   6.666   4.409
 6549WAT    EPW26918   2.033   6.683   4.340
 6550WAT      O26919   3.006   7.466   4.382
 6550WAT     H126920   3.012   7.531   4.440
 6550WAT     H226921   2.987   7.397   4.431
 6550WAT    EPW26922   3.004   7.466   4.398
 6551WAT      O26923   2.456   6.918   4.033
 6551WAT     H126924   2.405   6.923   3.962
 6551WAT     H226925   2.534   6.942   4.003
 6551WAT    EPW26926   2.460   6.922   4.018
 6552WAT      O26927   2.636   7.157   4.730
 6552WAT     H126928   2.721   7.138   4.740
 6552WAT     H226929   2.599   7.080   4.716
 6552WAT    EPW26930   2.643   7.143   4.729
 6553WAT      O26931   2.118   7.291   4.396
 6553WAT     H126932   2.167   7.262   4.462
 6553WAT     H226933   2.131   7.232   4.333
 6553WAT    EPW26934   2.127   7.278   4.396
 6554WAT      O26935   2.571   7.435   3.944
 6554WAT     H126936   2.510   7.394   3.992
 6554WAT     H226937   2.532   7.446   3.867
 6554WAT    EPW26938   2.556   7.430   3.940
 6555WAT      O26939   2.716   7.281   4.215
 6555WAT     H126940   2.743   7.363   4.222
 6555WAT     H226941   2.630   7.288   4.206
 6555WAT    EPW26942   2.708   7.294   4.215
 6556WAT      O26943   3.514   6.993   5.678
 6556WAT     H126944   3.461   7.039   5.731
 6556WAT     H226945   3.477   6.913   5.678
 6556WAT    EPW26946   3.500   6.988   5.686
 6557WAT      O26947   2.064   6.878   4.869
 6557WAT     H126948   2.069   6.912   4.789
 6557WAT     H226949   2.140   6.901   4.905
 6557WAT    EPW26950   2.076   6.886   4.862
 6558WAT      O26951   3.363   7.350   5.686
 6558WAT     H126952   3.370   7.360   5.772
 6558WAT     H226953   3.299   7.406   5.664
 6558WAT    EPW26954   3.354   7.360   5.695
 6559WAT      O26955   3.590   7.382   5.522
 6559WAT     H126956   3.621   7.460   5.543
 6559WAT     H226957   3.553   7.355   5.597
 6559WAT    EPW26958   3.589   7.389   5.536
 6560WAT      O26959   3.569   7.208   4.641
 6560WAT     H126960   3.495   7.175   4.673
 6560WAT     H226961   3.569   7.290   4.669
 6560WAT    EPW26962   3.558   7.215   4.650
 6561WAT      O26963   3.859   7.436   5.796
 6561WAT     H126964   3.854   7.402   5.716
 6561WAT     H226965   3.933   7.483   5.794
 6561WAT    EPW26966   3.869   7.438   5.784
 6562WAT      O26967   3.460   6.841   5.387
 6562WAT     H126968   3.535   6.886   5.381
 6562WAT     H226969   3.404   6.888   5.341
 6562WAT    EPW26970   3.463   6.854   5.380
 6563WAT      O26971   2.649   7.129   5.369
 6563WAT     H126972   2.665   7.055   5.412
 6563WAT     H226973   2.645   7.104   5.286
 6563WAT    EPW26974   2.651   7.115   5.363
 6564WAT      O26975   3.589   6.639   5.154
 6564WAT     H126976   3.561   6.721   5.150
 6564WAT     H226977   3.660   6.644   5.204
 6564WAT    EPW26978   3.595   6.652   5.161
 6565WAT      O26979   2.824   6.710   5.357
 6565WAT     H126980   2.895   6.742   5.317
 6565WAT     H226981   2.848   6.629   5.380
 6565WAT    EPW26982   2.838   6.703   5.355
 6566WAT      O26983   3.731   7.264   4.040
 6566WAT     H126984   3.769   7.332   4.000
 6566WAT     H226985   3.647   7.286   4.043
 6566WAT    EPW26986   3.724   7.277   4.035
 6567WAT      O26987   2.475   7.215   4.963
 6567WAT     H126988   2.519   7.205   4.889
 6567WAT     H226989   2.530   7.184   5.024
 6567WAT    EPW26990   2.490   7.209   4.961
 6568WAT      O26991   3.277   7.126   5.523
 6568WAT     H126992   3.212   7.173   5.557
 6568WAT     H226993   3.333   7.117   5.589
 6568WAT    EPW26994   3.276   7.131   5.538
 6569WAT      O26995   3.246   7.279   5.152
 6569WAT     H126996   3.276   7.321   5.223
 6569WAT     H226997   3.249   7.195   5.176
 6569WAT    EPW26998   3.251   7.273   5.166
 6570WAT      O26999   3.500   7.224   4.378
 6570WAT     H127000   3.521   7.204   4.460
 6570WAT     H227001   3.576   7.251   4.343
 6570WAT    EPW27002   3.515   7.225   4.385
 6571WAT      O27003   2.830   6.714   4.968
 6571WAT     H127004   2.747   6.699   4.992
 6571WAT     H227005   2.826   6.717   4.881
 6571WAT    EPW27006   2.817   6.712   4.959
 6572WAT      O27007   3.603   6.832   4.525
 6572WAT     H127008   3.531   6.785   4.542
 6572WAT     H227009   3.586   6.866   4.446
 6572WAT    EPW27010   3.590   6.830   4.516
 6573WAT      O27011   2.086   6.754   5.572
 6573WAT     H127012   2.072   6.833   5.539
 6573WAT     H227013   2.008   6.729   5.601
 6573WAT    EPW27014   2.073   6.762   5.571
 6574WAT      O27015   2.393   7.028   4.294
 6574WAT     H127016   2.405   6.995   4.214
 6574WAT     H227017   2.312   7.003   4.314
 6574WAT    EPW27018   2.383   7.020   4.285
 6575WAT      O27019   3.861   7.343   5.539
 6575WAT     H127020   3.775   7.331   5.551
 6575WAT     H227021   3.876   7.304   5.463
 6575WAT    EPW27022   3.850   7.336   5.529
 6576WAT      O27023   3.312   7.410   5.396
 6576WAT     H127024   3.286   7.338   5.439
 6576WAT     H227025   3.394   7.422   5.423
 6576WAT    EPW27026   3.320   7.401   5.407
 6577WAT      O27027   2.391   7.229   5.336
 6577WAT     H127028   2.428   7.291   5.287
 6577WAT     H227029   2.458   7.182   5.364
 6577WAT    EPW27030   2.406   7.231   5.333
 6578WAT      O27031   2.168   7.074   5.263
 6578WAT     H127032   2.176   7.057   5.178
 6578WAT     H227033   2.243   7.115   5.283
 6578WAT    EPW27034   2.180   7.077   5.254
 6579WAT      O27035   3.724   7.338   4.307
 6579WAT     H127036   3.734   7.332   4.221
 6579WAT     H227037   3.798   7.305   4.339
 6579WAT    EPW27038   3.736   7.332   4.299
 6580WAT      O27039   2.423   6.815   5.504
 6580WAT     H127040   2.415   6.731   5.525
 6580WAT     H227041   2.392   6.819   5.423
 6580WAT    EPW27042   2.418   6.803   5.495
 6581WAT      O27043   3.634   7.353   5.243
 6581WAT     H127044   3.634   7.266   5.255
 6581WAT     H227045   3.641   7.385   5.324
 6581WAT    EPW27046   3.635   7.345   5.257
 6582WAT      O27047   2.253   7.190   3.947
 6582WAT     H127048   2.186   7.192   4.003
 6582WAT     H227049   2.263   7.105   3.929
 6582WAT    EPW27050   2.245   7.178   3.953
 6583WAT      O27051   3.222   6.833   5.621
 6583WAT     H127052   3.231   6.904   5.670
 6583WAT     H227053   3.158   6.788   5.661
 6583WAT    EPW27054   3.214   6.836   5.634
 6584WAT      O27055   3.121   6.852   4.706
 6584WAT     H127056   3.051   6.903   4.701
 6584WAT     H227057   3.125   6.814   4.628
 6584WAT    EPW27058   3.112   6.854   4.694
 6585WAT      O27059   3.481   6.903   4.986
 6585WAT     H127060   3.567   6.913   5.001
 6585WAT     H227061   3.444   6.958   5.043
 6585WAT    EPW27062   3.488   6.913   4.997
 6586WAT      O27063   3.512   7.431   4.836
 6586WAT     H127064   3.578   7.485   4.852
 6586WAT     H227065   3.477   7.462   4.762
 6586WAT    EPW27066   3.516   7.444   4.827
 6587WAT      O27067   2.627   6.823   5.169
 6587WAT     H127068   2.541   6.832   5.177
 6587WAT     H227069   2.649   6.772   5.236
 6587WAT    EPW27070   2.617   6.817   5.180
 6588WAT      O27071   3.829   6.687   5.302
 6588WAT     H127072   3.824   6.683   5.389
 6588WAT     H227073   3.897   6.637   5.283
 6588WAT    EPW27074   3.838   6.679   5.312
 6589WAT      O27075   3.037   6.898   5.007
 6589WAT     H127076   2.964   6.853   5.018
 6589WAT     H227077   3.094   6.858   5.059
 6589WAT    EPW27078   3.035   6.886   5.016
 6590WAT      O27079   2.788   7.331   5.527
 6590WAT     H127080   2.755   7.274   5.470
 6590WAT     H227081   2.752   7.407   5.502
 6590WAT    EPW27082   2.778   7.334   5.515
 6591WAT      O27083   2.867   6.656   3.990
 6591WAT     H127084   2.875   6.681   3.906
 6591WAT     H227085   2.793   6.694   4.015
 6591WAT    EPW27086   2.857   6.666   3.981
 6592WAT      O27087   2.349   6.832   5.234
 6592WAT     H127088   2.315   6.755   5.211
 6592WAT     H227089   2.279   6.884   5.240
 6592WAT    EPW27090   2.334   6.828   5.231
 6593WAT      O27091   3.254   6.717   4.932
 6593WAT     H127092   3.321   6.772   4.944
 6593WAT     H227093   3.203   6.760   4.874
 6593WAT    EPW27094   3.256   6.732   4.925
 6594WAT      O27095   3.189   7.298   4.681
 6594WAT     H127096   3.245   7.237   4.711
 6594WAT     H227097   3.147   7.324   4.752
 6594WAT    EPW27098   3.191   7.293   4.696
 6595WAT      O27099   2.214   7.163   4.630
 6595WAT     H127100   2.177   7.193   4.703
 6595WAT     H227101   2.268   7.100   4.658
 6595WAT    EPW27102   2.217   7.158   4.645
 6596WAT      O27103   3.386   7.481   4.337
 6596WAT     H127104   3.393   7.396   4.355
 6596WAT     H227105   3.304   7.490   4.309
 6596WAT    EPW27106   3.375   7.470   4.336
 6597WAT      O27107   3.776   7.075   5.726
 6597WAT     H127108   3.757   7.139   5.782
 6597WAT     H227109   3.704   7.026   5.725
 6597WAT    EPW27110   3.763   7.077   5.734
 6598WAT      O27111   3.766   7.169   5.023
 6598WAT     H127112   3.683   7.194   5.016
 6598WAT     H227113   3.761   7.085   5.046
 6598WAT    EPW27114   3.753   7.160   5.025
 6599WAT      O27115   2.692   6.868   5.543
 6599WAT     H127116   2.716   6.810   5.481
 6599WAT     H227117   2.608   6.850   5.557
 6599WAT    EPW27118   2.683   6.857   5.536
 6600WAT      O27119   3.131   6.688   2.578
 6600WAT     H127120   3.107   6.737   2.510
 6600WAT     H227121   3.218   6.681   2.568
 6600WAT    EPW27122   3.140   6.694   2.567
 6601WAT      O27123   3.112   7.380   3.045
 6601WAT     H127124   3.060   7.439   3.081
 6601WAT     H227125   3.152   7.343   3.114
 6601WAT    EPW27126   3.110   7.383   3.061
 6602WAT      O27127   2.073   7.173   2.241
 6602WAT     H127128   1.996   7.189   2.205
 6602WAT     H227129   2.077   7.086   2.244
 6602WAT    EPW27130   2.063   7.162   2.236
 6603WAT      O27131   3.379   7.486   2.713
 6603WAT     H127132   3.387   7.487   2.626
 6603WAT     H227133   3.321   7.423   2.728
 6603WAT    EPW27134   3.372   7.477   2.702
 6604WAT      O27135   2.778   6.797   2.494
 6604WAT     H127136   2.771   6.865   2.439
 6604WAT     H227137   2.852   6.758   2.469
 6604WAT    EPW27138   2.788   6.801   2.482
 6605WAT      O27139   2.238   7.519   2.636
 6605WAT     H127140   2.192   7.480   2.574
 6605WAT     H227141   2.308   7.468   2.646
 6605WAT    EPW27142   2.241   7.506   2.629
 6606WAT      O27143   2.689   7.080   3.171
 6606WAT     H127144   2.756   7.082   3.116
 6606WAT     H227145   2.684   6.997   3.196
 6606WAT    EPW27146   2.698   7.068   3.167
 6607WAT      O27147   2.438   7.329   2.639
 6607WAT     H127148   2.520   7.311   2.663
 6607WAT     H227149   2.390   7.268   2.678
 6607WAT    EPW27150   2.443   7.318   2.648
 6608WAT      O27151   3.061   7.285   3.655
 6608WAT     H127152   2.976   7.276   3.637
 6608WAT     H227153   3.064   7.360   3.700
 6608WAT    EPW27154   3.049   7.295   3.659
 6609WAT      O27155   2.498   6.839   2.565
 6609WAT     H127156   2.468   6.889   2.500
 6609WAT     H227157   2.584   6.847   2.560
 6609WAT    EPW27158   2.506   6.847   2.555
 6610WAT      O27159   3.517   6.581   3.566
 6610WAT     H127160   3.501   6.658   3.528
 6610WAT     H227161   3.439   6.559   3.601
 6610WAT    EPW27162   3.503   6.590   3.566
 6611WAT      O27163   2.795   6.753   2.788
 6611WAT     H127164   2.803   6.839   2.801
 6611WAT     H227165   2.792   6.745   2.701
 6611WAT    EPW27166   2.796   6.765   2.777
 6612WAT      O27167   3.263   7.046   2.018
 6612WAT     H127168   3.218   7.114   2.048
 6612WAT     H227169   3.274   6.995   2.088
 6612WAT    EPW27170   3.258   7.048   2.032
 6613WAT      O27171   2.083   7.295   2.938
 6613WAT     H127172   2.058   7.379   2.930
 6613WAT     H227173   2.017   7.257   2.979
 6613WAT    EPW27174   2.070   7.302   2.943
 6614WAT      O27175   2.386   6.777   2.987
 6614WAT     H127176   2.334   6.714   2.956
 6614WAT     H227177   2.445   6.733   3.034
 6614WAT    EPW27178   2.387   6.761   2.989
 6615WAT      O27179   2.717   6.990   3.917
 6615WAT     H127180   2.729   6.945   3.843
 6615WAT     H227181   2.746   7.070   3.896
 6615WAT    EPW27182   2.723   6.996   3.903
 6616WAT      O27183   3.802   7.043   2.647
 6616WAT     H127184   3.768   7.111   2.690
 6616WAT     H227185   3.739   6.983   2.649
 6616WAT    EPW27186   3.788   7.044   2.654
 6617WAT      O27187   2.290   6.950   3.815
 6617WAT     H127188   2.212   6.911   3.808
 6617WAT     H227189   2.339   6.909   3.756
 6617WAT    EPW27190   2.286   6.938   3.805
 6618WAT      O27191   2.955   6.714   3.732
 6618WAT     H127192   2.973   6.634   3.704
 6618WAT     H227193   2.941   6.759   3.658
 6618WAT    EPW27194   2.956   6.709   3.717
 6619WAT      O27195   3.014   7.207   2.609
 6619WAT     H127196   3.043   7.184   2.530
 6619WAT     H227197   3.088   7.215   2.656
 6619WAT    EPW27198   3.029   7.205   2.604
 6620WAT      O27199   3.087   7.241   2.121
 6620WAT     H127200   3.115   7.320   2.146
 6620WAT     H227201   3.009   7.257   2.085
 6620WAT    EPW27202   3.079   7.255   2.120
 6621WAT      O27203   3.770   6.875   3.184
 6621WAT     H127204   3.845   6.882   3.141
 6621WAT     H227205   3.776   6.798   3.224
 6621WAT    EPW27206   3.782   6.865   3.183
 6622WAT      O27207   2.025   7.005   3.574
 6622WAT     H127208   2.025   7.064   3.638
 6622WAT     H227209   2.084   7.036   3.518
 6622WAT    EPW27210   2.034   7.018   3.575
 6623WAT      O27211   3.323   6.848   2.208
 6623WAT     H127212   3.377   6.779   2.216
 6623WAT     H227213   3.329   6.887   2.286
 6623WAT    EPW27214   3.332   6.843   2.221
 6624WAT      O27215   2.119   6.964   2.465
 6624WAT     H127216   2.107   6.878   2.468
 6624WAT     H227217   2.071   6.994   2.532
 6624WAT    EPW27218   2.110   6.956   2.475
 6625WAT      O27219   3.049   7.085   2.340
 6625WAT     H127220   2.998   7.019   2.314
 6625WAT     H227221   3.054   7.136   2.269
 6625WAT    EPW27222   3.042   7.083   2.325
 6626WAT      O27223   3.049   6.779   2.329
 6626WAT     H127224   3.004   6.739   2.266
 6626WAT     H227225   3.126   6.795   2.291
 6626WAT    EPW27226   3.054   6.776   2.314
 6627WAT      O27227   2.909   7.016   2.781
 6627WAT     H127228   2.916   7.073   2.715
 6627WAT     H227229   2.921   7.065   2.852
 6627WAT    EPW27230   2.912   7.032   2.782
 6628WAT      O27231   2.370   6.598   2.616
 6628WAT     H127232   2.423   6.667   2.615
 6628WAT     H227233   2.370   6.571   2.533
 6628WAT    EPW27234   2.378   6.604   2.603
 6629WAT      O27235   3.288   7.033   3.370
 6629WAT     H127236   3.279   7.065   3.450
 6629WAT     H227237   3.229   6.969   3.366
 6629WAT    EPW27238   3.278   7.028   3.381
 6630WAT      O27239   3.414   6.627   2.653
 6630WAT     H127240   3.419   6.596   2.734
 6630WAT     H227241   3.446   6.563   2.604
 6630WAT    EPW27242   3.419   6.613   2.658
 6631WAT      O27243   3.660   7.051   3.484
 6631WAT     H127244   3.737   7.029   3.518
 6631WAT     H227245   3.613   7.073   3.554
 6631WAT    EPW27246   3.664   7.051   3.499
 6632WAT      O27247   2.414   6.979   2.781
 6632WAT     H127248   2.442   6.936   2.710
 6632WAT     H227249   2.397   6.916   2.838
 6632WAT    EPW27250   2.416   6.964   2.779
 6633WAT      O27251   2.229   7.090   3.089
 6633WAT     H127252   2.313   7.112   3.085
 6633WAT     H227253   2.190   7.147   3.036
 6633WAT    EPW27254   2.235   7.101   3.081
 6634WAT      O27255   3.473   7.403   2.161
 6634WAT     H127256   3.451   7.476   2.119
 6634WAT     H227257   3.428   7.408   2.236
 6634WAT    EPW27258   3.463   7.414   2.166
 6635WAT      O27259   3.891   6.889   2.107
 6635WAT     H127260   3.825   6.832   2.109
 6635WAT     H227261   3.872   6.940   2.039
 6635WAT    EPW27262   3.879   6.888   2.097
 6636WAT      O27263   2.814   7.258   3.901
 6636WAT     H127264   2.766   7.316   3.945
 6636WAT     H227265   2.811   7.288   3.819
 6636WAT    EPW27266   2.806   7.271   3.896
 6637WAT      O27267   3.924   7.326   3.362
 6637WAT     H127268   3.945   7.246   3.335
 6637WAT     H227269   3.839   7.332   3.343
 6637WAT    EPW27270   3.914   7.316   3.355
 6638WAT      O27271   3.692   6.844   2.335
 6638WAT     H127272   3.766   6.804   2.355
 6638WAT     H227273   3.718   6.916   2.292
 6638WAT    EPW27274   3.707   6.849   2.331
 6639WAT      O27275   3.337   7.073   2.842
 6639WAT     H127276   3.371   7.088   2.921
 6639WAT     H227277   3.292   6.999   2.853
 6639WAT    EPW27278   3.335   7.065   2.855
 6640WAT      O27279   2.785   6.995   2.288
 6640WAT     H127280   2.784   6.984   2.201
 6640WAT     H227281   2.767   7.080   2.297
 6640WAT    EPW27282   2.782   7.006   2.276
 6641WAT      O27283   2.371   7.339   3.737
 6641WAT     H127284   2.318   7.288   3.784
 6641WAT     H227285   2.373   7.300   3.659
 6641WAT    EPW27286   2.364   7.325   3.732
 6642WAT      O27287   2.420   7.278   2.251
 6642WAT     H127288   2.407   7.234   2.325
 6642WAT     H227289   2.362   7.244   2.196
 6642WAT    EPW27290   2.409   7.267   2.254
 6643WAT      O27291   2.437   7.461   2.911
 6643WAT     H127292   2.359   7.456   2.873
 6643WAT     H227293   2.444   7.386   2.955
 6643WAT    EPW27294   2.426   7.450   2.912
 6644WAT      O27295   2.480   7.435   3.258
 6644WAT     H127296   2.482   7.368   3.203
 6644WAT     H227297   2.415   7.485   3.227
 6644WAT    EPW27298   2.471   7.432   3.245
 6645WAT      O27299   3.469   7.206   3.097
 6645WAT     H127300   3.403   7.239   3.144
 6645WAT     H227301   3.488   7.270   3.040
 6645WAT    EPW27302   3.462   7.221   3.096
 6646WAT      O27303   3.134   6.797   3.440
 6646WAT     H127304   3.149   6.715   3.416
 6646WAT     H227305   3.172   6.803   3.519
 6646WAT    EPW27306   3.141   6.786   3.448
 6647WAT      O27307   3.288   7.003   2.448
 6647WAT     H127308   3.337   7.075   2.441
 6647WAT     H227309   3.209   7.029   2.422
 6647WAT    EPW27310   3.284   7.018   2.443
 6648WAT      O27311   2.947   7.150   3.021
 6648WAT     H127312   2.995   7.220   3.042
 6648WAT     H227313   2.984   7.086   3.066
 6648WAT    EPW27314   2.959   7.151   3.031
 6649WAT      O27315   3.166   7.467   2.248
 6649WAT     H127316   3.165   7.539   2.199
 6649WAT     H227317   3.102   7.481   2.306
 6649WAT    EPW27318   3.156   7.480   2.250
 6650WAT      O27319   2.625   6.701   2.214
 6650WAT     H127320   2.635   6.691   2.301
 6650WAT     H227321   2.554   6.752   2.208
 6650WAT    EPW27322   2.616   6.707   2.226
 6651WAT      O27323   3.698   6.676   3.754
 6651WAT     H127324   3.634   6.636   3.710
 6651WAT     H227325   3.700   6.632   3.830
 6651WAT    EPW27326   3.689   6.663   3.759
 6652WAT      O27327   2.037   6.698   2.436
 6652WAT     H127328   2.050   6.627   2.386
 6652WAT     H227329   2.000   6.666   2.508
 6652WAT    EPW27330   2.033   6.683   2.439
 6653WAT      O27331   3.006   7.466   2.481
 6653WAT     H127332   3.012   7.531   2.539
 6653WAT     H227333   2.987   7.397   2.530
 6653WAT    EPW27334   3.004   7.466   2.497
 6654WAT      O27335   2.456   6.918   2.132
 6654WAT     H127336   2.405   6.923   2.062
 6654WAT     H227337   2.534   6.942   2.103
 6654WAT    EPW27338   2.460   6.922   2.118
 6655WAT      O27339   2.636   7.157   2.829
 6655WAT     H127340   2.721   7.138   2.839
 6655WAT     H227341   2.599   7.080   2.816
 6655WAT    EPW27342   2.643   7.143   2.829
 6656WAT      O27343   2.118   7.291   2.495
 6656WAT     H127344   2.167   7.262   2.561
 6656WAT     H227345   2.131   7.232   2.432
 6656WAT    EPW27346   2.127   7.278   2.495
 6657WAT      O27347   2.571   7.435   2.044
 6657WAT     H127348   2.510   7.394   2.091
 6657WAT     H227349   2.532   7.446   1.966
 6657WAT    EPW27350   2.556   7.430   2.039
 6658WAT      O27351   2.716   7.281   2.315
 6658WAT     H127352   2.743   7.363   2.321
 6658WAT     H227353   2.630   7.288   2.305
 6658WAT    EPW27354   2.708   7.294   2.314
 6659WAT      O27355   3.514   6.993   3.778
 6659WAT     H127356   3.461   7.039   3.830
 6659WAT     H227357   3.477   6.913   3.777
 6659WAT    EPW27358   3.500   6.988   3.785
 6660WAT      O27359   2.064   6.878   2.968
 6660WAT     H127360   2.069   6.912   2.888
 6660WAT     H227361   2.140   6.901   3.005
 6660WAT    EPW27362   2.076   6.886   2.962
 6661WAT      O27363   3.363   7.350   3.785
 6661WAT     H127364   3.370   7.360   3.872
 6661WAT     H227365   3.299   7.406   3.763
 6661WAT    EPW27366   3.354   7.360   3.795
 6662WAT      O27367   3.590   7.382   3.622
 6662WAT     H127368   3.621   7.460   3.642
 6662WAT     H227369   3.553   7.355   3.696
 6662WAT    EPW27370   3.589   7.389   3.636
 6663WAT      O27371   3.569   7.208   2.741
 6663WAT     H127372   3.495   7.175   2.773
 6663WAT     H227373   3.569   7.290   2.769
 6663WAT    EPW27374   3.558   7.215   2.750
 6664WAT      O27375   3.859   7.436   3.895
 6664WAT     H127376   3.854   7.402   3.815
 6664WAT     H227377   3.933   7.483   3.893
 6664WAT    EPW27378   3.869   7.438   3.883
 6665WAT      O27379   3.460   6.841   3.487
 6665WAT     H127380   3.535   6.886   3.481
 6665WAT     H227381   3.404   6.888   3.440
 6665WAT    EPW27382   3.463   6.854   3.479
 6666WAT      O27383   2.649   7.129   3.469
 6666WAT     H127384   2.665   7.055   3.511
 6666WAT     H227385   2.645   7.104   3.385
 6666WAT    EPW27386   2.651   7.115   3.463
 6667WAT      O27387   3.589   6.639   3.254
 6667WAT     H127388   3.561   6.721   3.249
 6667WAT     H227389   3.660   6.644   3.303
 6667WAT    EPW27390   3.595   6.652   3.261
 6668WAT      O27391   2.824   6.710   3.457
 6668WAT     H127392   2.895   6.742   3.417
 6668WAT     H227393   2.848   6.629   3.479
 6668WAT    EPW27394   2.838   6.703   3.454
 6669WAT      O27395   3.731   7.264   2.140
 6669WAT     H127396   3.769   7.332   2.100
 6669WAT     H227397   3.647   7.286   2.143
 6669WAT    EPW27398   3.724   7.277   2.134
 6670WAT      O27399   2.475   7.215   3.063
 6670WAT     H127400   2.519   7.205   2.988
 6670WAT     H227401   2.530   7.184   3.123
 6670WAT    EPW27402   2.490   7.209   3.061
 6671WAT      O27403   3.277   7.126   3.622
 6671WAT     H127404   3.212   7.173   3.657
 6671WAT     H227405   3.333   7.117   3.688
 6671WAT    EPW27406   3.276   7.131   3.637
 6672WAT      O27407   3.246   7.279   3.252
 6672WAT     H127408   3.276   7.321   3.322
 6672WAT     H227409   3.249   7.195   3.275
 6672WAT    EPW27410   3.251   7.273   3.266
 6673WAT      O27411   3.500   7.224   2.477
 6673WAT     H127412   3.521   7.204   2.559
 6673WAT     H227413   3.576   7.251   2.443
 6673WAT    EPW27414   3.515   7.225   2.484
 6674WAT      O27415   2.830   6.714   3.068
 6674WAT     H127416   2.747   6.699   3.091
 6674WAT     H227417   2.826   6.717   2.980
 6674WAT    EPW27418   2.817   6.712   3.058
 6675WAT      O27419   3.603   6.832   2.624
 6675WAT     H127420   3.531   6.785   2.642
 6675WAT     H227421   3.586   6.866   2.546
 6675WAT    EPW27422   3.590   6.830   2.615
 6676WAT      O27423   2.086   6.754   3.671
 6676WAT     H127424   2.072   6.833   3.638
 6676WAT     H227425   2.008   6.729   3.700
 6676WAT    EPW27426   2.073   6.762   3.670
 6677WAT      O27427   2.393   7.028   2.394
 6677WAT     H127428   2.405   6.995   2.314
 6677WAT     H227429   2.312   7.003   2.413
 6677WAT    EPW27430   2.383   7.020   2.385
 6678WAT      O27431   3.861   7.343   3.638
 6678WAT     H127432   3.775   7.331   3.651
 6678WAT     H227433   3.876   7.304   3.562
 6678WAT    EPW27434   3.850   7.336   3.629
 6679WAT      O27435   3.312   7.410   3.496
 6679WAT     H127436   3.286   7.338   3.538
 6679WAT     H227437   3.394   7.422   3.523
 6679WAT    EPW27438   3.320   7.401   3.506
 6680WAT      O27439   2.391   7.229   3.435
 6680WAT     H127440   2.428   7.291   3.386
 6680WAT     H227441   2.458   7.182   3.464
 6680WAT    EPW27442   2.406   7.231   3.432
 6681WAT      O27443   2.168   7.074   3.363
 6681WAT     H127444   2.176   7.057   3.277
 6681WAT     H227445   2.243   7.115   3.382
 6681WAT    EPW27446   2.180   7.077   3.353
 6682WAT      O27447   3.724   7.338   2.407
 6682WAT     H127448   3.734   7.332   2.320
 6682WAT     H227449   3.798   7.305   2.438
 6682WAT    EPW27450   3.736   7.332   2.399
 6683WAT      O27451   2.423   6.815   3.604
 6683WAT     H127452   2.415   6.731   3.624
 6683WAT     H227453   2.392   6.819   3.522
 6683WAT    EPW27454   2.418   6.803   3.595
 6684WAT      O27455   3.634   7.353   3.342
 6684WAT     H127456   3.634   7.266   3.355
 6684WAT     H227457   3.641   7.385   3.423
 6684WAT    EPW27458   3.635   7.345   3.356
 6685WAT      O27459   2.253   7.190   2.047
 6685WAT     H127460   2.186   7.192   2.102
 6685WAT     H227461   2.263   7.105   2.028
 6685WAT    EPW27462   2.245   7.178   2.052
 6686WAT      O27463   3.222   6.833   3.720
 6686WAT     H127464   3.231   6.904   3.770
 6686WAT     H227465   3.158   6.788   3.760
 6686WAT    EPW27466   3.214   6.836   3.734
 6687WAT      O27467   3.121   6.852   2.806
 6687WAT     H127468   3.051   6.903   2.800
 6687WAT     H227469   3.125   6.814   2.727
 6687WAT    EPW27470   3.112   6.854   2.793
 6688WAT      O27471   3.481   6.903   3.086
 6688WAT     H127472   3.567   6.913   3.100
 6688WAT     H227473   3.444   6.958   3.142
 6688WAT    EPW27474   3.488   6.913   3.096
 6689WAT      O27475   3.512   7.431   2.935
 6689WAT     H127476   3.578   7.485   2.951
 6689WAT     H227477   3.477   7.462   2.861
 6689WAT    EPW27478   3.516   7.444   2.926
 6690WAT      O27479   2.627   6.823   3.269
 6690WAT     H127480   2.541   6.832   3.277
 6690WAT     H227481   2.649   6.772   3.335
 6690WAT    EPW27482   2.617   6.817   3.280
 6691WAT      O27483   3.829   6.687   3.401
 6691WAT     H127484   3.824   6.683   3.488
 6691WAT     H227485   3.897   6.637   3.382
 6691WAT    EPW27486   3.838   6.679   3.411
 6692WAT      O27487   3.037   6.898   3.106
 6692WAT     H127488   2.964   6.853   3.117
 6692WAT     H227489   3.094   6.858   3.158
 6692WAT    EPW27490   3.035   6.886   3.115
 6693WAT      O27491   2.788   7.331   3.626
 6693WAT     H127492   2.755   7.274   3.569
 6693WAT     H227493   2.752   7.407   3.602
 6693WAT    EPW27494   2.778   7.334   3.614
 6694WAT      O27495   2.867   6.656   2.089
 6694WAT     H127496   2.875   6.681   2.006
 6694WAT     H227497   2.793   6.694   2.115
 6694WAT    EPW27498   2.857   6.666   2.081
 6695WAT      O27499   2.349   6.832   3.333
 6695WAT     H127500   2.315   6.755   3.310
 6695WAT     H227501   2.279   6.884   3.340
 6695WAT    EPW27502   2.334   6.828   3.331
 6696WAT      O27503   3.254   6.717   3.031
 6696WAT     H127504   3.321   6.772   3.044
 6696WAT     H227505   3.203   6.760   2.974
 6696WAT    EPW27506   3.256   6.732   3.024
 6697WAT      O27507   3.189   7.298   2.780
 6697WAT     H127508   3.245   7.237   2.810
 6697WAT     H227509   3.147   7.324   2.852
 6697WAT    EPW27510   3.191   7.293   2.795
 6698WAT      O27511   2.214   7.163   2.729
 6698WAT     H127512   2.177   7.193   2.802
 6698WAT     H227513   2.268   7.100   2.757
 6698WAT    EPW27514   2.217   7.158   2.744
 6699WAT      O27515   3.386   7.481   2.437
 6699WAT     H127516   3.393   7.396   2.455
 6699WAT     H227517   3.304   7.490   2.409
 6699WAT    EPW27518   3.375   7.470   2.435
 6700WAT      O27519   3.776   7.075   3.825
 6700WAT     H127520   3.757   7.139   3.881
 6700WAT     H227521   3.704   7.026   3.825
 6700WAT    EPW27522   3.763   7.077   3.834
 6701WAT      O27523   3.766   7.169   3.123
 6701WAT     H127524   3.683   7.194   3.115
 6701WAT     H227525   3.761   7.085   3.145
 6701WAT    EPW27526   3.753   7.160   3.125
 6702WAT      O27527   2.692   6.868   3.642
 6702WAT     H127528   2.716   6.810   3.581
 6702WAT     H227529   2.608   6.850   3.656
 6702WAT    EPW27530   2.683   6.857   3.635
 6703WAT      O27531   3.131   6.688   0.677
 6703WAT     H127532   3.107   6.737   0.609
 6703WAT     H227533   3.218   6.681   0.667
 6703WAT    EPW27534   3.140   6.694   0.666
 6704WAT      O27535   3.112   7.380   1.145
 6704WAT     H127536   3.060   7.439   1.181
 6704WAT     H227537   3.152   7.343   1.213
 6704WAT    EPW27538   3.110   7.383   1.160
 6705WAT      O27539   2.073   7.173   0.341
 6705WAT     H127540   1.996   7.189   0.305
 6705WAT     H227541   2.077   7.086   0.343
 6705WAT    EPW27542   2.063   7.162   0.336
 6706WAT      O27543   3.379   7.486   0.812
 6706WAT     H127544   3.387   7.487   0.725
 6706WAT     H227545   3.321   7.423   0.827
 6706WAT    EPW27546   3.372   7.477   0.802
 6707WAT      O27547   2.778   6.797   0.593
 6707WAT     H127548   2.771   6.865   0.538
 6707WAT     H227549   2.852   6.758   0.568
 6707WAT    EPW27550   2.788   6.801   0.581
 6708WAT      O27551   2.238   7.519   0.736
 6708WAT     H127552   2.192   7.480   0.673
 6708WAT     H227553   2.308   7.468   0.745
 6708WAT    EPW27554   2.241   7.506   0.728
 6709WAT      O27555   2.689   7.080   1.271
 6709WAT     H127556   2.756   7.082   1.216
 6709WAT     H227557   2.684   6.997   1.295
 6709WAT    EPW27558   2.698   7.068   1.266
 6710WAT      O27559   2.438   7.329   0.738
 6710WAT     H127560   2.520   7.311   0.762
 6710WAT     H227561   2.390   7.268   0.778
 6710WAT    EPW27562   2.443   7.318   0.748
 6711WAT      O27563   3.061   7.285   1.754
 6711WAT     H127564   2.976   7.276   1.736
 6711WAT     H227565   3.064   7.360   1.800
 6711WAT    EPW27566   3.049   7.295   1.758
 6712WAT      O27567   2.498   6.839   0.665
 6712WAT     H127568   2.468   6.889   0.600
 6712WAT     H227569   2.584   6.847   0.659
 6712WAT    EPW27570   2.506   6.847   0.654
 6713WAT      O27571   3.517   6.581   1.666
 6713WAT     H127572   3.501   6.658   1.627
 6713WAT     H227573   3.439   6.559   1.700
 6713WAT    EPW27574   3.503   6.590   1.665
 6714WAT      O27575   2.795   6.753   0.887
 6714WAT     H127576   2.803   6.839   0.900
 6714WAT     H227577   2.792   6.745   0.800
 6714WAT    EPW27578   2.796   6.765   0.876
 6715WAT      O27579   2.083   7.295   1.037
 6715WAT     H127580   2.058   7.379   1.030
 6715WAT     H227581   2.017   7.257   1.079
 6715WAT    EPW27582   2.070   7.302   1.042
 6716WAT      O27583   2.386   6.777   1.086
 6716WAT     H127584   2.334   6.714   1.055
 6716WAT     H227585   2.445   6.733   1.133
 6716WAT    EPW27586   2.387   6.761   1.089
 6717WAT      O27587   2.717   6.990   2.016
 6717WAT     H127588   2.729   6.945   1.942
 6717WAT     H227589   2.746   7.070   1.996
 6717WAT    EPW27590   2.723   6.996   2.002
 6718WAT      O27591   3.802   7.043   0.746
 6718WAT     H127592   3.768   7.111   0.789
 6718WAT     H227593   3.739   6.983   0.748
 6718WAT    EPW27594   3.788   7.044   0.753
 6719WAT      O27595   2.290   6.950   1.914
 6719WAT     H127596   2.212   6.911   1.907
 6719WAT     H227597   2.339   6.909   1.855
 6719WAT    EPW27598   2.286   6.938   1.905
 6720WAT      O27599   2.955   6.714   1.831
 6720WAT     H127600   2.973   6.634   1.804
 6720WAT     H227601   2.941   6.759   1.757
 6720WAT    EPW27602   2.956   6.709   1.816
 6721WAT      O27603   3.014   7.207   0.709
 6721WAT     H127604   3.043   7.184   0.630
 6721WAT     H227605   3.088   7.215   0.755
 6721WAT    EPW27606   3.029   7.205   0.704
 6722WAT      O27607   3.087   7.241   0.221
 6722WAT     H127608   3.115   7.320   0.246
 6722WAT     H227609   3.009   7.257   0.184
 6722WAT    EPW27610   3.079   7.255   0.219
 6723WAT      O27611   3.770   6.875   1.283
 6723WAT     H127612   3.845   6.882   1.241
 6723WAT     H227613   3.776   6.798   1.323
 6723WAT    EPW27614   3.782   6.865   1.283
 6724WAT      O27615   2.025   7.005   1.673
 6724WAT     H127616   2.025   7.064   1.738
 6724WAT     H227617   2.084   7.036   1.617
 6724WAT    EPW27618   2.034   7.018   1.674
 6725WAT      O27619   3.323   6.848   0.308
 6725WAT     H127620   3.377   6.779   0.315
 6725WAT     H227621   3.329   6.887   0.385
 6725WAT    EPW27622   3.332   6.843   0.320
 6726WAT      O27623   2.119   6.964   0.565
 6726WAT     H127624   2.107   6.878   0.568
 6726WAT     H227625   2.071   6.994   0.632
 6726WAT    EPW27626   2.110   6.956   0.575
 6727WAT      O27627   3.049   7.085   0.439
 6727WAT     H127628   2.998   7.019   0.414
 6727WAT     H227629   3.054   7.136   0.368
 6727WAT    EPW27630   3.042   7.083   0.425
 6728WAT      O27631   3.049   6.779   0.428
 6728WAT     H127632   3.004   6.739   0.366
 6728WAT     H227633   3.126   6.795   0.391
 6728WAT    EPW27634   3.054   6.776   0.413
 6729WAT      O27635   2.909   7.016   0.880
 6729WAT     H127636   2.916   7.073   0.815
 6729WAT     H227637   2.921   7.065   0.951
 6729WAT    EPW27638   2.912   7.032   0.881
 6730WAT      O27639   2.370   6.598   0.715
 6730WAT     H127640   2.423   6.667   0.714
 6730WAT     H227641   2.370   6.571   0.632
 6730WAT    EPW27642   2.378   6.604   0.703
 6731WAT      O27643   3.288   7.033   1.469
 6731WAT     H127644   3.279   7.065   1.550
 6731WAT     H227645   3.229   6.969   1.465
 6731WAT    EPW27646   3.278   7.028   1.481
 6732WAT      O27647   3.414   6.627   0.753
 6732WAT     H127648   3.419   6.596   0.834
 6732WAT     H227649   3.446   6.563   0.703
 6732WAT    EPW27650   3.419   6.613   0.757
 6733WAT      O27651   3.660   7.051   1.584
 6733WAT     H127652   3.737   7.029   1.617
 6733WAT     H227653   3.613   7.073   1.654
 6733WAT    EPW27654   3.664   7.051   1.599
 6734WAT      O27655   2.414   6.979   0.881
 6734WAT     H127656   2.442   6.936   0.810
 6734WAT     H227657   2.397   6.916   0.938
 6734WAT    EPW27658   2.416   6.964   0.879
 6735WAT      O27659   2.229   7.090   1.189
 6735WAT     H127660   2.313   7.112   1.184
 6735WAT     H227661   2.190   7.147   1.136
 6735WAT    EPW27662   2.235   7.101   1.180
 6736WAT      O27663   3.473   7.403   0.261
 6736WAT     H127664   3.451   7.476   0.219
 6736WAT     H227665   3.428   7.408   0.336
 6736WAT    EPW27666   3.463   7.414   0.266
 6737WAT      O27667   3.891   6.889   0.206
 6737WAT     H127668   3.825   6.832   0.208
 6737WAT     H227669   3.872   6.940   0.138
 6737WAT    EPW27670   3.879   6.888   0.196
 6738WAT      O27671   2.814   7.258   2.001
 6738WAT     H127672   2.766   7.316   2.045
 6738WAT     H227673   2.811   7.288   1.918
 6738WAT    EPW27674   2.806   7.271   1.995
 6739WAT      O27675   3.924   7.326   1.462
 6739WAT     H127676   3.945   7.246   1.434
 6739WAT     H227677   3.839   7.332   1.443
 6739WAT    EPW27678   3.914   7.316   1.455
 6740WAT      O27679   3.692   6.844   0.434
 6740WAT     H127680   3.766   6.804   0.454
 6740WAT     H227681   3.718   6.916   0.392
 6740WAT    EPW27682   3.707   6.849   0.431
 6741WAT      O27683   3.337   7.073   0.941
 6741WAT     H127684   3.371   7.088   1.020
 6741WAT     H227685   3.292   6.999   0.953
 6741WAT    EPW27686   3.335   7.065   0.955
 6742WAT      O27687   2.785   6.995   0.387
 6742WAT     H127688   2.784   6.984   0.301
 6742WAT     H227689   2.767   7.080   0.396
 6742WAT    EPW27690   2.782   7.006   0.376
 6743WAT      O27691   2.371   7.339   1.836
 6743WAT     H127692   2.318   7.288   1.883
 6743WAT     H227693   2.373   7.300   1.758
 6743WAT    EPW27694   2.364   7.325   1.832
 6744WAT      O27695   2.420   7.278   0.350
 6744WAT     H127696   2.407   7.234   0.424
 6744WAT     H227697   2.362   7.244   0.295
 6744WAT    EPW27698   2.409   7.267   0.353
 6745WAT      O27699   2.437   7.461   1.010
 6745WAT     H127700   2.359   7.456   0.972
 6745WAT     H227701   2.444   7.386   1.054
 6745WAT    EPW27702   2.426   7.450   1.011
 6746WAT      O27703   2.480   7.435   1.357
 6746WAT     H127704   2.482   7.368   1.302
 6746WAT     H227705   2.415   7.485   1.326
 6746WAT    EPW27706   2.471   7.432   1.344
 6747WAT      O27707   3.469   7.206   1.197
 6747WAT     H127708   3.403   7.239   1.243
 6747WAT     H227709   3.488   7.270   1.140
 6747WAT    EPW27710   3.462   7.221   1.195
 6748WAT      O27711   3.134   6.797   1.540
 6748WAT     H127712   3.149   6.715   1.515
 6748WAT     H227713   3.172   6.803   1.618
 6748WAT    EPW27714   3.141   6.786   1.548
 6749WAT      O27715   3.288   7.003   0.548
 6749WAT     H127716   3.337   7.075   0.540
 6749WAT     H227717   3.209   7.029   0.522
 6749WAT    EPW27718   3.284   7.018   0.543
 6750WAT      O27719   2.947   7.150   1.120
 6750WAT     H127720   2.995   7.220   1.141
 6750WAT     H227721   2.984   7.086   1.165
 6750WAT    EPW27722   2.959   7.151   1.130
 6751WAT      O27723   3.166   7.467   0.348
 6751WAT     H127724   3.165   7.539   0.299
 6751WAT     H227725   3.102   7.481   0.405
 6751WAT    EPW27726   3.156   7.480   0.349
 6752WAT      O27727   2.625   6.701   0.314
 6752WAT     H127728   2.635   6.691   0.400
 6752WAT     H227729   2.554   6.752   0.307
 6752WAT    EPW27730   2.616   6.707   0.326
 6753WAT      O27731   3.698   6.676   1.854
 6753WAT     H127732   3.634   6.636   1.809
 6753WAT     H227733   3.700   6.632   1.929
 6753WAT    EPW27734   3.689   6.663   1.858
 6754WAT      O27735   2.037   6.698   0.535
 6754WAT     H127736   2.050   6.627   0.486
 6754WAT     H227737   2.000   6.666   0.607
 6754WAT    EPW27738   2.033   6.683   0.538
 6755WAT      O27739   3.006   7.466   0.581
 6755WAT     H127740   3.012   7.531   0.639
 6755WAT     H227741   2.987   7.397   0.630
 6755WAT    EPW27742   3.004   7.466   0.596
 6756WAT      O27743   2.456   6.918   0.232
 6756WAT     H127744   2.405   6.923   0.161
 6756WAT     H227745   2.534   6.942   0.202
 6756WAT    EPW27746   2.460   6.922   0.217
 6757WAT      O27747   2.636   7.157   0.929
 6757WAT     H127748   2.721   7.138   0.939
 6757WAT     H227749   2.599   7.080   0.915
 6757WAT    EPW27750   2.643   7.143   0.928
 6758WAT      O27751   2.118   7.291   0.594
 6758WAT     H127752   2.167   7.262   0.660
 6758WAT     H227753   2.131   7.232   0.532
 6758WAT    EPW27754   2.127   7.278   0.595
 6759WAT      O27755   2.716   7.281   0.414
 6759WAT     H127756   2.743   7.363   0.421
 6759WAT     H227757   2.630   7.288   0.404
 6759WAT    EPW27758   2.708   7.294   0.413
 6760WAT      O27759   3.514   6.993   1.877
 6760WAT     H127760   3.461   7.039   1.930
 6760WAT     H227761   3.477   6.913   1.877
 6760WAT    EPW27762   3.500   6.988   1.885
 6761WAT      O27763   2.064   6.878   1.068
 6761WAT     H127764   2.069   6.912   0.987
 6761WAT     H227765   2.140   6.901   1.104
 6761WAT    EPW27766   2.076   6.886   1.061
 6762WAT      O27767   3.363   7.350   1.885
 6762WAT     H127768   3.370   7.360   1.971
 6762WAT     H227769   3.299   7.406   1.863
 6762WAT    EPW27770   3.354   7.360   1.894
 6763WAT      O27771   3.590   7.382   1.721
 6763WAT     H127772   3.621   7.460   1.742
 6763WAT     H227773   3.553   7.355   1.796
 6763WAT    EPW27774   3.589   7.389   1.735
 6764WAT      O27775   3.569   7.208   0.840
 6764WAT     H127776   3.495   7.175   0.872
 6764WAT     H227777   3.569   7.290   0.868
 6764WAT    EPW27778   3.558   7.215   0.849
 6765WAT      O27779   3.859   7.436   1.995
 6765WAT     H127780   3.854   7.402   1.915
 6765WAT     H227781   3.933   7.483   1.993
 6765WAT    EPW27782   3.869   7.438   1.983
 6766WAT      O27783   3.460   6.841   1.586
 6766WAT     H127784   3.535   6.886   1.580
 6766WAT     H227785   3.404   6.888   1.539
 6766WAT    EPW27786   3.463   6.854   1.578
 6767WAT      O27787   2.649   7.129   1.568
 6767WAT     H127788   2.665   7.055   1.611
 6767WAT     H227789   2.645   7.104   1.485
 6767WAT    EPW27790   2.651   7.115   1.562
 6768WAT      O27791   3.589   6.639   1.353
 6768WAT     H127792   3.561   6.721   1.349
 6768WAT     H227793   3.660   6.644   1.403
 6768WAT    EPW27794   3.595   6.652   1.360
 6769WAT      O27795   2.824   6.710   1.556
 6769WAT     H127796   2.895   6.742   1.516
 6769WAT     H227797   2.848   6.629   1.579
 6769WAT    EPW27798   2.838   6.703   1.554
 6770WAT      O27799   3.731   7.264   0.239
 6770WAT     H127800   3.769   7.332   0.199
 6770WAT     H227801   3.647   7.286   0.242
 6770WAT    EPW27802   3.724   7.277   0.233
 6771WAT      O27803   2.475   7.215   1.162
 6771WAT     H127804   2.519   7.205   1.088
 6771WAT     H227805   2.530   7.184   1.223
 6771WAT    EPW27806   2.490   7.209   1.160
 6772WAT      O27807   3.277   7.126   1.721
 6772WAT     H127808   3.212   7.173   1.756
 6772WAT     H227809   3.333   7.117   1.787
 6772WAT    EPW27810   3.276   7.131   1.736
 6773WAT      O27811   3.246   7.279   1.351
 6773WAT     H127812   3.276   7.321   1.422
 6773WAT     H227813   3.249   7.195   1.374
 6773WAT    EPW27814   3.251   7.273   1.365
 6774WAT      O27815   3.500   7.224   0.576
 6774WAT     H127816   3.521   7.204   0.659
 6774WAT     H227817   3.576   7.251   0.542
 6774WAT    EPW27818   3.515   7.225   0.584
 6775WAT      O27819   2.830   6.714   1.167
 6775WAT     H127820   2.747   6.699   1.191
 6775WAT     H227821   2.826   6.717   1.080
 6775WAT    EPW27822   2.817   6.712   1.158
 6776WAT      O27823   3.603   6.832   0.724
 6776WAT     H127824   3.531   6.785   0.741
 6776WAT     H227825   3.586   6.866   0.645
 6776WAT    EPW27826   3.590   6.830   0.715
 6777WAT      O27827   2.086   6.754   1.770
 6777WAT     H127828   2.072   6.833   1.737
 6777WAT     H227829   2.008   6.729   1.799
 6777WAT    EPW27830   2.073   6.762   1.770
 6778WAT      O27831   2.393   7.028   0.493
 6778WAT     H127832   2.405   6.995   0.413
 6778WAT     H227833   2.312   7.003   0.513
 6778WAT    EPW27834   2.383   7.020   0.484
 6779WAT      O27835   3.861   7.343   1.738
 6779WAT     H127836   3.775   7.331   1.750
 6779WAT     H227837   3.876   7.304   1.661
 6779WAT    EPW27838   3.850   7.336   1.728
 6780WAT      O27839   3.312   7.410   1.595
 6780WAT     H127840   3.286   7.338   1.637
 6780WAT     H227841   3.394   7.422   1.622
 6780WAT    EPW27842   3.320   7.401   1.605
 6781WAT      O27843   2.391   7.229   1.535
 6781WAT     H127844   2.428   7.291   1.486
 6781WAT     H227845   2.458   7.182   1.563
 6781WAT    EPW27846   2.406   7.231   1.532
 6782WAT      O27847   2.168   7.074   1.462
 6782WAT     H127848   2.176   7.057   1.377
 6782WAT     H227849   2.243   7.115   1.482
 6782WAT    EPW27850   2.180   7.077   1.452
 6783WAT      O27851   3.724   7.338   0.506
 6783WAT     H127852   3.734   7.332   0.420
 6783WAT     H227853   3.798   7.305   0.538
 6783WAT    EPW27854   3.736   7.332   0.498
 6784WAT      O27855   2.423   6.815   1.703
 6784WAT     H127856   2.415   6.731   1.724
 6784WAT     H227857   2.392   6.819   1.622
 6784WAT    EPW27858   2.418   6.803   1.694
 6785WAT      O27859   3.634   7.353   1.442
 6785WAT     H127860   3.634   7.266   1.454
 6785WAT     H227861   3.641   7.385   1.522
 6785WAT    EPW27862   3.635   7.345   1.455
 6786WAT      O27863   3.222   6.833   1.820
 6786WAT     H127864   3.231   6.904   1.869
 6786WAT     H227865   3.158   6.788   1.860
 6786WAT    EPW27866   3.214   6.836   1.833
 6787WAT      O27867   3.121   6.852   0.905
 6787WAT     H127868   3.051   6.903   0.900
 6787WAT     H227869   3.125   6.814   0.827
 6787WAT    EPW27870   3.112   6.854   0.893
 6788WAT      O27871   3.481   6.903   1.185
 6788WAT     H127872   3.567   6.913   1.200
 6788WAT     H227873   3.444   6.958   1.242
 6788WAT    EPW27874   3.488   6.913   1.196
 6789WAT      O27875   3.512   7.431   1.034
 6789WAT     H127876   3.578   7.485   1.050
 6789WAT     H227877   3.477   7.462   0.960
 6789WAT    EPW27878   3.516   7.444   1.026
 6790WAT      O27879   2.627   6.823   1.368
 6790WAT     H127880   2.541   6.832   1.376
 6790WAT     H227881   2.649   6.772   1.435
 6790WAT    EPW27882   2.617   6.817   1.379
 6791WAT      O27883   3.829   6.687   1.501
 6791WAT     H127884   3.824   6.683   1.588
 6791WAT     H227885   3.897   6.637   1.482
 6791WAT    EPW27886   3.838   6.679   1.511
 6792WAT      O27887   3.037   6.898   1.205
 6792WAT     H127888   2.964   6.853   1.217
 6792WAT     H227889   3.094   6.858   1.258
 6792WAT    EPW27890   3.035   6.886   1.215
 6793WAT      O27891   2.788   7.331   1.726
 6793WAT     H127892   2.755   7.274   1.669
 6793WAT     H227893   2.752   7.407   1.701
 6793WAT    EPW27894   2.778   7.334   1.714
 6794WAT      O27895   2.349   6.832   1.433
 6794WAT     H127896   2.315   6.755   1.409
 6794WAT     H227897   2.279   6.884   1.439
 6794WAT    EPW27898   2.334   6.828   1.430
 6795WAT      O27899   3.254   6.717   1.130
 6795WAT     H127900   3.321   6.772   1.143
 6795WAT     H227901   3.203   6.760   1.073
 6795WAT    EPW27902   3.256   6.732   1.124
 6796WAT      O27903   3.189   7.298   0.880
 6796WAT     H127904   3.245   7.237   0.910
 6796WAT     H227905   3.147   7.324   0.951
 6796WAT    EPW27906   3.191   7.293   0.895
 6797WAT      O27907   2.214   7.163   0.828
 6797WAT     H127908   2.177   7.193   0.901
 6797WAT     H227909   2.268   7.100   0.857
 6797WAT    EPW27910   2.217   7.158   0.843
 6798WAT      O27911   3.386   7.481   0.536
 6798WAT     H127912   3.393   7.396   0.554
 6798WAT     H227913   3.304   7.490   0.508
 6798WAT    EPW27914   3.375   7.470   0.535
 6799WAT      O27915   3.776   7.075   1.925
 6799WAT     H127916   3.757   7.139   1.980
 6799WAT     H227917   3.704   7.026   1.924
 6799WAT    EPW27918   3.763   7.077   1.933
 6800WAT      O27919   3.766   7.169   1.222
 6800WAT     H127920   3.683   7.194   1.215
 6800WAT     H227921   3.761   7.085   1.245
 6800WAT    EPW27922   3.753   7.160   1.224
 6801WAT      O27923   2.692   6.868   1.741
 6801WAT     H127924   2.716   6.810   1.680
 6801WAT     H227925   2.608   6.850   1.755
 6801WAT    EPW27926   2.683   6.857   1.734
 6802WAT      O27927   3.131   4.840   6.379
 6802WAT     H127928   3.107   4.889   6.311
 6802WAT     H227929   3.218   4.833   6.369
 6802WAT    EPW27930   3.140   4.846   6.368
 6803WAT      O27931   3.112   5.532   6.846
 6803WAT     H127932   3.060   5.592   6.883
 6803WAT     H227933   3.152   5.495   6.915
 6803WAT    EPW27934   3.110   5.535   6.862
 6804WAT      O27935   2.099   5.946   6.392
 6804WAT     H127936   2.055   5.958   6.466
 6804WAT     H227937   2.071   5.868   6.363
 6804WAT    EPW27938   2.088   5.936   6.399
 6805WAT      O27939   3.727   6.276   6.143
 6805WAT     H127940   3.797   6.224   6.143
 6805WAT     H227941   3.668   6.232   6.097
 6805WAT    EPW27942   3.728   6.262   6.136
 6806WAT      O27943   2.073   5.325   6.043
 6806WAT     H127944   1.996   5.341   6.007
 6806WAT     H227945   2.077   5.238   6.045
 6806WAT    EPW27946   2.063   5.315   6.038
 6807WAT      O27947   2.387   5.851   5.910
 6807WAT     H127948   2.348   5.814   5.841
 6807WAT     H227949   2.379   5.792   5.973
 6807WAT    EPW27950   2.380   5.837   5.909
 6808WAT      O27951   3.379   5.639   6.514
 6808WAT     H127952   3.387   5.639   6.427
 6808WAT     H227953   3.321   5.575   6.529
 6808WAT    EPW27954   3.372   5.629   6.503
 6809WAT      O27955   2.350   6.016   6.300
 6809WAT     H127956   2.411   5.999   6.360
 6809WAT     H227957   2.275   6.002   6.342
 6809WAT    EPW27958   2.348   6.011   6.315
 6810WAT      O27959   2.778   4.949   6.295
 6810WAT     H127960   2.771   5.017   6.240
 6810WAT     H227961   2.852   4.910   6.270
 6810WAT    EPW27962   2.788   4.953   6.283
 6811WAT      O27963   2.239   6.325   5.908
 6811WAT     H127964   2.286   6.333   5.834
 6811WAT     H227965   2.285   6.267   5.954
 6811WAT    EPW27966   2.253   6.317   5.904
 6812WAT      O27967   2.093   6.219   7.017
 6812WAT     H127968   2.106   6.191   7.099
 6812WAT     H227969   2.032   6.165   6.987
 6812WAT    EPW27970   2.086   6.207   7.025
 6813WAT      O27971   2.751   5.972   7.524
 6813WAT     H127972   2.727   5.972   7.608
 6813WAT     H227973   2.676   5.957   7.482
 6813WAT    EPW27974   2.736   5.970   7.530
 6814WAT      O27975   2.238   5.672   6.438
 6814WAT     H127976   2.192   5.632   6.375
 6814WAT     H227977   2.308   5.620   6.447
 6814WAT    EPW27978   2.241   5.658   6.430
 6815WAT      O27979   2.689   5.233   6.972
 6815WAT     H127980   2.756   5.234   6.917
 6815WAT     H227981   2.684   5.149   6.997
 6815WAT    EPW27982   2.698   5.220   6.968
 6816WAT      O27983   2.749   6.291   7.250
 6816WAT     H127984   2.763   6.367   7.210
 6816WAT     H227985   2.828   6.255   7.253
 6816WAT    EPW27986   2.762   6.297   7.245
 6817WAT      O27987   2.438   5.482   6.440
 6817WAT     H127988   2.520   5.463   6.464
 6817WAT     H227989   2.390   5.420   6.480
 6817WAT    EPW27990   2.443   5.470   6.449
 6818WAT      O27991   2.858   6.080   6.701
 6818WAT     H127992   2.893   6.000   6.704
 6818WAT     H227993   2.925   6.130   6.675
 6818WAT    EPW27994   2.873   6.075   6.698
 6819WAT      O27995   2.864   6.025   6.322
 6819WAT     H127996   2.897   5.960   6.371
 6819WAT     H227997   2.888   6.003   6.241
 6819WAT    EPW27998   2.872   6.012   6.317
 6820WAT      O27999   3.061   5.438   7.456
 6820WAT     H128000   2.976   5.428   7.438
 6820WAT     H228001   3.064   5.512   7.501
 6820WAT    EPW28002   3.049   5.447   7.460
 6821WAT      O28003   2.498   4.991   6.367
 6821WAT     H128004   2.468   5.041   6.302
 6821WAT     H228005   2.584   4.999   6.361
 6821WAT    EPW28006   2.506   5.000   6.356
 6822WAT      O28007   3.517   4.734   7.367
 6822WAT     H128008   3.501   4.811   7.329
 6822WAT     H228009   3.439   4.712   7.402
 6822WAT    EPW28010   3.503   4.742   7.367
 6823WAT      O28011   2.795   4.905   6.589
 6823WAT     H128012   2.803   4.991   6.602
 6823WAT     H228013   2.792   4.898   6.502
 6823WAT    EPW28014   2.796   4.917   6.578
 6824WAT      O28015   3.263   5.198   5.819
 6824WAT     H128016   3.218   5.266   5.849
 6824WAT     H228017   3.274   5.147   5.889
 6824WAT    EPW28018   3.258   5.200   5.834
 6825WAT      O28019   2.083   5.448   6.739
 6825WAT     H128020   2.058   5.531   6.731
 6825WAT     H228021   2.017   5.409   6.781
 6825WAT    EPW28022   2.070   5.454   6.744
 6826WAT      O28023   2.074   6.419   6.529
 6826WAT     H128024   2.015   6.474   6.498
 6826WAT     H228025   2.117   6.392   6.458
 6826WAT    EPW28026   2.072   6.423   6.514
 6827WAT      O28027   2.658   6.203   6.277
 6827WAT     H128028   2.600   6.176   6.336
 6827WAT     H228029   2.721   6.142   6.279
 6827WAT    EPW28030   2.659   6.190   6.286
 6828WAT      O28031   3.273   6.432   6.029
 6828WAT     H128032   3.345   6.479   6.039
 6828WAT     H228033   3.296   6.352   6.057
 6828WAT    EPW28034   3.287   6.427   6.035
 6829WAT      O28035   3.089   6.471   6.228
 6829WAT     H128036   3.111   6.524   6.294
 6829WAT     H228037   3.166   6.454   6.190
 6829WAT    EPW28038   3.104   6.476   6.232
 6830WAT      O28039   2.386   4.929   6.788
 6830WAT     H128040   2.334   4.867   6.757
 6830WAT     H228041   2.445   4.886   6.835
 6830WAT    EPW28042   2.387   4.914   6.790
 6831WAT      O28043   2.229   6.286   6.322
 6831WAT     H128044   2.294   6.228   6.324
 6831WAT     H228045   2.268   6.361   6.300
 6831WAT    EPW28046   2.244   6.288   6.319
 6832WAT      O28047   3.802   5.195   6.448
 6832WAT     H128048   3.768   5.263   6.491
 6832WAT     H228049   3.739   5.135   6.450
 6832WAT    EPW28050   3.788   5.196   6.455
 6833WAT      O28051   3.333   6.472   7.059
 6833WAT     H128052   3.408   6.518   7.058
 6833WAT     H228053   3.321   6.451   6.975
 6833WAT    EPW28054   3.343   6.476   7.046
 6834WAT      O28055   2.290   5.102   7.616
 6834WAT     H128056   2.212   5.063   7.609
 6834WAT     H228057   2.339   5.061   7.557
 6834WAT    EPW28058   2.286   5.090   7.606
 6835WAT      O28059   2.311   6.134   6.672
 6835WAT     H128060   2.353   6.099   6.605
 6835WAT     H228061   2.343   6.092   6.741
 6835WAT    EPW28062   2.322   6.123   6.672
 6836WAT      O28063   2.634   6.420   6.602
 6836WAT     H128064   2.718   6.430   6.582
 6836WAT     H228065   2.604   6.501   6.608
 6836WAT    EPW28066   2.642   6.433   6.600
 6837WAT      O28067   2.955   4.867   7.533
 6837WAT     H128068   2.973   4.786   7.506
 6837WAT     H228069   2.941   4.911   7.459
 6837WAT    EPW28070   2.956   4.861   7.518
 6838WAT      O28071   3.014   5.359   6.410
 6838WAT     H128072   3.043   5.336   6.331
 6838WAT     H228073   3.088   5.367   6.457
 6838WAT    EPW28074   3.029   5.357   6.406
 6839WAT      O28075   3.491   6.591   6.069
 6839WAT     H128076   3.557   6.576   6.015
 6839WAT     H228077   3.527   6.582   6.148
 6839WAT    EPW28078   3.506   6.587   6.073
 6840WAT      O28079   2.534   6.541   7.176
 6840WAT     H128080   2.563   6.535   7.258
 6840WAT     H228081   2.471   6.481   7.171
 6840WAT    EPW28082   2.529   6.532   7.187
 6841WAT      O28083   3.770   5.027   6.985
 6841WAT     H128084   3.845   5.035   6.942
 6841WAT     H228085   3.776   4.950   7.025
 6841WAT    EPW28086   3.782   5.017   6.985
 6842WAT      O28087   2.025   5.157   7.375
 6842WAT     H128088   2.025   5.216   7.439
 6842WAT     H228089   2.084   5.188   7.319
 6842WAT    EPW28090   2.034   5.170   7.376
 6843WAT      O28091   3.259   6.191   7.429
 6843WAT     H128092   3.255   6.229   7.507
 6843WAT     H228093   3.344   6.186   7.412
 6843WAT    EPW28094   3.271   6.196   7.438
 6844WAT      O28095   2.973   6.210   5.904
 6844WAT     H128096   2.954   6.265   5.970
 6844WAT     H228097   3.049   6.239   5.874
 6844WAT    EPW28098   2.981   6.223   5.909
 6845WAT      O28099   3.323   5.000   6.009
 6845WAT     H128100   3.377   4.932   6.017
 6845WAT     H228101   3.329   5.040   6.087
 6845WAT    EPW28102   3.332   4.996   6.022
 6846WAT      O28103   2.119   5.117   6.266
 6846WAT     H128104   2.107   5.030   6.269
 6846WAT     H228105   2.071   5.146   6.333
 6846WAT    EPW28106   2.110   5.108   6.277
 6847WAT      O28107   2.333   6.358   7.088
 6847WAT     H128108   2.263   6.307   7.100
 6847WAT     H228109   2.359   6.337   7.007
 6847WAT    EPW28110   2.326   6.347   7.078
 6848WAT      O28111   3.049   5.237   6.141
 6848WAT     H128112   2.998   5.171   6.115
 6848WAT     H228113   3.054   5.288   6.070
 6848WAT    EPW28114   3.042   5.235   6.127
 6849WAT      O28115   3.104   6.507   7.179
 6849WAT     H128116   3.181   6.499   7.138
 6849WAT     H228117   3.046   6.495   7.115
 6849WAT    EPW28118   3.107   6.504   7.163
 6850WAT      O28119   3.049   4.932   6.130
 6850WAT     H128120   3.004   4.891   6.067
 6850WAT     H228121   3.126   4.947   6.092
 6850WAT    EPW28122   3.054   4.928   6.115
 6851WAT      O28123   3.732   6.567   6.469
 6851WAT     H128124   3.686   6.639   6.489
 6851WAT     H228125   3.670   6.510   6.445
 6851WAT    EPW28126   3.716   6.569   6.468
 6852WAT      O28127   2.909   5.168   6.582
 6852WAT     H128128   2.916   5.225   6.516
 6852WAT     H228129   2.921   5.217   6.653
 6852WAT    EPW28130   2.912   5.184   6.583
 6853WAT      O28131   3.431   6.152   6.423
 6853WAT     H128132   3.501   6.104   6.442
 6853WAT     H228133   3.365   6.095   6.428
 6853WAT    EPW28134   3.432   6.136   6.427
 6854WAT      O28135   2.469   6.243   7.345
 6854WAT     H128136   2.553   6.249   7.322
 6854WAT     H228137   2.465   6.282   7.422
 6854WAT    EPW28138   2.481   6.250   7.353
 6855WAT      O28139   2.370   4.751   6.417
 6855WAT     H128140   2.423   4.819   6.416
 6855WAT     H228141   2.370   4.723   6.334
 6855WAT    EPW28142   2.378   4.757   6.405
 6856WAT      O28143   2.665   5.794   6.819
 6856WAT     H128144   2.682   5.773   6.902
 6856WAT     H228145   2.600   5.740   6.798
 6856WAT    EPW28146   2.658   5.783   6.829
 6857WAT      O28147   3.288   5.185   7.171
 6857WAT     H128148   3.279   5.217   7.252
 6857WAT     H228149   3.229   5.121   7.167
 6857WAT    EPW28150   3.278   5.180   7.182
 6858WAT      O28151   2.740   5.788   7.078
 6858WAT     H128152   2.746   5.872   7.099
 6858WAT     H228153   2.712   5.751   7.152
 6858WAT    EPW28154   2.737   5.795   7.092
 6859WAT      O28155   3.358   5.857   6.991
 6859WAT     H128156   3.307   5.816   7.049
 6859WAT     H228157   3.345   5.942   7.010
 6859WAT    EPW28158   3.349   5.864   7.003
 6860WAT      O28159   3.414   4.780   6.455
 6860WAT     H128160   3.419   4.748   6.536
 6860WAT     H228161   3.446   4.715   6.405
 6860WAT    EPW28162   3.419   4.765   6.459
 6861WAT      O28163   3.660   5.203   7.285
 6861WAT     H128164   3.737   5.181   7.319
 6861WAT     H228165   3.613   5.225   7.355
 6861WAT    EPW28166   3.664   5.203   7.301
 6862WAT      O28167   2.414   5.132   6.582
 6862WAT     H128168   2.442   5.089   6.512
 6862WAT     H228169   2.397   5.068   6.639
 6862WAT    EPW28170   2.416   5.116   6.580
 6863WAT      O28171   3.683   5.901   6.004
 6863WAT     H128172   3.695   5.872   6.086
 6863WAT     H228173   3.764   5.903   5.971
 6863WAT    EPW28174   3.697   5.897   6.011
 6864WAT      O28175   2.397   5.874   6.537
 6864WAT     H128176   2.482   5.866   6.520
 6864WAT     H228177   2.361   5.806   6.496
 6864WAT    EPW28178   2.404   5.863   6.529
 6865WAT      O28179   2.274   6.547   6.661
 6865WAT     H128180   2.206   6.497   6.636
 6865WAT     H228181   2.314   6.565   6.586
 6865WAT    EPW28182   2.270   6.542   6.646
 6866WAT      O28183   2.229   5.242   6.891
 6866WAT     H128184   2.313   5.264   6.886
 6866WAT     H228185   2.190   5.299   6.837
 6866WAT    EPW28186   2.235   5.253   6.882
 6867WAT      O28187   3.907   6.352   7.430
 6867WAT     H128188   3.838   6.383   7.385
 6867WAT     H228189   3.870   6.306   7.494
 6867WAT    EPW28190   3.891   6.350   7.432
 6868WAT      O28191   3.473   5.555   5.963
 6868WAT     H128192   3.451   5.628   5.920
 6868WAT     H228193   3.428   5.560   6.037
 6868WAT    EPW28194   3.463   5.566   5.967
 6869WAT      O28195   2.634   5.875   6.361
 6869WAT     H128196   2.705   5.924   6.370
 6869WAT     H228197   2.656   5.818   6.298
 6869WAT    EPW28198   2.647   5.874   6.353
 6870WAT      O28199   2.049   6.039   6.693
 6870WAT     H128200   1.983   6.088   6.720
 6870WAT     H228201   2.117   6.094   6.696
 6870WAT    EPW28202   2.049   6.054   6.697
 6871WAT      O28203   3.924   5.479   7.164
 6871WAT     H128204   3.945   5.399   7.136
 6871WAT     H228205   3.839   5.485   7.145
 6871WAT    EPW28206   3.914   5.468   7.157
 6872WAT      O28207   2.056   5.708   6.203
 6872WAT     H128208   2.037   5.624   6.218
 6872WAT     H228209   2.122   5.704   6.146
 6872WAT    EPW28210   2.063   5.695   6.197
 6873WAT      O28211   3.086   6.245   6.593
 6873WAT     H128212   3.034   6.309   6.564
 6873WAT     H228213   3.117   6.209   6.521
 6873WAT    EPW28214   3.083   6.249   6.578
 6874WAT      O28215   2.073   6.124   6.161
 6874WAT     H128216   2.128   6.181   6.197
 6874WAT     H228217   2.050   6.073   6.227
 6874WAT    EPW28218   2.078   6.125   6.176
 6875WAT      O28219   2.493   6.024   6.869
 6875WAT     H128220   2.540   6.053   6.937
 6875WAT     H228221   2.551   5.976   6.824
 6875WAT    EPW28222   2.509   6.021   6.873
 6876WAT      O28223   3.337   5.225   6.643
 6876WAT     H128224   3.371   5.241   6.722
 6876WAT     H228225   3.292   5.152   6.654
 6876WAT    EPW28226   3.335   5.217   6.656
 6877WAT      O28227   2.056   5.969   5.923
 6877WAT     H128228   2.132   5.926   5.929
 6877WAT     H228229   2.058   6.022   5.992
 6877WAT    EPW28230   2.067   5.970   5.934
 6878WAT      O28231   2.150   5.791   6.724
 6878WAT     H128232   2.193   5.778   6.649
 6878WAT     H228233   2.130   5.876   6.721
 6878WAT    EPW28234   2.153   5.802   6.712
 6879WAT      O28235   2.785   5.147   6.089
 6879WAT     H128236   2.784   5.136   6.002
 6879WAT     H228237   2.767   5.232   6.098
 6879WAT    EPW28238   2.782   5.158   6.077
 6880WAT      O28239   3.690   6.390   7.239
 6880WAT     H128240   3.623   6.442   7.260
 6880WAT     H228241   3.696   6.400   7.152
 6880WAT    EPW28242   3.681   6.399   7.229
 6881WAT      O28243   2.558   6.143   6.552
 6881WAT     H128244   2.571   6.227   6.571
 6881WAT     H228245   2.625   6.103   6.592
 6881WAT    EPW28246   2.570   6.149   6.561
 6882WAT      O28247   2.371   5.491   7.538
 6882WAT     H128248   2.318   5.440   7.585
 6882WAT     H228249   2.373   5.452   7.460
 6882WAT    EPW28250   2.364   5.478   7.534
 6883WAT      O28251   2.420   5.431   6.052
 6883WAT     H128252   2.407   5.386   6.126
 6883WAT     H228253   2.362   5.396   5.997
 6883WAT    EPW28254   2.409   5.419   6.055
 6884WAT      O28255   2.437   5.614   6.712
 6884WAT     H128256   2.359   5.608   6.674
 6884WAT     H228257   2.444   5.538   6.756
 6884WAT    EPW28258   2.426   5.602   6.713
 6885WAT      O28259   2.480   5.587   7.059
 6885WAT     H128260   2.482   5.520   7.004
 6885WAT     H228261   2.415   5.637   7.028
 6885WAT    EPW28262   2.471   5.585   7.046
 6886WAT      O28263   3.469   5.359   6.899
 6886WAT     H128264   3.403   5.391   6.945
 6886WAT     H228265   3.488   5.422   6.842
 6886WAT    EPW28266   3.462   5.373   6.897
 6887WAT      O28267   2.890   6.465   6.998
 6887WAT     H128268   2.862   6.401   6.946
 6887WAT     H228269   2.869   6.538   6.954
 6887WAT    EPW28270   2.883   6.466   6.984
 6888WAT      O28271   3.134   4.949   7.241
 6888WAT     H128272   3.149   4.867   7.217
 6888WAT     H228273   3.172   4.955   7.320
 6888WAT    EPW28274   3.141   4.938   7.249
 6889WAT      O28275   3.288   5.156   6.250
 6889WAT     H128276   3.337   5.227   6.242
 6889WAT     H228277   3.209   5.182   6.223
 6889WAT    EPW28278   3.284   5.170   6.245
 6890WAT      O28279   2.260   5.723   7.615
 6890WAT     H128280   2.256   5.773   7.543
 6890WAT     H228281   2.293   5.648   7.585
 6890WAT    EPW28282   2.264   5.719   7.600
 6891WAT      O28283   3.420   5.943   7.441
 6891WAT     H128284   3.468   6.015   7.450
 6891WAT     H228285   3.459   5.901   7.376
 6891WAT    EPW28286   3.433   5.948   7.432
 6892WAT      O28287   2.849   6.228   7.558
 6892WAT     H128288   2.885   6.210   7.636
 6892WAT     H228289   2.806   6.155   7.538
 6892WAT    EPW28290   2.848   6.214   7.567
 6893WAT      O28291   2.947   5.303   6.822
 6893WAT     H128292   2.995   5.372   6.843
 6893WAT     H228293   2.984   5.238   6.867
 6893WAT    EPW28294   2.959   5.303   6.832
 6894WAT      O28295   3.166   5.619   6.050
 6894WAT     H128296   3.165   5.692   6.001
 6894WAT     H228297   3.102   5.633   6.107
 6894WAT    EPW28298   3.156   5.632   6.051
 6895WAT      O28299   3.663   6.006   6.448
 6895WAT     H128300   3.698   5.971   6.519
 6895WAT     H228301   3.662   5.940   6.391
 6895WAT    EPW28302   3.668   5.991   6.450
 6896WAT      O28303   3.267   6.313   6.832
 6896WAT     H128304   3.207   6.283   6.776
 6896WAT     H228305   3.322   6.358   6.781
 6896WAT    EPW28306   3.266   6.315   6.816
 6897WAT      O28307   3.269   5.998   6.772
 6897WAT     H128308   3.189   6.021   6.799
 6897WAT     H228309   3.294   5.939   6.831
 6897WAT    EPW28310   3.261   5.993   6.785
 6898WAT      O28311   2.658   6.479   6.217
 6898WAT     H128312   2.643   6.402   6.254
 6898WAT     H228313   2.727   6.465   6.165
 6898WAT    EPW28314   2.666   6.466   6.215
 6899WAT      O28315   2.625   4.854   6.016
 6899WAT     H128316   2.635   4.843   6.102
 6899WAT     H228317   2.554   4.904   6.009
 6899WAT    EPW28318   2.616   4.860   6.027
 6900WAT      O28319   2.887   6.431   6.057
 6900WAT     H128320   2.949   6.447   6.116
 6900WAT     H228321   2.891   6.500   6.004
 6900WAT    EPW28322   2.897   6.444   6.058
 6901WAT      O28323   3.595   5.798   7.257
 6901WAT     H128324   3.600   5.810   7.170
 6901WAT     H228325   3.670   5.830   7.287
 6901WAT    EPW28326   3.606   5.804   7.248
 6902WAT      O28327   3.698   4.828   7.555
 6902WAT     H128328   3.634   4.788   7.511
 6902WAT     H228329   3.700   4.785   7.631
 6902WAT    EPW28330   3.689   4.816   7.560
 6903WAT      O28331   2.337   5.684   6.140
 6903WAT     H128332   2.369   5.606   6.118
 6903WAT     H228333   2.402   5.721   6.185
 6903WAT    EPW28334   2.351   5.678   6.143
 6904WAT      O28335   3.168   5.779   7.217
 6904WAT     H128336   3.152   5.840   7.277
 6904WAT     H228337   3.221   5.723   7.257
 6904WAT    EPW28338   3.173   5.779   7.232
 6905WAT      O28339   2.037   4.850   6.237
 6905WAT     H128340   2.050   4.780   6.188
 6905WAT     H228341   2.000   4.819   6.309
 6905WAT    EPW28342   2.033   4.835   6.240
 6906WAT      O28343   3.006   5.619   6.282
 6906WAT     H128344   3.012   5.684   6.340
 6906WAT     H228345   2.987   5.549   6.332
 6906WAT    EPW28346   3.004   5.618   6.298
 6907WAT      O28347   3.529   6.051   6.869
 6907WAT     H128348   3.481   6.081   6.803
 6907WAT     H228349   3.493   5.974   6.887
 6907WAT    EPW28350   3.516   6.044   6.862
 6908WAT      O28351   2.456   5.070   5.934
 6908WAT     H128352   2.405   5.076   5.863
 6908WAT     H228353   2.534   5.094   5.904
 6908WAT    EPW28354   2.460   5.075   5.919
 6909WAT      O28355   2.928   5.823   6.726
 6909WAT     H128356   2.844   5.804   6.734
 6909WAT     H228357   2.961   5.807   6.805
 6909WAT    EPW28358   2.921   5.818   6.738
 6910WAT      O28359   2.604   6.496   5.814
 6910WAT     H128360   2.647   6.427   5.843
 6910WAT     H228361   2.624   6.559   5.871
 6910WAT    EPW28362   2.613   6.495   5.827
 6911WAT      O28363   2.313   5.793   6.957
 6911WAT     H128364   2.385   5.841   6.953
 6911WAT     H228365   2.286   5.790   6.874
 6911WAT    EPW28366   2.320   5.799   6.944
 6912WAT      O28367   2.636   5.310   6.631
 6912WAT     H128368   2.721   5.291   6.640
 6912WAT     H228369   2.599   5.232   6.617
 6912WAT    EPW28370   2.643   5.295   6.630
 6913WAT      O28371   3.898   6.468   6.063
 6913WAT     H128372   3.967   6.421   6.039
 6913WAT     H228373   3.844   6.408   6.097
 6913WAT    EPW28374   3.900   6.452   6.065
 6914WAT      O28375   2.118   5.443   6.296
 6914WAT     H128376   2.167   5.414   6.362
 6914WAT     H228377   2.131   5.384   6.233
 6914WAT    EPW28378   2.127   5.430   6.297
 6915WAT      O28379   3.622   5.746   6.981
 6915WAT     H128380   3.621   5.668   7.021
 6915WAT     H228381   3.538   5.769   6.981
 6915WAT    EPW28382   3.609   5.738   6.987
 6916WAT      O28383   2.571   5.587   5.845
 6916WAT     H128384   2.510   5.546   5.892
 6916WAT     H228385   2.532   5.599   5.767
 6916WAT    EPW28386   2.556   5.583   5.840
 6917WAT      O28387   2.253   5.898   7.385
 6917WAT     H128388   2.211   5.846   7.329
 6917WAT     H228389   2.217   5.976   7.371
 6917WAT    EPW28390   2.241   5.902   7.375
 6918WAT      O28391   3.747   5.753   6.725
 6918WAT     H128392   3.719   5.793   6.797
 6918WAT     H228393   3.833   5.747   6.738
 6918WAT    EPW28394   3.756   5.758   6.737
 6919WAT      O28395   2.716   5.433   6.116
 6919WAT     H128396   2.743   5.516   6.122
 6919WAT     H228397   2.630   5.440   6.106
 6919WAT    EPW28398   2.708   5.446   6.115
 6920WAT      O28399   3.514   5.145   7.579
 6920WAT     H128400   3.461   5.191   7.631
 6920WAT     H228401   3.477   5.066   7.578
 6920WAT    EPW28402   3.500   5.140   7.587
 6921WAT      O28403   2.064   5.030   6.769
 6921WAT     H128404   2.069   5.064   6.689
 6921WAT     H228405   2.140   5.054   6.806
 6921WAT    EPW28406   2.076   5.039   6.763
 6922WAT      O28407   3.860   6.316   6.778
 6922WAT     H128408   3.889   6.342   6.700
 6922WAT     H228409   3.930   6.326   6.830
 6922WAT    EPW28410   3.875   6.321   6.774
 6923WAT      O28411   3.363   5.502   7.587
 6923WAT     H128412   3.370   5.512   7.673
 6923WAT     H228413   3.299   5.558   7.564
 6923WAT    EPW28414   3.354   5.512   7.596
 6924WAT      O28415   3.590   5.534   7.423
 6924WAT     H128416   3.621   5.613   7.443
 6924WAT     H228417   3.553   5.507   7.497
 6924WAT    EPW28418   3.589   5.542   7.437
 6925WAT      O28419   3.521   6.176   5.976
 6925WAT     H128420   3.554   6.096   5.980
 6925WAT     H228421   3.445   6.169   6.019
 6925WAT    EPW28422   3.515   6.163   5.983
 6926WAT      O28423   3.569   5.360   6.542
 6926WAT     H128424   3.495   5.327   6.574
 6926WAT     H228425   3.569   5.442   6.570
 6926WAT    EPW28426   3.558   5.367   6.551
 6927WAT      O28427   3.813   5.956   7.317
 6927WAT     H128428   3.876   5.901   7.292
 6927WAT     H228429   3.807   6.012   7.251
 6927WAT    EPW28430   3.822   5.956   7.304
 6928WAT      O28431   3.258   5.964   5.916
 6928WAT     H128432   3.327   5.912   5.899
 6928WAT     H228433   3.217   5.968   5.840
 6928WAT    EPW28434   3.262   5.957   5.903
 6929WAT      O28435   2.727   6.079   7.047
 6929WAT     H128436   2.697   6.138   7.103
 6929WAT     H228437   2.732   6.123   6.972
 6929WAT    EPW28438   2.723   6.094   7.044
 6930WAT      O28439   2.524   5.974   7.387
 6930WAT     H128440   2.444   5.945   7.403
 6930WAT     H228441   2.516   6.061   7.387
 6930WAT    EPW28442   2.511   5.982   7.389
 6931WAT      O28443   2.978   5.721   6.996
 6931WAT     H128444   3.026   5.759   7.059
 6931WAT     H228445   2.896   5.735   7.022
 6931WAT    EPW28446   2.973   5.729   7.009
 6932WAT      O28447   2.649   5.281   7.270
 6932WAT     H128448   2.665   5.207   7.313
 6932WAT     H228449   2.645   5.257   7.186
 6932WAT    EPW28450   2.651   5.267   7.264
 6933WAT      O28451   2.905   6.460   6.519
 6933WAT     H128452   2.959   6.528   6.524
 6933WAT     H228453   2.870   6.469   6.439
 6933WAT    EPW28454   2.907   6.472   6.508
 6934WAT      O28455   3.589   4.791   7.055
 6934WAT     H128456   3.561   4.873   7.051
 6934WAT     H228457   3.660   4.796   7.105
 6934WAT    EPW28458   3.595   4.804   7.062
 6935WAT      O28459   2.824   4.862   7.258
 6935WAT     H128460   2.895   4.894   7.218
 6935WAT     H228461   2.848   4.782   7.281
 6935WAT    EPW28462   2.838   4.855   7.255
 6936WAT      O28463   2.723   6.283   6.858
 6936WAT     H128464   2.660   6.341   6.839
 6936WAT     H228465   2.748   6.255   6.779
 6936WAT    EPW28466   2.717   6.288   6.843
 6937WAT      O28467   3.154   5.947   7.556
 6937WAT     H128468   3.229   5.975   7.524
 6937WAT     H228469   3.099   5.952   7.489
 6937WAT    EPW28470   3.157   5.952   7.542
 6938WAT      O28471   3.545   6.202   7.407
 6938WAT     H128472   3.579   6.229   7.482
 6938WAT     H228473   3.574   6.260   7.349
 6938WAT    EPW28474   3.554   6.214   7.409
 6939WAT      O28475   2.882   5.761   5.849
 6939WAT     H128476   2.802   5.743   5.821
 6939WAT     H228477   2.879   5.846   5.868
 6939WAT    EPW28478   2.870   5.771   5.848
 6940WAT      O28479   2.475   5.368   6.864
 6940WAT     H128480   2.519   5.357   6.789
 6940WAT     H228481   2.530   5.336   6.925
 6940WAT    EPW28482   2.490   5.361   6.862
 6941WAT      O28483   3.277   5.278   7.423
 6941WAT     H128484   3.212   5.325   7.458
 6941WAT     H228485   3.333   5.269   7.489
 6941WAT    EPW28486   3.276   5.283   7.438
 6942WAT      O28487   3.246   5.431   7.053
 6942WAT     H128488   3.276   5.473   7.123
 6942WAT     H228489   3.249   5.347   7.076
 6942WAT    EPW28490   3.251   5.425   7.067
 6943WAT      O28491   2.988   6.448   7.446
 6943WAT     H128492   3.036   6.388   7.404
 6943WAT     H228493   2.953   6.404   7.512
 6943WAT    EPW28494   2.990   6.433   7.449
 6944WAT      O28495   3.500   5.376   6.278
 6944WAT     H128496   3.521   5.356   6.361
 6944WAT     H228497   3.576   5.403   6.244
 6944WAT    EPW28498   3.515   5.377   6.285
 6945WAT      O28499   2.830   4.866   6.869
 6945WAT     H128500   2.747   4.851   6.892
 6945WAT     H228501   2.826   4.870   6.782
 6945WAT    EPW28502   2.817   4.864   6.859
 6946WAT      O28503   3.603   4.984   6.426
 6946WAT     H128504   3.531   4.937   6.443
 6946WAT     H228505   3.586   5.019   6.347
 6946WAT    EPW28506   3.590   4.983   6.417
 6947WAT      O28507   3.647   5.779   6.264
 6947WAT     H128508   3.695   5.706   6.259
 6947WAT     H228509   3.565   5.750   6.256
 6947WAT    EPW28510   3.642   5.764   6.262
 6948WAT      O28511   2.994   5.970   7.348
 6948WAT     H128512   2.915   5.964   7.383
 6948WAT     H228513   3.001   6.055   7.328
 6948WAT    EPW28514   2.983   5.982   7.350
 6949WAT      O28515   2.086   4.906   7.472
 6949WAT     H128516   2.072   4.985   7.439
 6949WAT     H228517   2.008   4.882   7.501
 6949WAT    EPW28518   2.073   4.914   7.472
 6950WAT      O28519   2.577   6.591   6.879
 6950WAT     H128520   2.578   6.597   6.966
 6950WAT     H228521   2.535   6.516   6.864
 6950WAT    EPW28522   2.571   6.581   6.890
 6951WAT      O28523   2.393   5.180   6.195
 6951WAT     H128524   2.405   5.147   6.115
 6951WAT     H228525   2.312   5.155   6.215
 6951WAT    EPW28526   2.383   5.172   6.186
 6952WAT      O28527   3.269   5.896   6.499
 6952WAT     H128528   3.276   5.930   6.579
 6952WAT     H228529   3.285   5.811   6.511
 6952WAT    EPW28530   3.272   5.888   6.513
 6953WAT      O28531   3.021   5.823   6.456
 6953WAT     H128532   2.991   5.791   6.531
 6953WAT     H228533   3.090   5.870   6.479
 6953WAT    EPW28534   3.027   5.825   6.470
 6954WAT      O28535   3.043   6.235   7.258
 6954WAT     H128536   3.112   6.223   7.311
 6954WAT     H228537   3.056   6.314   7.224
 6954WAT    EPW28538   3.055   6.245   7.261
 6955WAT      O28539   3.861   5.496   7.439
 6955WAT     H128540   3.775   5.483   7.452
 6955WAT     H228541   3.876   5.456   7.363
 6955WAT    EPW28542   3.850   5.488   7.430
 6956WAT      O28543   3.312   5.562   7.297
 6956WAT     H128544   3.286   5.490   7.339
 6956WAT     H228545   3.394   5.574   7.324
 6956WAT    EPW28546   3.320   5.553   7.307
 6957WAT      O28547   2.253   6.541   7.423
 6957WAT     H128548   2.188   6.484   7.433
 6957WAT     H228549   2.216   6.618   7.439
 6957WAT    EPW28550   2.238   6.544   7.427
 6958WAT      O28551   3.105   5.681   7.616
 6958WAT     H128552   3.138   5.750   7.573
 6958WAT     H228553   3.035   5.713   7.656
 6958WAT    EPW28554   3.100   5.696   7.615
 6959WAT      O28555   3.414   6.519   6.709
 6959WAT     H128556   3.369   6.583   6.747
 6959WAT     H228557   3.484   6.511   6.759
 6959WAT    EPW28558   3.417   6.527   6.722
 6960WAT      O28559   3.084   6.028   7.002
 6960WAT     H128560   3.014   6.068   7.036
 6960WAT     H228561   3.151   6.071   7.036
 6960WAT    EPW28562   3.083   6.040   7.012
 6961WAT      O28563   2.391   5.381   7.236
 6961WAT     H128564   2.428   5.443   7.188
 6961WAT     H228565   2.458   5.334   7.265
 6961WAT    EPW28566   2.406   5.384   7.233
 6962WAT      O28567   2.168   5.226   7.164
 6962WAT     H128568   2.176   5.209   7.079
 6962WAT     H228569   2.243   5.267   7.184
 6962WAT    EPW28570   2.180   5.230   7.154
 6963WAT      O28571   2.423   4.967   7.405
 6963WAT     H128572   2.415   4.883   7.426
 6963WAT     H228573   2.392   4.972   7.324
 6963WAT    EPW28574   2.418   4.955   7.396
 6964WAT      O28575   3.116   6.187   6.319
 6964WAT     H128576   3.095   6.270   6.303
 6964WAT     H228577   3.038   6.148   6.331
 6964WAT    EPW28578   3.101   6.193   6.318
 6965WAT      O28579   3.634   5.505   7.143
 6965WAT     H128580   3.634   5.418   7.156
 6965WAT     H228581   3.641   5.537   7.224
 6965WAT    EPW28582   3.635   5.497   7.157
 6966WAT      O28583   2.108   5.749   7.186
 6966WAT     H128584   2.140   5.771   7.108
 6966WAT     H228585   2.098   5.662   7.181
 6966WAT    EPW28586   2.111   5.739   7.174
 6967WAT      O28587   2.253   5.342   5.848
 6967WAT     H128588   2.186   5.344   5.904
 6967WAT     H228589   2.263   5.258   5.830
 6967WAT    EPW28590   2.245   5.330   5.854
 6968WAT      O28591   3.222   4.985   7.522
 6968WAT     H128592   3.231   5.056   7.571
 6968WAT     H228593   3.158   4.940   7.561
 6968WAT    EPW28594   3.214   4.989   7.535
 6969WAT      O28595   3.121   5.004   6.607
 6969WAT     H128596   3.051   5.056   6.601
 6969WAT     H228597   3.125   4.966   6.529
 6969WAT    EPW28598   3.112   5.006   6.595
 6970WAT      O28599   2.652   6.213   5.959
 6970WAT     H128600   2.696   6.221   6.034
 6970WAT     H228601   2.572   6.191   5.985
 6970WAT    EPW28602   2.647   6.211   5.974
 6971WAT      O28603   3.481   5.055   6.887
 6971WAT     H128604   3.567   5.065   6.902
 6971WAT     H228605   3.444   5.111   6.944
 6971WAT    EPW28606   3.488   5.065   6.898
 6972WAT      O28607   2.584   5.678   7.325
 6972WAT     H128608   2.544   5.755   7.332
 6972WAT     H228609   2.543   5.641   7.257
 6972WAT    EPW28610   2.572   5.684   7.316
 6973WAT      O28611   3.512   5.583   6.736
 6973WAT     H128612   3.578   5.637   6.752
 6973WAT     H228613   3.477   5.614   6.662
 6973WAT    EPW28614   3.516   5.596   6.728
 6974WAT      O28615   3.543   6.390   6.317
 6974WAT     H128616   3.526   6.325   6.372
 6974WAT     H228617   3.614   6.363   6.275
 6974WAT    EPW28618   3.551   6.376   6.319
 6975WAT      O28619   2.385   6.120   6.020
 6975WAT     H128620   2.361   6.089   6.098
 6975WAT     H228621   2.382   6.050   5.968
 6975WAT    EPW28622   2.381   6.105   6.023
 6976WAT      O28623   2.667   5.944   5.894
 6976WAT     H128624   2.585   5.918   5.908
 6976WAT     H228625   2.664   6.030   5.912
 6976WAT    EPW28626   2.654   5.953   5.899
 6977WAT      O28627   2.627   4.976   7.070
 6977WAT     H128628   2.541   4.984   7.078
 6977WAT     H228629   2.649   4.924   7.137
 6977WAT    EPW28630   2.617   4.969   7.081
 6978WAT      O28631   3.829   4.839   7.203
 6978WAT     H128632   3.824   4.835   7.290
 6978WAT     H228633   3.897   4.789   7.184
 6978WAT    EPW28634   3.838   4.831   7.213
 6979WAT      O28635   3.037   5.050   6.907
 6979WAT     H128636   2.964   5.005   6.918
 6979WAT     H228637   3.094   5.010   6.959
 6979WAT    EPW28638   3.035   5.038   6.917
 6980WAT      O28639   3.310   6.135   7.086
 6980WAT     H128640   3.331   6.165   7.165
 6980WAT     H228641   3.304   6.207   7.037
 6980WAT    EPW28642   3.313   6.150   7.090
 6981WAT      O28643   3.264   6.557   7.511
 6981WAT     H128644   3.189   6.555   7.466
 6981WAT     H228645   3.281   6.642   7.519
 6981WAT    EPW28646   3.255   6.569   7.505
 6982WAT      O28647   2.788   5.483   7.428
 6982WAT     H128648   2.755   5.426   7.371
 6982WAT     H228649   2.752   5.559   7.403
 6982WAT    EPW28650   2.778   5.486   7.416
 6983WAT      O28651   2.867   4.809   5.890
 6983WAT     H128652   2.875   4.833   5.807
 6983WAT     H228653   2.793   4.846   5.916
 6983WAT    EPW28654   2.857   4.818   5.882
 6984WAT      O28655   3.792   5.999   7.032
 6984WAT     H128656   3.788   5.913   7.018
 6984WAT     H228657   3.722   6.029   6.988
 6984WAT    EPW28658   3.781   5.991   7.023
 6985WAT      O28659   2.631   6.519   7.452
 6985WAT     H128660   2.635   6.532   7.539
 6985WAT     H228661   2.696   6.463   7.437
 6985WAT    EPW28662   2.641   6.513   7.463
 6986WAT      O28663   3.602   6.325   6.911
 6986WAT     H128664   3.655   6.317   6.842
 6986WAT     H228665   3.563   6.247   6.917
 6986WAT    EPW28666   3.604   6.312   6.902
 6987WAT      O28667   2.349   4.984   7.135
 6987WAT     H128668   2.315   4.907   7.111
 6987WAT     H228669   2.279   5.036   7.141
 6987WAT    EPW28670   2.334   4.980   7.132
 6988WAT      O28671   3.254   4.870   6.832
 6988WAT     H128672   3.321   4.924   6.845
 6988WAT     H228673   3.203   4.912   6.775
 6988WAT    EPW28674   3.256   4.884   6.826
 6989WAT      O28675   2.390   6.357   7.588
 6989WAT     H128676   2.450   6.400   7.636
 6989WAT     H228677   2.354   6.420   7.539
 6989WAT    EPW28678   2.394   6.373   7.588
 6990WAT      O28679   2.214   5.315   6.530
 6990WAT     H128680   2.177   5.346   6.603
 6990WAT     H228681   2.268   5.252   6.559
 6990WAT    EPW28682   2.217   5.311   6.545
 6991WAT      O28683   2.183   6.156   7.281
 6991WAT     H128684   2.126   6.198   7.332
 6991WAT     H228685   2.256   6.203   7.291
 6991WAT    EPW28686   2.185   6.169   7.290
 6992WAT      O28687   3.386   5.633   6.238
 6992WAT     H128688   3.393   5.548   6.256
 6992WAT     H228689   3.304   5.642   6.210
 6992WAT    EPW28690   3.375   5.622   6.236
 6993WAT      O28691   2.362   6.483   6.159
 6993WAT     H128692   2.347   6.498   6.074
 6993WAT     H228693   2.448   6.491   6.167
 6993WAT    EPW28694   2.372   6.486   6.147
 6994WAT      O28695   2.778   5.723   6.132
 6994WAT     H128696   2.788   5.736   6.046
 6994WAT     H228697   2.860   5.717   6.161
 6994WAT    EPW28698   2.792   5.724   6.123
 6995WAT      O28699   3.694   6.529   5.880
 6995WAT     H128700   3.758   6.516   5.938
 6995WAT     H228701   3.660   6.450   5.868
 6995WAT    EPW28702   3.699   6.515   5.886
 6996WAT      O28703   3.714   5.771   7.553
 6996WAT     H128704   3.777   5.754   7.610
 6996WAT     H228705   3.756   5.811   7.488
 6996WAT    EPW28706   3.729   5.774   7.552
 6997WAT      O28707   3.302   6.155   6.112
 6997WAT     H128708   3.277   6.143   6.194
 6997WAT     H228709   3.270   6.086   6.070
 6997WAT    EPW28710   3.293   6.143   6.118
 6998WAT      O28711   3.776   5.227   7.627
 6998WAT     H128712   3.757   5.292   7.682
 6998WAT     H228713   3.704   5.178   7.626
 6998WAT    EPW28714   3.763   5.229   7.635
 6999WAT      O28715   3.766   5.321   6.924
 6999WAT     H128716   3.683   5.346   6.917
 6999WAT     H228717   3.761   5.237   6.947
 6999WAT    EPW28718   3.753   5.313   6.926
 7000WAT      O28719   2.692   5.020   7.443
 7000WAT     H128720   2.716   4.962   7.382
 7000WAT     H228721   2.608   5.002   7.457
 7000WAT    EPW28722   2.683   5.009   7.436
 7001WAT      O28723   3.455   5.782   7.688
 7001WAT     H128724   3.542   5.778   7.685
 7001WAT     H228725   3.433   5.824   7.615
 7001WAT    EPW28726   3.465   5.787   7.677
 7002WAT      O28727   2.430   6.364   6.806
 7002WAT     H128728   2.422   6.283   6.775
 7002WAT     H228729   2.386   6.413   6.749
 7002WAT    EPW28730   2.423   6.360   6.793
 7003WAT      O28731   2.990   5.976   6.055
 7003WAT     H128732   3.062   5.942   6.019
 7003WAT     H228733   2.987   6.056   6.020
 7003WAT    EPW28734   3.001   5.983   6.044
 7004WAT      O28735   2.188   6.589   7.165
 7004WAT     H128736   2.237   6.583   7.236
 7004WAT     H228737   2.206   6.515   7.121
 7004WAT    EPW28738   2.198   6.577   7.169
 7005WAT      O28739   3.112   5.532   4.946
 7005WAT     H128740   3.060   5.592   4.982
 7005WAT     H228741   3.152   5.495   5.014
 7005WAT    EPW28742   3.110   5.535   4.961
 7006WAT      O28743   2.099   5.946   4.491
 7006WAT     H128744   2.055   5.958   4.566
 7006WAT     H228745   2.071   5.868   4.463
 7006WAT    EPW28746   2.088   5.936   4.498
 7007WAT      O28747   3.727   6.276   4.243
 7007WAT     H128748   3.797   6.224   4.242
 7007WAT     H228749   3.668   6.232   4.196
 7007WAT    EPW28750   3.728   6.262   4.236
 7008WAT      O28751   2.073   5.325   4.142
 7008WAT     H128752   1.996   5.341   4.106
 7008WAT     H228753   2.077   5.238   4.144
 7008WAT    EPW28754   2.063   5.315   4.137
 7009WAT      O28755   2.387   5.851   4.009
 7009WAT     H128756   2.348   5.814   3.941
 7009WAT     H228757   2.379   5.792   4.072
 7009WAT    EPW28758   2.380   5.837   4.008
 7010WAT      O28759   2.350   6.016   4.399
 7010WAT     H128760   2.411   5.999   4.460
 7010WAT     H228761   2.275   6.002   4.441
 7010WAT    EPW28762   2.348   6.011   4.414
 7011WAT      O28763   2.778   4.949   4.394
 7011WAT     H128764   2.771   5.017   4.340
 7011WAT     H228765   2.852   4.910   4.369
 7011WAT    EPW28766   2.788   4.953   4.382
 7012WAT      O28767   2.239   6.325   4.007
 7012WAT     H128768   2.286   6.333   3.934
 7012WAT     H228769   2.285   6.267   4.054
 7012WAT    EPW28770   2.253   6.317   4.003
 7013WAT      O28771   2.093   6.219   5.117
 7013WAT     H128772   2.106   6.191   5.198
 7013WAT     H228773   2.032   6.165   5.086
 7013WAT    EPW28774   2.086   6.207   5.124
 7014WAT      O28775   2.751   5.972   5.624
 7014WAT     H128776   2.727   5.972   5.708
 7014WAT     H228777   2.676   5.957   5.581
 7014WAT    EPW28778   2.736   5.970   5.630
 7015WAT      O28779   2.238   5.672   4.537
 7015WAT     H128780   2.192   5.632   4.474
 7015WAT     H228781   2.308   5.620   4.546
 7015WAT    EPW28782   2.241   5.658   4.529
 7016WAT      O28783   2.689   5.233   5.072
 7016WAT     H128784   2.756   5.234   5.017
 7016WAT     H228785   2.684   5.149   5.096
 7016WAT    EPW28786   2.698   5.220   5.067
 7017WAT      O28787   2.749   6.291   5.350
 7017WAT     H128788   2.763   6.367   5.309
 7017WAT     H228789   2.828   6.255   5.353
 7017WAT    EPW28790   2.762   6.297   5.344
 7018WAT      O28791   2.858   6.080   4.800
 7018WAT     H128792   2.893   6.000   4.803
 7018WAT     H228793   2.925   6.130   4.775
 7018WAT    EPW28794   2.873   6.075   4.797
 7019WAT      O28795   2.864   6.025   4.421
 7019WAT     H128796   2.897   5.960   4.470
 7019WAT     H228797   2.888   6.003   4.340
 7019WAT    EPW28798   2.872   6.012   4.417
 7020WAT      O28799   3.061   5.438   5.555
 7020WAT     H128800   2.976   5.428   5.538
 7020WAT     H228801   3.064   5.512   5.601
 7020WAT    EPW28802   3.049   5.447   5.559
 7021WAT      O28803   2.498   4.991   4.466
 7021WAT     H128804   2.468   5.041   4.401
 7021WAT     H228805   2.584   4.999   4.460
 7021WAT    EPW28806   2.506   5.000   4.456
 7022WAT      O28807   2.795   4.905   4.688
 7022WAT     H128808   2.803   4.991   4.701
 7022WAT     H228809   2.792   4.898   4.601
 7022WAT    EPW28810   2.796   4.917   4.677
 7023WAT      O28811   2.083   5.448   4.838
 7023WAT     H128812   2.058   5.531   4.831
 7023WAT     H228813   2.017   5.409   4.880
 7023WAT    EPW28814   2.070   5.454   4.843
 7024WAT      O28815   2.074   6.419   4.628
 7024WAT     H128816   2.015   6.474   4.597
 7024WAT     H228817   2.117   6.392   4.557
 7024WAT    EPW28818   2.072   6.423   4.613
 7025WAT      O28819   2.658   6.203   4.376
 7025WAT     H128820   2.600   6.176   4.436
 7025WAT     H228821   2.721   6.142   4.379
 7025WAT    EPW28822   2.659   6.190   4.385
 7026WAT      O28823   3.273   6.432   4.129
 7026WAT     H128824   3.345   6.479   4.139
 7026WAT     H228825   3.296   6.352   4.157
 7026WAT    EPW28826   3.287   6.427   4.134
 7027WAT      O28827   3.089   6.471   4.328
 7027WAT     H128828   3.111   6.524   4.394
 7027WAT     H228829   3.166   6.454   4.290
 7027WAT    EPW28830   3.104   6.476   4.332
 7028WAT      O28831   2.386   4.929   4.887
 7028WAT     H128832   2.334   4.867   4.857
 7028WAT     H228833   2.445   4.886   4.935
 7028WAT    EPW28834   2.387   4.914   4.890
 7029WAT      O28835   2.717   5.143   5.817
 7029WAT     H128836   2.729   5.097   5.744
 7029WAT     H228837   2.746   5.222   5.797
 7029WAT    EPW28838   2.723   5.148   5.803
 7030WAT      O28839   2.229   6.286   4.421
 7030WAT     H128840   2.294   6.228   4.423
 7030WAT     H228841   2.268   6.361   4.399
 7030WAT    EPW28842   2.244   6.288   4.418
 7031WAT      O28843   3.333   6.472   5.158
 7031WAT     H128844   3.408   6.518   5.157
 7031WAT     H228845   3.321   6.451   5.074
 7031WAT    EPW28846   3.343   6.476   5.146
 7032WAT      O28847   2.290   5.102   5.716
 7032WAT     H128848   2.212   5.063   5.708
 7032WAT     H228849   2.339   5.061   5.657
 7032WAT    EPW28850   2.286   5.090   5.706
 7033WAT      O28851   2.311   6.134   4.771
 7033WAT     H128852   2.353   6.099   4.704
 7033WAT     H228853   2.343   6.092   4.841
 7033WAT    EPW28854   2.322   6.123   4.772
 7034WAT      O28855   2.634   6.420   4.701
 7034WAT     H128856   2.718   6.430   4.682
 7034WAT     H228857   2.604   6.501   4.708
 7034WAT    EPW28858   2.642   6.433   4.699
 7035WAT      O28859   2.955   4.867   5.632
 7035WAT     H128860   2.973   4.786   5.605
 7035WAT     H228861   2.941   4.911   5.559
 7035WAT    EPW28862   2.956   4.861   5.617
 7036WAT      O28863   3.014   5.359   4.510
 7036WAT     H128864   3.043   5.336   4.431
 7036WAT     H228865   3.088   5.367   4.557
 7036WAT    EPW28866   3.029   5.357   4.505
 7037WAT      O28867   3.491   6.591   4.169
 7037WAT     H128868   3.557   6.576   4.114
 7037WAT     H228869   3.527   6.582   4.248
 7037WAT    EPW28870   3.506   6.587   4.172
 7038WAT      O28871   2.534   6.541   5.275
 7038WAT     H128872   2.563   6.535   5.357
 7038WAT     H228873   2.471   6.481   5.271
 7038WAT    EPW28874   2.529   6.532   5.287
 7039WAT      O28875   2.025   5.157   5.474
 7039WAT     H128876   2.025   5.216   5.539
 7039WAT     H228877   2.084   5.188   5.419
 7039WAT    EPW28878   2.034   5.170   5.476
 7040WAT      O28879   3.259   6.191   5.528
 7040WAT     H128880   3.255   6.229   5.607
 7040WAT     H228881   3.344   6.186   5.511
 7040WAT    EPW28882   3.271   6.196   5.538
 7041WAT      O28883   2.973   6.210   4.003
 7041WAT     H128884   2.954   6.265   4.069
 7041WAT     H228885   3.049   6.239   3.973
 7041WAT    EPW28886   2.981   6.223   4.009
 7042WAT      O28887   2.119   5.117   4.366
 7042WAT     H128888   2.107   5.030   4.369
 7042WAT     H228889   2.071   5.146   4.433
 7042WAT    EPW28890   2.110   5.108   4.376
 7043WAT      O28891   2.333   6.358   5.187
 7043WAT     H128892   2.263   6.307   5.200
 7043WAT     H228893   2.359   6.337   5.106
 7043WAT    EPW28894   2.326   6.347   5.177
 7044WAT      O28895   3.104   6.507   5.278
 7044WAT     H128896   3.181   6.499   5.238
 7044WAT     H228897   3.046   6.495   5.214
 7044WAT    EPW28898   3.107   6.504   5.263
 7045WAT      O28899   3.732   6.567   4.568
 7045WAT     H128900   3.686   6.639   4.588
 7045WAT     H228901   3.670   6.510   4.544
 7045WAT    EPW28902   3.716   6.569   4.568
 7046WAT      O28903   3.431   6.152   4.523
 7046WAT     H128904   3.501   6.104   4.542
 7046WAT     H228905   3.365   6.095   4.527
 7046WAT    EPW28906   3.432   6.136   4.526
 7047WAT      O28907   2.469   6.243   5.444
 7047WAT     H128908   2.553   6.249   5.422
 7047WAT     H228909   2.465   6.282   5.522
 7047WAT    EPW28910   2.481   6.250   5.452
 7048WAT      O28911   2.370   4.751   4.516
 7048WAT     H128912   2.423   4.819   4.515
 7048WAT     H228913   2.370   4.723   4.434
 7048WAT    EPW28914   2.378   4.757   4.504
 7049WAT      O28915   2.665   5.794   4.919
 7049WAT     H128916   2.682   5.773   5.002
 7049WAT     H228917   2.600   5.740   4.897
 7049WAT    EPW28918   2.658   5.783   4.928
 7050WAT      O28919   2.740   5.788   5.178
 7050WAT     H128920   2.746   5.872   5.198
 7050WAT     H228921   2.712   5.751   5.252
 7050WAT    EPW28922   2.737   5.795   5.192
 7051WAT      O28923   3.358   5.857   5.091
 7051WAT     H128924   3.307   5.816   5.148
 7051WAT     H228925   3.345   5.942   5.109
 7051WAT    EPW28926   3.349   5.864   5.102
 7052WAT      O28927   2.022   6.225   5.799
 7052WAT     H128928   2.098   6.260   5.825
 7052WAT     H228929   2.040   6.139   5.793
 7052WAT    EPW28930   2.036   6.217   5.802
 7053WAT      O28931   2.414   5.132   4.682
 7053WAT     H128932   2.442   5.089   4.611
 7053WAT     H228933   2.397   5.068   4.739
 7053WAT    EPW28934   2.416   5.116   4.680
 7054WAT      O28935   3.683   5.901   4.104
 7054WAT     H128936   3.695   5.872   4.185
 7054WAT     H228937   3.764   5.903   4.071
 7054WAT    EPW28938   3.697   5.897   4.111
 7055WAT      O28939   2.397   5.874   4.637
 7055WAT     H128940   2.482   5.866   4.619
 7055WAT     H228941   2.361   5.806   4.595
 7055WAT    EPW28942   2.404   5.863   4.628
 7056WAT      O28943   2.274   6.547   4.760
 7056WAT     H128944   2.206   6.497   4.736
 7056WAT     H228945   2.314   6.565   4.685
 7056WAT    EPW28946   2.270   6.542   4.746
 7057WAT      O28947   2.229   5.242   4.990
 7057WAT     H128948   2.313   5.264   4.986
 7057WAT     H228949   2.190   5.299   4.937
 7057WAT    EPW28950   2.235   5.253   4.981
 7058WAT      O28951   3.907   6.352   5.529
 7058WAT     H128952   3.838   6.383   5.484
 7058WAT     H228953   3.870   6.306   5.593
 7058WAT    EPW28954   3.891   6.350   5.532
 7059WAT      O28955   2.634   5.875   4.460
 7059WAT     H128956   2.705   5.924   4.469
 7059WAT     H228957   2.656   5.818   4.398
 7059WAT    EPW28958   2.647   5.874   4.452
 7060WAT      O28959   2.049   6.039   4.792
 7060WAT     H128960   1.983   6.088   4.820
 7060WAT     H228961   2.117   6.094   4.795
 7060WAT    EPW28962   2.049   6.054   4.797
 7061WAT      O28963   2.814   5.410   5.802
 7061WAT     H128964   2.766   5.468   5.846
 7061WAT     H228965   2.811   5.440   5.720
 7061WAT    EPW28966   2.806   5.423   5.796
 7062WAT      O28967   2.056   5.708   4.302
 7062WAT     H128968   2.037   5.624   4.318
 7062WAT     H228969   2.122   5.704   4.245
 7062WAT    EPW28970   2.063   5.695   4.296
 7063WAT      O28971   3.086   6.245   4.693
 7063WAT     H128972   3.034   6.309   4.664
 7063WAT     H228973   3.117   6.209   4.620
 7063WAT    EPW28974   3.083   6.249   4.678
 7064WAT      O28975   2.073   6.124   4.260
 7064WAT     H128976   2.128   6.181   4.296
 7064WAT     H228977   2.050   6.073   4.326
 7064WAT    EPW28978   2.078   6.125   4.275
 7065WAT      O28979   2.493   6.024   4.969
 7065WAT     H128980   2.540   6.053   5.037
 7065WAT     H228981   2.551   5.976   4.923
 7065WAT    EPW28982   2.509   6.021   4.972
 7066WAT      O28983   2.056   5.969   4.023
 7066WAT     H128984   2.132   5.926   4.029
 7066WAT     H228985   2.058   6.022   4.092
 7066WAT    EPW28986   2.067   5.970   4.034
 7067WAT      O28987   2.150   5.791   4.823
 7067WAT     H128988   2.193   5.778   4.749
 7067WAT     H228989   2.130   5.876   4.821
 7067WAT    EPW28990   2.153   5.802   4.812
 7068WAT      O28991   2.785   5.147   4.188
 7068WAT     H128992   2.784   5.136   4.102
 7068WAT     H228993   2.767   5.232   4.197
 7068WAT    EPW28994   2.782   5.158   4.177
 7069WAT      O28995   3.690   6.390   5.338
 7069WAT     H128996   3.623   6.442   5.360
 7069WAT     H228997   3.696   6.400   5.252
 7069WAT    EPW28998   3.681   6.399   5.328
 7070WAT      O28999   2.558   6.143   4.651
 7070WAT     H129000   2.571   6.227   4.670
 7070WAT     H229001   2.625   6.103   4.691
 7070WAT    EPW29002   2.570   6.149   4.660
 7071WAT      O29003   2.371   5.491   5.638
 7071WAT     H129004   2.318   5.440   5.684
 7071WAT     H229005   2.373   5.452   5.560
 7071WAT    EPW29006   2.364   5.478   5.633
 7072WAT      O29007   2.420   5.431   4.152
 7072WAT     H129008   2.407   5.386   4.225
 7072WAT     H229009   2.362   5.396   4.096
 7072WAT    EPW29010   2.409   5.419   4.154
 7073WAT      O29011   2.437   5.614   4.812
 7073WAT     H129012   2.359   5.608   4.773
 7073WAT     H229013   2.444   5.538   4.855
 7073WAT    EPW29014   2.426   5.602   4.812
 7074WAT      O29015   2.480   5.587   5.158
 7074WAT     H129016   2.482   5.520   5.103
 7074WAT     H229017   2.415   5.637   5.127
 7074WAT    EPW29018   2.471   5.585   5.146
 7075WAT      O29019   2.890   6.465   5.098
 7075WAT     H129020   2.862   6.401   5.045
 7075WAT     H229021   2.869   6.538   5.054
 7075WAT    EPW29022   2.883   6.466   5.083
 7076WAT      O29023   2.260   5.723   5.714
 7076WAT     H129024   2.256   5.773   5.643
 7076WAT     H229025   2.293   5.648   5.685
 7076WAT    EPW29026   2.264   5.719   5.699
 7077WAT      O29027   3.420   5.943   5.540
 7077WAT     H129028   3.468   6.015   5.550
 7077WAT     H229029   3.459   5.901   5.475
 7077WAT    EPW29030   3.433   5.948   5.532
 7078WAT      O29031   2.849   6.228   5.658
 7078WAT     H129032   2.885   6.210   5.735
 7078WAT     H229033   2.806   6.155   5.638
 7078WAT    EPW29034   2.848   6.214   5.666
 7079WAT      O29035   3.166   5.619   4.149
 7079WAT     H129036   3.165   5.692   4.100
 7079WAT     H229037   3.102   5.633   4.207
 7079WAT    EPW29038   3.156   5.632   4.150
 7080WAT      O29039   3.663   6.006   4.547
 7080WAT     H129040   3.698   5.971   4.619
 7080WAT     H229041   3.662   5.940   4.490
 7080WAT    EPW29042   3.668   5.991   4.549
 7081WAT      O29043   3.267   6.313   4.931
 7081WAT     H129044   3.207   6.283   4.876
 7081WAT     H229045   3.322   6.358   4.881
 7081WAT    EPW29046   3.266   6.315   4.916
 7082WAT      O29047   3.269   5.998   4.871
 7082WAT     H129048   3.189   6.021   4.899
 7082WAT     H229049   3.294   5.939   4.930
 7082WAT    EPW29050   3.261   5.993   4.884
 7083WAT      O29051   2.658   6.479   4.316
 7083WAT     H129052   2.643   6.402   4.353
 7083WAT     H229053   2.727   6.465   4.265
 7083WAT    EPW29054   2.666   6.466   4.314
 7084WAT      O29055   2.625   4.854   4.115
 7084WAT     H129056   2.635   4.843   4.201
 7084WAT     H229057   2.554   4.904   4.109
 7084WAT    EPW29058   2.616   4.860   4.127
 7085WAT      O29059   2.887   6.431   4.156
 7085WAT     H129060   2.949   6.447   4.215
 7085WAT     H229061   2.891   6.500   4.103
 7085WAT    EPW29062   2.897   6.444   4.157
 7086WAT      O29063   3.595   5.798   5.356
 7086WAT     H129064   3.600   5.810   5.270
 7086WAT     H229065   3.670   5.830   5.386
 7086WAT    EPW29066   3.606   5.804   5.348
 7087WAT      O29067   3.214   6.333   5.784
 7087WAT     H129068   3.230   6.361   5.865
 7087WAT     H229069   3.240   6.399   5.733
 7087WAT    EPW29070   3.220   6.347   5.788
 7088WAT      O29071   2.337   5.684   4.239
 7088WAT     H129072   2.369   5.606   4.217
 7088WAT     H229073   2.402   5.721   4.285
 7088WAT    EPW29074   2.351   5.678   4.243
 7089WAT      O29075   3.168   5.779   5.316
 7089WAT     H129076   3.152   5.840   5.376
 7089WAT     H229077   3.221   5.723   5.357
 7089WAT    EPW29078   3.173   5.779   5.331
 7090WAT      O29079   2.037   4.850   4.336
 7090WAT     H129080   2.050   4.780   4.287
 7090WAT     H229081   2.000   4.819   4.409
 7090WAT    EPW29082   2.033   4.835   4.340
 7091WAT      O29083   3.006   5.619   4.382
 7091WAT     H129084   3.012   5.684   4.440
 7091WAT     H229085   2.987   5.549   4.431
 7091WAT    EPW29086   3.004   5.618   4.398
 7092WAT      O29087   3.529   6.051   4.969
 7092WAT     H129088   3.481   6.081   4.902
 7092WAT     H229089   3.493   5.974   4.987
 7092WAT    EPW29090   3.516   6.044   4.962
 7093WAT      O29091   2.456   5.070   4.033
 7093WAT     H129092   2.405   5.076   3.962
 7093WAT     H229093   2.534   5.094   4.003
 7093WAT    EPW29094   2.460   5.075   4.018
 7094WAT      O29095   2.928   5.823   4.825
 7094WAT     H129096   2.844   5.804   4.833
 7094WAT     H229097   2.961   5.807   4.904
 7094WAT    EPW29098   2.921   5.818   4.838
 7095WAT      O29099   2.604   6.496   3.914
 7095WAT     H129100   2.647   6.427   3.942
 7095WAT     H229101   2.624   6.559   3.971
 7095WAT    EPW29102   2.613   6.495   3.926
 7096WAT      O29103   2.313   5.793   5.057
 7096WAT     H129104   2.385   5.841   5.053
 7096WAT     H229105   2.286   5.790   4.974
 7096WAT    EPW29106   2.320   5.799   5.044
 7097WAT      O29107   2.636   5.310   4.730
 7097WAT     H129108   2.721   5.291   4.740
 7097WAT     H229109   2.599   5.232   4.716
 7097WAT    EPW29110   2.643   5.295   4.729
 7098WAT      O29111   3.898   6.468   4.163
 7098WAT     H129112   3.967   6.421   4.138
 7098WAT     H229113   3.844   6.408   4.196
 7098WAT    EPW29114   3.900   6.452   4.164
 7099WAT      O29115   2.118   5.443   4.396
 7099WAT     H129116   2.167   5.414   4.462
 7099WAT     H229117   2.131   5.384   4.333
 7099WAT    EPW29118   2.127   5.430   4.396
 7100WAT      O29119   2.571   5.587   3.944
 7100WAT     H129120   2.510   5.546   3.992
 7100WAT     H229121   2.532   5.599   3.867
 7100WAT    EPW29122   2.556   5.583   3.940
 7101WAT      O29123   2.253   5.898   5.484
 7101WAT     H129124   2.211   5.846   5.428
 7101WAT     H229125   2.217   5.976   5.470
 7101WAT    EPW29126   2.241   5.902   5.474
 7102WAT      O29127   2.716   5.433   4.215
 7102WAT     H129128   2.743   5.516   4.222
 7102WAT     H229129   2.630   5.440   4.206
 7102WAT    EPW29130   2.708   5.446   4.215
 7103WAT      O29131   2.064   5.030   4.869
 7103WAT     H129132   2.069   5.064   4.789
 7103WAT     H229133   2.140   5.054   4.905
 7103WAT    EPW29134   2.076   5.039   4.862
 7104WAT      O29135   3.860   6.316   4.877
 7104WAT     H129136   3.889   6.342   4.799
 7104WAT     H229137   3.930   6.326   4.929
 7104WAT    EPW29138   3.875   6.321   4.873
 7105WAT      O29139   3.363   5.502   5.686
 7105WAT     H129140   3.370   5.512   5.772
 7105WAT     H229141   3.299   5.558   5.664
 7105WAT    EPW29142   3.354   5.512   5.695
 7106WAT      O29143   3.590   5.534   5.522
 7106WAT     H129144   3.621   5.613   5.543
 7106WAT     H229145   3.553   5.507   5.597
 7106WAT    EPW29146   3.589   5.542   5.536
 7107WAT      O29147   3.521   6.176   4.075
 7107WAT     H129148   3.554   6.096   4.079
 7107WAT     H229149   3.445   6.169   4.118
 7107WAT    EPW29150   3.515   6.163   4.082
 7108WAT      O29151   3.813   5.956   5.417
 7108WAT     H129152   3.876   5.901   5.391
 7108WAT     H229153   3.807   6.012   5.350
 7108WAT    EPW29154   3.822   5.956   5.403
 7109WAT      O29155   3.258   5.964   4.016
 7109WAT     H129156   3.327   5.912   3.999
 7109WAT     H229157   3.217   5.968   3.939
 7109WAT    EPW29158   3.262   5.957   4.002
 7110WAT      O29159   2.727   6.079   5.146
 7110WAT     H129160   2.697   6.138   5.203
 7110WAT     H229161   2.732   6.123   5.071
 7110WAT    EPW29162   2.723   6.094   5.143
 7111WAT      O29163   2.524   5.974   5.486
 7111WAT     H129164   2.444   5.945   5.503
 7111WAT     H229165   2.516   6.061   5.487
 7111WAT    EPW29166   2.511   5.982   5.488
 7112WAT      O29167   2.978   5.721   5.095
 7112WAT     H129168   3.026   5.759   5.158
 7112WAT     H229169   2.896   5.735   5.121
 7112WAT    EPW29170   2.973   5.729   5.108
 7113WAT      O29171   2.649   5.281   5.369
 7113WAT     H129172   2.665   5.207   5.412
 7113WAT     H229173   2.645   5.257   5.286
 7113WAT    EPW29174   2.651   5.267   5.363
 7114WAT      O29175   2.905   6.460   4.618
 7114WAT     H129176   2.959   6.528   4.623
 7114WAT     H229177   2.870   6.469   4.539
 7114WAT    EPW29178   2.907   6.472   4.607
 7115WAT      O29179   2.723   6.283   4.957
 7115WAT     H129180   2.660   6.341   4.939
 7115WAT     H229181   2.748   6.255   4.878
 7115WAT    EPW29182   2.717   6.288   4.943
 7116WAT      O29183   3.154   5.947   5.656
 7116WAT     H129184   3.229   5.975   5.623
 7116WAT     H229185   3.099   5.952   5.588
 7116WAT    EPW29186   3.157   5.952   5.641
 7117WAT      O29187   3.545   6.202   5.506
 7117WAT     H129188   3.579   6.229   5.582
 7117WAT     H229189   3.574   6.260   5.448
 7117WAT    EPW29190   3.554   6.214   5.509
 7118WAT      O29191   2.882   5.761   3.948
 7118WAT     H129192   2.802   5.743   3.920
 7118WAT     H229193   2.879   5.846   3.968
 7118WAT    EPW29194   2.870   5.771   3.947
 7119WAT      O29195   2.475   5.368   4.963
 7119WAT     H129196   2.519   5.357   4.889
 7119WAT     H229197   2.530   5.336   5.024
 7119WAT    EPW29198   2.490   5.361   4.961
 7120WAT      O29199   2.988   6.448   5.545
 7120WAT     H129200   3.036   6.388   5.503
 7120WAT     H229201   2.953   6.404   5.611
 7120WAT    EPW29202   2.990   6.433   5.549
 7121WAT      O29203   3.647   5.779   4.363
 7121WAT     H129204   3.695   5.706   4.358
 7121WAT     H229205   3.565   5.750   4.355
 7121WAT    EPW29206   3.642   5.764   4.361
 7122WAT      O29207   2.994   5.970   5.447
 7122WAT     H129208   2.915   5.964   5.482
 7122WAT     H229209   3.001   6.055   5.427
 7122WAT    EPW29210   2.983   5.982   5.449
 7123WAT      O29211   2.086   4.906   5.572
 7123WAT     H129212   2.072   4.985   5.539
 7123WAT     H229213   2.008   4.882   5.601
 7123WAT    EPW29214   2.073   4.914   5.571
 7124WAT      O29215   2.577   6.591   4.979
 7124WAT     H129216   2.578   6.597   5.066
 7124WAT     H229217   2.535   6.516   4.964
 7124WAT    EPW29218   2.571   6.581   4.989
 7125WAT      O29219   2.393   5.180   4.294
 7125WAT     H129220   2.405   5.147   4.214
 7125WAT     H229221   2.312   5.155   4.314
 7125WAT    EPW29222   2.383   5.172   4.285
 7126WAT      O29223   3.269   5.896   4.599
 7126WAT     H129224   3.276   5.930   4.678
 7126WAT     H229225   3.285   5.811   4.611
 7126WAT    EPW29226   3.272   5.888   4.612
 7127WAT      O29227   3.021   5.823   4.555
 7127WAT     H129228   2.991   5.791   4.631
 7127WAT     H229229   3.090   5.870   4.579
 7127WAT    EPW29230   3.027   5.825   4.570
 7128WAT      O29231   3.043   6.235   5.358
 7128WAT     H129232   3.112   6.223   5.410
 7128WAT     H229233   3.056   6.314   5.323
 7128WAT    EPW29234   3.055   6.245   5.360
 7129WAT      O29235   2.253   6.541   5.523
 7129WAT     H129236   2.188   6.484   5.533
 7129WAT     H229237   2.216   6.618   5.538
 7129WAT    EPW29238   2.238   6.544   5.527
 7130WAT      O29239   3.105   5.681   5.715
 7130WAT     H129240   3.138   5.750   5.672
 7130WAT     H229241   3.035   5.713   5.755
 7130WAT    EPW29242   3.100   5.696   5.715
 7131WAT      O29243   3.414   6.519   4.808
 7131WAT     H129244   3.369   6.583   4.846
 7131WAT     H229245   3.484   6.511   4.859
 7131WAT    EPW29246   3.417   6.527   4.821
 7132WAT      O29247   3.621   6.287   5.759
 7132WAT     H129248   3.699   6.248   5.767
 7132WAT     H229249   3.575   6.253   5.825
 7132WAT    EPW29250   3.626   6.276   5.770
 7133WAT      O29251   2.391   5.381   5.336
 7133WAT     H129252   2.428   5.443   5.287
 7133WAT     H229253   2.458   5.334   5.364
 7133WAT    EPW29254   2.406   5.384   5.333
 7134WAT      O29255   2.168   5.226   5.263
 7134WAT     H129256   2.176   5.209   5.178
 7134WAT     H229257   2.243   5.267   5.283
 7134WAT    EPW29258   2.180   5.230   5.254
 7135WAT      O29259   2.423   4.967   5.504
 7135WAT     H129260   2.415   4.883   5.525
 7135WAT     H229261   2.392   4.972   5.423
 7135WAT    EPW29262   2.418   4.955   5.495
 7136WAT      O29263   3.116   6.187   4.418
 7136WAT     H129264   3.095   6.270   4.402
 7136WAT     H229265   3.038   6.148   4.430
 7136WAT    EPW29266   3.101   6.193   4.417
 7137WAT      O29267   2.108   5.749   5.286
 7137WAT     H129268   2.140   5.771   5.208
 7137WAT     H229269   2.098   5.662   5.280
 7137WAT    EPW29270   2.111   5.739   5.273
 7138WAT      O29271   2.253   5.342   3.947
 7138WAT     H129272   2.186   5.344   4.003
 7138WAT     H229273   2.263   5.258   3.929
 7138WAT    EPW29274   2.245   5.330   3.953
 7139WAT      O29275   3.222   4.985   5.621
 7139WAT     H129276   3.231   5.056   5.670
 7139WAT     H229277   3.158   4.940   5.661
 7139WAT    EPW29278   3.214   4.989   5.634
 7140WAT      O29279   2.652   6.213   4.059
 7140WAT     H129280   2.696   6.221   4.134
 7140WAT     H229281   2.572   6.191   4.085
 7140WAT    EPW29282   2.647   6.211   4.074
 7141WAT      O29283   2.584   5.678   5.424
 7141WAT     H129284   2.544   5.755   5.432
 7141WAT     H229285   2.543   5.641   5.357
 7141WAT    EPW29286   2.572   5.684   5.415
 7142WAT      O29287   3.543   6.390   4.416
 7142WAT     H129288   3.526   6.325   4.471
 7142WAT     H229289   3.614   6.363   4.374
 7142WAT    EPW29290   3.551   6.376   4.418
 7143WAT      O29291   2.385   6.120   4.119
 7143WAT     H129292   2.361   6.089   4.197
 7143WAT     H229293   2.382   6.050   4.067
 7143WAT    EPW29294   2.381   6.105   4.123
 7144WAT      O29295   2.667   5.944   3.993
 7144WAT     H129296   2.585   5.918   4.007
 7144WAT     H229297   2.664   6.030   4.012
 7144WAT    EPW29298   2.654   5.953   3.998
 7145WAT      O29299   2.627   4.976   5.169
 7145WAT     H129300   2.541   4.984   5.177
 7145WAT     H229301   2.649   4.924   5.236
 7145WAT    EPW29302   2.617   4.969   5.180
 7146WAT      O29303   3.310   6.135   5.185
 7146WAT     H129304   3.331   6.165   5.265
 7146WAT     H229305   3.304   6.207   5.137
 7146WAT    EPW29306   3.313   6.150   5.190
 7147WAT      O29307   3.264   6.557   5.610
 7147WAT     H129308   3.189   6.555   5.566
 7147WAT     H229309   3.281   6.642   5.618
 7147WAT    EPW29310   3.255   6.569   5.605
 7148WAT      O29311   2.788   5.483   5.527
 7148WAT     H129312   2.755   5.426   5.470
 7148WAT     H229313   2.752   5.559   5.502
 7148WAT    EPW29314   2.778   5.486   5.515
 7149WAT      O29315   3.792   5.999   5.131
 7149WAT     H129316   3.788   5.913   5.118
 7149WAT     H229317   3.722   6.029   5.088
 7149WAT    EPW29318   3.781   5.991   5.123
 7150WAT      O29319   2.631   6.519   5.552
 7150WAT     H129320   2.635   6.532   5.638
 7150WAT     H229321   2.696   6.463   5.536
 7150WAT    EPW29322   2.641   6.513   5.562
 7151WAT      O29323   3.602   6.325   5.011
 7151WAT     H129324   3.655   6.317   4.942
 7151WAT     H229325   3.563   6.247   5.016
 7151WAT    EPW29326   3.604   6.312   5.001
 7152WAT      O29327   2.349   4.984   5.234
 7152WAT     H129328   2.315   4.907   5.211
 7152WAT     H229329   2.279   5.036   5.240
 7152WAT    EPW29330   2.334   4.980   5.231
 7153WAT      O29331   2.390   6.357   5.688
 7153WAT     H129332   2.450   6.400   5.735
 7153WAT     H229333   2.354   6.420   5.639
 7153WAT    EPW29334   2.394   6.373   5.687
 7154WAT      O29335   2.214   5.315   4.630
 7154WAT     H129336   2.177   5.346   4.703
 7154WAT     H229337   2.268   5.252   4.658
 7154WAT    EPW29338   2.217   5.311   4.645
 7155WAT      O29339   2.183   6.156   5.381
 7155WAT     H129340   2.126   6.198   5.432
 7155WAT     H229341   2.256   6.203   5.390
 7155WAT    EPW29342   2.185   6.169   5.390
 7156WAT      O29343   3.386   5.633   4.337
 7156WAT     H129344   3.393   5.548   4.355
 7156WAT     H229345   3.304   5.642   4.309
 7156WAT    EPW29346   3.375   5.622   4.336
 7157WAT      O29347   2.362   6.483   4.258
 7157WAT     H129348   2.347   6.498   4.174
 7157WAT     H229349   2.448   6.491   4.266
 7157WAT    EPW29350   2.372   6.486   4.247
 7158WAT      O29351   2.778   5.723   4.231
 7158WAT     H129352   2.788   5.736   4.145
 7158WAT     H229353   2.860   5.717   4.261
 7158WAT    EPW29354   2.792   5.724   4.223
 7159WAT      O29355   3.694   6.529   3.979
 7159WAT     H129356   3.758   6.516   4.037
 7159WAT     H229357   3.660   6.450   3.967
 7159WAT    EPW29358   3.699   6.515   3.986
 7160WAT      O29359   3.714   5.771   5.652
 7160WAT     H129360   3.777   5.754   5.710
 7160WAT     H229361   3.756   5.811   5.587
 7160WAT    EPW29362   3.729   5.774   5.651
 7161WAT      O29363   3.302   6.155   4.211
 7161WAT     H129364   3.277   6.143   4.294
 7161WAT     H229365   3.270   6.086   4.169
 7161WAT    EPW29366   3.293   6.143   4.217
 7162WAT      O29367   2.692   5.020   5.543
 7162WAT     H129368   2.716   4.962   5.481
 7162WAT     H229369   2.608   5.002   5.557
 7162WAT    EPW29370   2.683   5.009   5.536
 7163WAT      O29371   3.455   5.782   5.788
 7163WAT     H129372   3.542   5.778   5.784
 7163WAT     H229373   3.433   5.824   5.715
 7163WAT    EPW29374   3.465   5.787   5.776
 7164WAT      O29375   2.430   6.364   4.906
 7164WAT     H129376   2.422   6.283   4.874
 7164WAT     H229377   2.386   6.413   4.849
 7164WAT    EPW29378   2.423   6.360   4.893
 7165WAT      O29379   2.990   5.976   4.154
 7165WAT     H129380   3.062   5.942   4.119
 7165WAT     H229381   2.987   6.056   4.119
 7165WAT    EPW29382   3.001   5.983   4.144
 7166WAT      O29383   2.188   6.589   5.264
 7166WAT     H129384   2.237   6.583   5.336
 7166WAT     H229385   2.206   6.515   5.220
 7166WAT    EPW29386   2.198   6.577   5.268
 7167WAT      O29387   3.131   4.840   2.578
 7167WAT     H129388   3.107   4.889   2.510
 7167WAT     H229389   3.218   4.833   2.568
 7167WAT    EPW29390   3.140   4.846   2.567
 7168WAT      O29391   3.112   5.532   3.045
 7168WAT     H129392   3.060   5.592   3.081
 7168WAT     H229393   3.152   5.495   3.114
 7168WAT    EPW29394   3.110   5.535   3.061
 7169WAT      O29395   2.099   5.946   2.591
 7169WAT     H129396   2.055   5.958   2.665
 7169WAT     H229397   2.071   5.868   2.562
 7169WAT    EPW29398   2.088   5.936   2.598
 7170WAT      O29399   3.727   6.276   2.342
 7170WAT     H129400   3.797   6.224   2.342
 7170WAT     H229401   3.668   6.232   2.295
 7170WAT    EPW29402   3.728   6.262   2.335
 7171WAT      O29403   2.073   5.325   2.241
 7171WAT     H129404   1.996   5.341   2.205
 7171WAT     H229405   2.077   5.238   2.244
 7171WAT    EPW29406   2.063   5.315   2.236
 7172WAT      O29407   2.387   5.851   2.109
 7172WAT     H129408   2.348   5.814   2.040
 7172WAT     H229409   2.379   5.792   2.172
 7172WAT    EPW29410   2.380   5.837   2.108
 7173WAT      O29411   3.379   5.639   2.713
 7173WAT     H129412   3.387   5.639   2.626
 7173WAT     H229413   3.321   5.575   2.728
 7173WAT    EPW29414   3.372   5.629   2.702
 7174WAT      O29415   2.350   6.016   2.499
 7174WAT     H129416   2.411   5.999   2.559
 7174WAT     H229417   2.275   6.002   2.541
 7174WAT    EPW29418   2.348   6.011   2.514
 7175WAT      O29419   2.778   4.949   2.494
 7175WAT     H129420   2.771   5.017   2.439
 7175WAT     H229421   2.852   4.910   2.469
 7175WAT    EPW29422   2.788   4.953   2.482
 7176WAT      O29423   2.239   6.325   2.106
 7176WAT     H129424   2.286   6.333   2.033
 7176WAT     H229425   2.285   6.267   2.153
 7176WAT    EPW29426   2.253   6.317   2.102
 7177WAT      O29427   2.093   6.219   3.216
 7177WAT     H129428   2.106   6.191   3.298
 7177WAT     H229429   2.032   6.165   3.185
 7177WAT    EPW29430   2.086   6.207   3.224
 7178WAT      O29431   2.751   5.972   3.723
 7178WAT     H129432   2.727   5.972   3.807
 7178WAT     H229433   2.676   5.957   3.681
 7178WAT    EPW29434   2.736   5.970   3.729
 7179WAT      O29435   2.238   5.672   2.636
 7179WAT     H129436   2.192   5.632   2.574
 7179WAT     H229437   2.308   5.620   2.646
 7179WAT    EPW29438   2.241   5.658   2.629
 7180WAT      O29439   2.689   5.233   3.171
 7180WAT     H129440   2.756   5.234   3.116
 7180WAT     H229441   2.684   5.149   3.196
 7180WAT    EPW29442   2.698   5.220   3.167
 7181WAT      O29443   2.749   6.291   3.449
 7181WAT     H129444   2.763   6.367   3.409
 7181WAT     H229445   2.828   6.255   3.452
 7181WAT    EPW29446   2.762   6.297   3.444
 7182WAT      O29447   2.438   5.482   2.639
 7182WAT     H129448   2.520   5.463   2.663
 7182WAT     H229449   2.390   5.420   2.678
 7182WAT    EPW29450   2.443   5.470   2.648
 7183WAT      O29451   2.858   6.080   2.900
 7183WAT     H129452   2.893   6.000   2.903
 7183WAT     H229453   2.925   6.130   2.874
 7183WAT    EPW29454   2.873   6.075   2.896
 7184WAT      O29455   2.864   6.025   2.521
 7184WAT     H129456   2.897   5.960   2.569
 7184WAT     H229457   2.888   6.003   2.440
 7184WAT    EPW29458   2.872   6.012   2.516
 7185WAT      O29459   2.498   4.991   2.565
 7185WAT     H129460   2.468   5.041   2.500
 7185WAT     H229461   2.584   4.999   2.560
 7185WAT    EPW29462   2.506   5.000   2.555
 7186WAT      O29463   3.517   4.734   3.566
 7186WAT     H129464   3.501   4.811   3.528
 7186WAT     H229465   3.439   4.712   3.601
 7186WAT    EPW29466   3.503   4.742   3.566
 7187WAT      O29467   2.795   4.905   2.788
 7187WAT     H129468   2.803   4.991   2.801
 7187WAT     H229469   2.792   4.898   2.701
 7187WAT    EPW29470   2.796   4.917   2.777
 7188WAT      O29471   3.263   5.198   2.018
 7188WAT     H129472   3.218   5.266   2.048
 7188WAT     H229473   3.274   5.147   2.088
 7188WAT    EPW29474   3.258   5.200   2.032
 7189WAT      O29475   2.083   5.448   2.938
 7189WAT     H129476   2.058   5.531   2.930
 7189WAT     H229477   2.017   5.409   2.979
 7189WAT    EPW29478   2.070   5.454   2.943
 7190WAT      O29479   2.074   6.419   2.728
 7190WAT     H129480   2.015   6.474   2.696
 7190WAT     H229481   2.117   6.392   2.657
 7190WAT    EPW29482   2.072   6.423   2.713
 7191WAT      O29483   2.658   6.203   2.476
 7191WAT     H129484   2.600   6.176   2.535
 7191WAT     H229485   2.721   6.142   2.478
 7191WAT    EPW29486   2.659   6.190   2.485
 7192WAT      O29487   3.273   6.432   2.228
 7192WAT     H129488   3.345   6.479   2.238
 7192WAT     H229489   3.296   6.352   2.256
 7192WAT    EPW29490   3.287   6.427   2.234
 7193WAT      O29491   3.089   6.471   2.427
 7193WAT     H129492   3.111   6.524   2.493
 7193WAT     H229493   3.166   6.454   2.389
 7193WAT    EPW29494   3.104   6.476   2.431
 7194WAT      O29495   2.386   4.929   2.987
 7194WAT     H129496   2.334   4.867   2.956
 7194WAT     H229497   2.445   4.886   3.034
 7194WAT    EPW29498   2.387   4.914   2.989
 7195WAT      O29499   2.717   5.143   3.917
 7195WAT     H129500   2.729   5.097   3.843
 7195WAT     H229501   2.746   5.222   3.896
 7195WAT    EPW29502   2.723   5.148   3.903
 7196WAT      O29503   2.229   6.286   2.521
 7196WAT     H129504   2.294   6.228   2.522
 7196WAT     H229505   2.268   6.361   2.499
 7196WAT    EPW29506   2.244   6.288   2.518
 7197WAT      O29507   3.802   5.195   2.647
 7197WAT     H129508   3.768   5.263   2.690
 7197WAT     H229509   3.739   5.135   2.649
 7197WAT    EPW29510   3.788   5.196   2.654
 7198WAT      O29511   3.333   6.472   3.257
 7198WAT     H129512   3.408   6.518   3.256
 7198WAT     H229513   3.321   6.451   3.174
 7198WAT    EPW29514   3.343   6.476   3.245
 7199WAT      O29515   2.290   5.102   3.815
 7199WAT     H129516   2.212   5.063   3.808
 7199WAT     H229517   2.339   5.061   3.756
 7199WAT    EPW29518   2.286   5.090   3.805
 7200WAT      O29519   2.311   6.134   2.871
 7200WAT     H129520   2.353   6.099   2.803
 7200WAT     H229521   2.343   6.092   2.940
 7200WAT    EPW29522   2.322   6.123   2.871
 7201WAT      O29523   2.634   6.420   2.800
 7201WAT     H129524   2.718   6.430   2.781
 7201WAT     H229525   2.604   6.501   2.807
 7201WAT    EPW29526   2.642   6.433   2.799
 7202WAT      O29527   3.014   5.359   2.609
 7202WAT     H129528   3.043   5.336   2.530
 7202WAT     H229529   3.088   5.367   2.656
 7202WAT    EPW29530   3.029   5.357   2.604
 7203WAT      O29531   3.087   5.393   2.121
 7203WAT     H129532   3.115   5.472   2.146
 7203WAT     H229533   3.009   5.410   2.085
 7203WAT    EPW29534   3.079   5.407   2.120
 7204WAT      O29535   3.491   6.591   2.268
 7204WAT     H129536   3.557   6.576   2.213
 7204WAT     H229537   3.527   6.582   2.347
 7204WAT    EPW29538   3.506   6.587   2.272
 7205WAT      O29539   2.534   6.541   3.374
 7205WAT     H129540   2.563   6.535   3.456
 7205WAT     H229541   2.471   6.481   3.370
 7205WAT    EPW29542   2.529   6.532   3.386
 7206WAT      O29543   3.770   5.027   3.184
 7206WAT     H129544   3.845   5.035   3.141
 7206WAT     H229545   3.776   4.950   3.224
 7206WAT    EPW29546   3.782   5.017   3.183
 7207WAT      O29547   2.025   5.157   3.574
 7207WAT     H129548   2.025   5.216   3.638
 7207WAT     H229549   2.084   5.188   3.518
 7207WAT    EPW29550   2.034   5.170   3.575
 7208WAT      O29551   3.259   6.191   3.628
 7208WAT     H129552   3.255   6.229   3.706
 7208WAT     H229553   3.344   6.186   3.611
 7208WAT    EPW29554   3.271   6.196   3.637
 7209WAT      O29555   2.973   6.210   2.103
 7209WAT     H129556   2.954   6.265   2.169
 7209WAT     H229557   3.049   6.239   2.073
 7209WAT    EPW29558   2.981   6.223   2.108
 7210WAT      O29559   3.323   5.000   2.208
 7210WAT     H129560   3.377   4.932   2.216
 7210WAT     H229561   3.329   5.040   2.286
 7210WAT    EPW29562   3.332   4.996   2.221
 7211WAT      O29563   2.119   5.117   2.465
 7211WAT     H129564   2.107   5.030   2.468
 7211WAT     H229565   2.071   5.146   2.532
 7211WAT    EPW29566   2.110   5.108   2.475
 7212WAT      O29567   2.333   6.358   3.287
 7212WAT     H129568   2.263   6.307   3.299
 7212WAT     H229569   2.359   6.337   3.206
 7212WAT    EPW29570   2.326   6.347   3.277
 7213WAT      O29571   3.049   5.237   2.340
 7213WAT     H129572   2.998   5.171   2.314
 7213WAT     H229573   3.054   5.288   2.269
 7213WAT    EPW29574   3.042   5.235   2.325
 7214WAT      O29575   3.104   6.507   3.378
 7214WAT     H129576   3.181   6.499   3.337
 7214WAT     H229577   3.046   6.495   3.314
 7214WAT    EPW29578   3.107   6.504   3.362
 7215WAT      O29579   3.049   4.932   2.329
 7215WAT     H129580   3.004   4.891   2.266
 7215WAT     H229581   3.126   4.947   2.291
 7215WAT    EPW29582   3.054   4.928   2.314
 7216WAT      O29583   3.732   6.567   2.668
 7216WAT     H129584   3.686   6.639   2.688
 7216WAT     H229585   3.670   6.510   2.644
 7216WAT    EPW29586   3.716   6.569   2.667
 7217WAT      O29587   2.909   5.168   2.781
 7217WAT     H129588   2.916   5.225   2.715
 7217WAT     H229589   2.921   5.217   2.852
 7217WAT    EPW29590   2.912   5.184   2.782
 7218WAT      O29591   3.431   6.152   2.622
 7218WAT     H129592   3.501   6.104   2.641
 7218WAT     H229593   3.365   6.095   2.627
 7218WAT    EPW29594   3.432   6.136   2.626
 7219WAT      O29595   2.469   6.243   3.543
 7219WAT     H129596   2.553   6.249   3.521
 7219WAT     H229597   2.465   6.282   3.621
 7219WAT    EPW29598   2.481   6.250   3.552
 7220WAT      O29599   2.370   4.751   2.616
 7220WAT     H129600   2.423   4.819   2.615
 7220WAT     H229601   2.370   4.723   2.533
 7220WAT    EPW29602   2.378   4.757   2.603
 7221WAT      O29603   2.665   5.794   3.018
 7221WAT     H129604   2.682   5.773   3.101
 7221WAT     H229605   2.600   5.740   2.997
 7221WAT    EPW29606   2.658   5.783   3.027
 7222WAT      O29607   2.740   5.788   3.277
 7222WAT     H129608   2.746   5.872   3.297
 7222WAT     H229609   2.712   5.751   3.351
 7222WAT    EPW29610   2.737   5.795   3.291
 7223WAT      O29611   3.358   5.857   3.190
 7223WAT     H129612   3.307   5.816   3.247
 7223WAT     H229613   3.345   5.942   3.208
 7223WAT    EPW29614   3.349   5.864   3.201
 7224WAT      O29615   3.414   4.780   2.653
 7224WAT     H129616   3.419   4.748   2.734
 7224WAT     H229617   3.446   4.715   2.604
 7224WAT    EPW29618   3.419   4.765   2.658
 7225WAT      O29619   2.022   6.225   3.898
 7225WAT     H129620   2.098   6.260   3.924
 7225WAT     H229621   2.040   6.139   3.893
 7225WAT    EPW29622   2.036   6.217   3.901
 7226WAT      O29623   2.414   5.132   2.781
 7226WAT     H129624   2.442   5.089   2.710
 7226WAT     H229625   2.397   5.068   2.838
 7226WAT    EPW29626   2.416   5.116   2.779
 7227WAT      O29627   3.683   5.901   2.203
 7227WAT     H129628   3.695   5.872   2.284
 7227WAT     H229629   3.764   5.903   2.170
 7227WAT    EPW29630   3.697   5.897   2.210
 7228WAT      O29631   2.397   5.874   2.736
 7228WAT     H129632   2.482   5.866   2.719
 7228WAT     H229633   2.361   5.806   2.695
 7228WAT    EPW29634   2.404   5.863   2.727
 7229WAT      O29635   2.274   6.547   2.860
 7229WAT     H129636   2.206   6.497   2.835
 7229WAT     H229637   2.314   6.565   2.785
 7229WAT    EPW29638   2.270   6.542   2.845
 7230WAT      O29639   2.229   5.242   3.089
 7230WAT     H129640   2.313   5.264   3.085
 7230WAT     H229641   2.190   5.299   3.036
 7230WAT    EPW29642   2.235   5.253   3.081
 7231WAT      O29643   3.907   6.352   3.628
 7231WAT     H129644   3.838   6.383   3.584
 7231WAT     H229645   3.870   6.306   3.693
 7231WAT    EPW29646   3.891   6.350   3.631
 7232WAT      O29647   3.473   5.555   2.161
 7232WAT     H129648   3.451   5.628   2.119
 7232WAT     H229649   3.428   5.560   2.236
 7232WAT    EPW29650   3.463   5.566   2.166
 7233WAT      O29651   2.634   5.875   2.560
 7233WAT     H129652   2.705   5.924   2.569
 7233WAT     H229653   2.656   5.818   2.497
 7233WAT    EPW29654   2.647   5.874   2.552
 7234WAT      O29655   2.049   6.039   2.892
 7234WAT     H129656   1.983   6.088   2.919
 7234WAT     H229657   2.117   6.094   2.894
 7234WAT    EPW29658   2.049   6.054   2.896
 7235WAT      O29659   2.814   5.410   3.901
 7235WAT     H129660   2.766   5.468   3.945
 7235WAT     H229661   2.811   5.440   3.819
 7235WAT    EPW29662   2.806   5.423   3.896
 7236WAT      O29663   3.924   5.479   3.362
 7236WAT     H129664   3.945   5.399   3.335
 7236WAT     H229665   3.839   5.485   3.343
 7236WAT    EPW29666   3.914   5.468   3.355
 7237WAT      O29667   2.056   5.708   2.402
 7237WAT     H129668   2.037   5.624   2.417
 7237WAT     H229669   2.122   5.704   2.345
 7237WAT    EPW29670   2.063   5.695   2.396
 7238WAT      O29671   3.692   4.997   2.335
 7238WAT     H129672   3.766   4.956   2.355
 7238WAT     H229673   3.718   5.068   2.292
 7238WAT    EPW29674   3.707   5.001   2.331
 7239WAT      O29675   3.086   6.245   2.792
 7239WAT     H129676   3.034   6.309   2.763
 7239WAT     H229677   3.117   6.209   2.719
 7239WAT    EPW29678   3.083   6.249   2.777
 7240WAT      O29679   2.073   6.124   2.359
 7240WAT     H129680   2.128   6.181   2.396
 7240WAT     H229681   2.050   6.073   2.426
 7240WAT    EPW29682   2.078   6.125   2.375
 7241WAT      O29683   2.493   6.024   3.068
 7241WAT     H129684   2.540   6.053   3.136
 7241WAT     H229685   2.551   5.976   3.023
 7241WAT    EPW29686   2.509   6.021   3.072
 7242WAT      O29687   3.337   5.225   2.842
 7242WAT     H129688   3.371   5.241   2.921
 7242WAT     H229689   3.292   5.152   2.853
 7242WAT    EPW29690   3.335   5.217   2.855
 7243WAT      O29691   2.056   5.969   2.122
 7243WAT     H129692   2.132   5.926   2.128
 7243WAT     H229693   2.058   6.022   2.191
 7243WAT    EPW29694   2.067   5.970   2.133
 7244WAT      O29695   2.150   5.791   2.923
 7244WAT     H129696   2.193   5.778   2.848
 7244WAT     H229697   2.130   5.876   2.920
 7244WAT    EPW29698   2.153   5.802   2.911
 7245WAT      O29699   2.785   5.147   2.288
 7245WAT     H129700   2.784   5.136   2.201
 7245WAT     H229701   2.767   5.232   2.297
 7245WAT    EPW29702   2.782   5.158   2.276
 7246WAT      O29703   3.690   6.390   3.437
 7246WAT     H129704   3.623   6.442   3.459
 7246WAT     H229705   3.696   6.400   3.351
 7246WAT    EPW29706   3.681   6.399   3.428
 7247WAT      O29707   2.558   6.143   2.751
 7247WAT     H129708   2.571   6.227   2.770
 7247WAT     H229709   2.625   6.103   2.790
 7247WAT    EPW29710   2.570   6.149   2.759
 7248WAT      O29711   2.371   5.491   3.737
 7248WAT     H129712   2.318   5.440   3.784
 7248WAT     H229713   2.373   5.452   3.659
 7248WAT    EPW29714   2.364   5.478   3.732
 7249WAT      O29715   2.420   5.431   2.251
 7249WAT     H129716   2.407   5.386   2.325
 7249WAT     H229717   2.362   5.396   2.196
 7249WAT    EPW29718   2.409   5.419   2.254
 7250WAT      O29719   2.437   5.614   2.911
 7250WAT     H129720   2.359   5.608   2.873
 7250WAT     H229721   2.444   5.538   2.955
 7250WAT    EPW29722   2.426   5.602   2.912
 7251WAT      O29723   3.469   5.359   3.097
 7251WAT     H129724   3.403   5.391   3.144
 7251WAT     H229725   3.488   5.422   3.040
 7251WAT    EPW29726   3.462   5.373   3.096
 7252WAT      O29727   2.890   6.465   3.197
 7252WAT     H129728   2.862   6.401   3.145
 7252WAT     H229729   2.869   6.538   3.153
 7252WAT    EPW29730   2.883   6.466   3.183
 7253WAT      O29731   3.288   5.156   2.448
 7253WAT     H129732   3.337   5.227   2.441
 7253WAT     H229733   3.209   5.182   2.422
 7253WAT    EPW29734   3.284   5.170   2.443
 7254WAT      O29735   2.260   5.723   3.814
 7254WAT     H129736   2.256   5.773   3.742
 7254WAT     H229737   2.293   5.648   3.784
 7254WAT    EPW29738   2.264   5.719   3.799
 7255WAT      O29739   3.420   5.943   3.639
 7255WAT     H129740   3.468   6.015   3.649
 7255WAT     H229741   3.459   5.901   3.574
 7255WAT    EPW29742   3.433   5.948   3.631
 7256WAT      O29743   2.849   6.228   3.757
 7256WAT     H129744   2.885   6.210   3.835
 7256WAT     H229745   2.806   6.155   3.737
 7256WAT    EPW29746   2.848   6.214   3.766
 7257WAT      O29747   2.947   5.303   3.021
 7257WAT     H129748   2.995   5.372   3.042
 7257WAT     H229749   2.984   5.238   3.066
 7257WAT    EPW29750   2.959   5.303   3.031
 7258WAT      O29751   3.166   5.619   2.248
 7258WAT     H129752   3.165   5.692   2.199
 7258WAT     H229753   3.102   5.633   2.306
 7258WAT    EPW29754   3.156   5.632   2.250
 7259WAT      O29755   3.663   6.006   2.646
 7259WAT     H129756   3.698   5.971   2.718
 7259WAT     H229757   3.662   5.940   2.589
 7259WAT    EPW29758   3.668   5.991   2.649
 7260WAT      O29759   3.267   6.313   3.031
 7260WAT     H129760   3.207   6.283   2.975
 7260WAT     H229761   3.322   6.358   2.980
 7260WAT    EPW29762   3.266   6.315   3.015
 7261WAT      O29763   3.269   5.998   2.971
 7261WAT     H129764   3.189   6.021   2.998
 7261WAT     H229765   3.294   5.939   3.029
 7261WAT    EPW29766   3.261   5.993   2.984
 7262WAT      O29767   2.658   6.479   2.416
 7262WAT     H129768   2.643   6.402   2.453
 7262WAT     H229769   2.727   6.465   2.364
 7262WAT    EPW29770   2.666   6.466   2.414
 7263WAT      O29771   2.625   4.854   2.214
 7263WAT     H129772   2.635   4.843   2.301
 7263WAT     H229773   2.554   4.904   2.208
 7263WAT    EPW29774   2.616   4.860   2.226
 7264WAT      O29775   2.887   6.431   2.256
 7264WAT     H129776   2.949   6.447   2.315
 7264WAT     H229777   2.891   6.500   2.203
 7264WAT    EPW29778   2.897   6.444   2.257
 7265WAT      O29779   3.595   5.798   3.455
 7265WAT     H129780   3.600   5.810   3.369
 7265WAT     H229781   3.670   5.830   3.486
 7265WAT    EPW29782   3.606   5.804   3.447
 7266WAT      O29783   3.214   6.333   3.883
 7266WAT     H129784   3.230   6.361   3.964
 7266WAT     H229785   3.240   6.399   3.833
 7266WAT    EPW29786   3.220   6.347   3.888
 7267WAT      O29787   2.337   5.684   2.339
 7267WAT     H129788   2.369   5.606   2.317
 7267WAT     H229789   2.402   5.721   2.384
 7267WAT    EPW29790   2.351   5.678   2.342
 7268WAT      O29791   3.168   5.779   3.415
 7268WAT     H129792   3.152   5.840   3.476
 7268WAT     H229793   3.221   5.723   3.456
 7268WAT    EPW29794   3.173   5.779   3.430
 7269WAT      O29795   2.037   4.850   2.436
 7269WAT     H129796   2.050   4.780   2.386
 7269WAT     H229797   2.000   4.819   2.508
 7269WAT    EPW29798   2.033   4.835   2.439
 7270WAT      O29799   3.006   5.619   2.481
 7270WAT     H129800   3.012   5.684   2.539
 7270WAT     H229801   2.987   5.549   2.530
 7270WAT    EPW29802   3.004   5.618   2.497
 7271WAT      O29803   3.529   6.051   3.068
 7271WAT     H129804   3.481   6.081   3.002
 7271WAT     H229805   3.493   5.974   3.086
 7271WAT    EPW29806   3.516   6.044   3.061
 7272WAT      O29807   2.456   5.070   2.132
 7272WAT     H129808   2.405   5.076   2.062
 7272WAT     H229809   2.534   5.094   2.103
 7272WAT    EPW29810   2.460   5.075   2.118
 7273WAT      O29811   2.928   5.823   2.924
 7273WAT     H129812   2.844   5.804   2.932
 7273WAT     H229813   2.961   5.807   3.004
 7273WAT    EPW29814   2.921   5.818   2.937
 7274WAT      O29815   2.604   6.496   2.013
 7274WAT     H129816   2.647   6.427   2.042
 7274WAT     H229817   2.624   6.559   2.070
 7274WAT    EPW29818   2.613   6.495   2.026
 7275WAT      O29819   2.313   5.793   3.156
 7275WAT     H129820   2.385   5.841   3.152
 7275WAT     H229821   2.286   5.790   3.073
 7275WAT    EPW29822   2.320   5.799   3.143
 7276WAT      O29823   2.636   5.310   2.829
 7276WAT     H129824   2.721   5.291   2.839
 7276WAT     H229825   2.599   5.232   2.816
 7276WAT    EPW29826   2.643   5.295   2.829
 7277WAT      O29827   3.898   6.468   2.262
 7277WAT     H129828   3.967   6.421   2.237
 7277WAT     H229829   3.844   6.408   2.296
 7277WAT    EPW29830   3.900   6.452   2.263
 7278WAT      O29831   2.118   5.443   2.495
 7278WAT     H129832   2.167   5.414   2.561
 7278WAT     H229833   2.131   5.384   2.432
 7278WAT    EPW29834   2.127   5.430   2.495
 7279WAT      O29835   3.622   5.746   3.180
 7279WAT     H129836   3.621   5.668   3.220
 7279WAT     H229837   3.538   5.769   3.179
 7279WAT    EPW29838   3.609   5.738   3.186
 7280WAT      O29839   2.571   5.587   2.044
 7280WAT     H129840   2.510   5.546   2.091
 7280WAT     H229841   2.532   5.599   1.966
 7280WAT    EPW29842   2.556   5.583   2.039
 7281WAT      O29843   2.253   5.898   3.584
 7281WAT     H129844   2.211   5.846   3.528
 7281WAT     H229845   2.217   5.976   3.569
 7281WAT    EPW29846   2.241   5.902   3.573
 7282WAT      O29847   3.747   5.753   2.924
 7282WAT     H129848   3.719   5.793   2.996
 7282WAT     H229849   3.833   5.747   2.936
 7282WAT    EPW29850   3.756   5.758   2.936
 7283WAT      O29851   2.716   5.433   2.315
 7283WAT     H129852   2.743   5.516   2.321
 7283WAT     H229853   2.630   5.440   2.305
 7283WAT    EPW29854   2.708   5.446   2.314
 7284WAT      O29855   2.064   5.030   2.968
 7284WAT     H129856   2.069   5.064   2.888
 7284WAT     H229857   2.140   5.054   3.005
 7284WAT    EPW29858   2.076   5.039   2.962
 7285WAT      O29859   3.860   6.316   2.977
 7285WAT     H129860   3.889   6.342   2.899
 7285WAT     H229861   3.930   6.326   3.029
 7285WAT    EPW29862   3.875   6.321   2.973
 7286WAT      O29863   3.521   6.176   2.175
 7286WAT     H129864   3.554   6.096   2.178
 7286WAT     H229865   3.445   6.169   2.218
 7286WAT    EPW29866   3.515   6.163   2.182
 7287WAT      O29867   3.569   5.360   2.741
 7287WAT     H129868   3.495   5.327   2.773
 7287WAT     H229869   3.569   5.442   2.769
 7287WAT    EPW29870   3.558   5.367   2.750
 7288WAT      O29871   3.813   5.956   3.516
 7288WAT     H129872   3.876   5.901   3.490
 7288WAT     H229873   3.807   6.012   3.450
 7288WAT    EPW29874   3.822   5.956   3.502
 7289WAT      O29875   3.258   5.964   2.115
 7289WAT     H129876   3.327   5.912   2.098
 7289WAT     H229877   3.217   5.968   2.039
 7289WAT    EPW29878   3.262   5.957   2.101
 7290WAT      O29879   2.727   6.079   3.246
 7290WAT     H129880   2.697   6.138   3.302
 7290WAT     H229881   2.732   6.123   3.171
 7290WAT    EPW29882   2.723   6.094   3.243
 7291WAT      O29883   2.524   5.974   3.585
 7291WAT     H129884   2.444   5.945   3.602
 7291WAT     H229885   2.516   6.061   3.586
 7291WAT    EPW29886   2.511   5.982   3.588
 7292WAT      O29887   2.978   5.721   3.195
 7292WAT     H129888   3.026   5.759   3.257
 7292WAT     H229889   2.896   5.735   3.221
 7292WAT    EPW29890   2.973   5.729   3.208
 7293WAT      O29891   2.649   5.281   3.469
 7293WAT     H129892   2.665   5.207   3.511
 7293WAT     H229893   2.645   5.257   3.385
 7293WAT    EPW29894   2.651   5.267   3.463
 7294WAT      O29895   2.905   6.460   2.717
 7294WAT     H129896   2.959   6.528   2.723
 7294WAT     H229897   2.870   6.469   2.638
 7294WAT    EPW29898   2.907   6.472   2.706
 7295WAT      O29899   3.589   4.791   3.254
 7295WAT     H129900   3.561   4.873   3.249
 7295WAT     H229901   3.660   4.796   3.303
 7295WAT    EPW29902   3.595   4.804   3.261
 7296WAT      O29903   2.824   4.862   3.457
 7296WAT     H129904   2.895   4.894   3.417
 7296WAT     H229905   2.848   4.782   3.479
 7296WAT    EPW29906   2.838   4.855   3.454
 7297WAT      O29907   3.154   5.947   3.755
 7297WAT     H129908   3.229   5.975   3.723
 7297WAT     H229909   3.099   5.952   3.687
 7297WAT    EPW29910   3.157   5.952   3.740
 7298WAT      O29911   3.545   6.202   3.606
 7298WAT     H129912   3.579   6.229   3.681
 7298WAT     H229913   3.574   6.260   3.548
 7298WAT    EPW29914   3.554   6.214   3.608
 7299WAT      O29915   3.731   5.416   2.140
 7299WAT     H129916   3.769   5.484   2.100
 7299WAT     H229917   3.647   5.439   2.143
 7299WAT    EPW29918   3.724   5.430   2.134
 7300WAT      O29919   2.882   5.761   2.048
 7300WAT     H129920   2.802   5.743   2.019
 7300WAT     H229921   2.879   5.846   2.067
 7300WAT    EPW29922   2.870   5.771   2.047
 7301WAT      O29923   2.475   5.368   3.063
 7301WAT     H129924   2.519   5.357   2.988
 7301WAT     H229925   2.530   5.336   3.123
 7301WAT    EPW29926   2.490   5.361   3.061
 7302WAT      O29927   2.988   6.448   3.644
 7302WAT     H129928   3.036   6.388   3.603
 7302WAT     H229929   2.953   6.404   3.711
 7302WAT    EPW29930   2.990   6.433   3.648
 7303WAT      O29931   3.500   5.376   2.477
 7303WAT     H129932   3.521   5.356   2.559
 7303WAT     H229933   3.576   5.403   2.443
 7303WAT    EPW29934   3.515   5.377   2.484
 7304WAT      O29935   2.830   4.866   3.068
 7304WAT     H129936   2.747   4.851   3.091
 7304WAT     H229937   2.826   4.870   2.980
 7304WAT    EPW29938   2.817   4.864   3.058
 7305WAT      O29939   3.603   4.984   2.624
 7305WAT     H129940   3.531   4.937   2.642
 7305WAT     H229941   3.586   5.019   2.546
 7305WAT    EPW29942   3.590   4.983   2.615
 7306WAT      O29943   2.994   5.970   3.546
 7306WAT     H129944   2.915   5.964   3.581
 7306WAT     H229945   3.001   6.055   3.527
 7306WAT    EPW29946   2.983   5.982   3.549
 7307WAT      O29947   2.086   4.906   3.671
 7307WAT     H129948   2.072   4.985   3.638
 7307WAT     H229949   2.008   4.882   3.700
 7307WAT    EPW29950   2.073   4.914   3.670
 7308WAT      O29951   2.577   6.591   3.078
 7308WAT     H129952   2.578   6.597   3.165
 7308WAT     H229953   2.535   6.516   3.063
 7308WAT    EPW29954   2.571   6.581   3.089
 7309WAT      O29955   2.393   5.180   2.394
 7309WAT     H129956   2.405   5.147   2.314
 7309WAT     H229957   2.312   5.155   2.413
 7309WAT    EPW29958   2.383   5.172   2.385
 7310WAT      O29959   3.269   5.896   2.698
 7310WAT     H129960   3.276   5.930   2.778
 7310WAT     H229961   3.285   5.811   2.710
 7310WAT    EPW29962   3.272   5.888   2.712
 7311WAT      O29963   3.021   5.823   2.654
 7311WAT     H129964   2.991   5.791   2.730
 7311WAT     H229965   3.090   5.870   2.678
 7311WAT    EPW29966   3.027   5.825   2.669
 7312WAT      O29967   3.043   6.235   3.457
 7312WAT     H129968   3.112   6.223   3.510
 7312WAT     H229969   3.056   6.314   3.423
 7312WAT    EPW29970   3.055   6.245   3.460
 7313WAT      O29971   2.253   6.541   3.622
 7313WAT     H129972   2.188   6.484   3.632
 7313WAT     H229973   2.216   6.618   3.637
 7313WAT    EPW29974   2.238   6.544   3.626
 7314WAT      O29975   3.105   5.681   3.815
 7314WAT     H129976   3.138   5.750   3.771
 7314WAT     H229977   3.035   5.713   3.855
 7314WAT    EPW29978   3.100   5.696   3.814
 7315WAT      O29979   3.414   6.519   2.907
 7315WAT     H129980   3.369   6.583   2.945
 7315WAT     H229981   3.484   6.511   2.958
 7315WAT    EPW29982   3.417   6.527   2.921
 7316WAT      O29983   3.084   6.028   3.200
 7316WAT     H129984   3.014   6.068   3.235
 7316WAT     H229985   3.151   6.071   3.234
 7316WAT    EPW29986   3.083   6.040   3.211
 7317WAT      O29987   3.621   6.287   3.858
 7317WAT     H129988   3.699   6.248   3.867
 7317WAT     H229989   3.575   6.253   3.924
 7317WAT    EPW29990   3.626   6.276   3.869
 7318WAT      O29991   2.391   5.381   3.435
 7318WAT     H129992   2.428   5.443   3.386
 7318WAT     H229993   2.458   5.334   3.464
 7318WAT    EPW29994   2.406   5.384   3.432
 7319WAT      O29995   2.168   5.226   3.363
 7319WAT     H129996   2.176   5.209   3.277
 7319WAT     H229997   2.243   5.267   3.382
 7319WAT    EPW29998   2.180   5.230   3.353
 7320WAT      O29999   3.724   5.490   2.407
 7320WAT     H130000   3.734   5.484   2.320
 7320WAT     H230001   3.798   5.457   2.438
 7320WAT    EPW30002   3.736   5.484   2.399
 7321WAT      O30003   2.423   4.967   3.604
 7321WAT     H130004   2.415   4.883   3.624
 7321WAT     H230005   2.392   4.972   3.522
 7321WAT    EPW30006   2.418   4.955   3.595
 7322WAT      O30007   3.116   6.187   2.517
 7322WAT     H130008   3.095   6.270   2.501
 7322WAT     H230009   3.038   6.148   2.530
 7322WAT    EPW30010   3.101   6.193   2.517
 7323WAT      O30011   2.108   5.749   3.385
 7323WAT     H130012   2.140   5.771   3.307
 7323WAT     H230013   2.098   5.662   3.380
 7323WAT    EPW30014   2.111   5.739   3.373
 7324WAT      O30015   2.253   5.342   2.047
 7324WAT     H130016   2.186   5.344   2.102
 7324WAT     H230017   2.263   5.258   2.028
 7324WAT    EPW30018   2.245   5.330   2.052
 7325WAT      O30019   2.652   6.213   2.158
 7325WAT     H130020   2.696   6.221   2.233
 7325WAT     H230021   2.572   6.191   2.184
 7325WAT    EPW30022   2.647   6.211   2.173
 7326WAT      O30023   3.481   5.055   3.086
 7326WAT     H130024   3.567   5.065   3.100
 7326WAT     H230025   3.444   5.111   3.142
 7326WAT    EPW30026   3.488   5.065   3.096
 7327WAT      O30027   2.584   5.678   3.524
 7327WAT     H130028   2.544   5.755   3.531
 7327WAT     H230029   2.543   5.641   3.456
 7327WAT    EPW30030   2.572   5.684   3.515
 7328WAT      O30031   3.512   5.583   2.935
 7328WAT     H130032   3.578   5.637   2.951
 7328WAT     H230033   3.477   5.614   2.861
 7328WAT    EPW30034   3.516   5.596   2.926
 7329WAT      O30035   3.543   6.390   2.516
 7329WAT     H130036   3.526   6.325   2.571
 7329WAT     H230037   3.614   6.363   2.473
 7329WAT    EPW30038   3.551   6.376   2.518
 7330WAT      O30039   2.385   6.120   2.218
 7330WAT     H130040   2.361   6.089   2.296
 7330WAT     H230041   2.382   6.050   2.167
 7330WAT    EPW30042   2.381   6.105   2.222
 7331WAT      O30043   2.667   5.944   2.093
 7331WAT     H130044   2.585   5.918   2.107
 7331WAT     H230045   2.664   6.030   2.111
 7331WAT    EPW30046   2.654   5.953   2.097
 7332WAT      O30047   2.627   4.976   3.269
 7332WAT     H130048   2.541   4.984   3.277
 7332WAT     H230049   2.649   4.924   3.335
 7332WAT    EPW30050   2.617   4.969   3.280
 7333WAT      O30051   3.037   5.050   3.106
 7333WAT     H130052   2.964   5.005   3.117
 7333WAT     H230053   3.094   5.010   3.158
 7333WAT    EPW30054   3.035   5.038   3.115
 7334WAT      O30055   3.310   6.135   3.285
 7334WAT     H130056   3.331   6.165   3.364
 7334WAT     H230057   3.304   6.207   3.236
 7334WAT    EPW30058   3.313   6.150   3.289
 7335WAT      O30059   3.264   6.557   3.709
 7335WAT     H130060   3.189   6.555   3.665
 7335WAT     H230061   3.281   6.642   3.718
 7335WAT    EPW30062   3.255   6.569   3.704
 7336WAT      O30063   2.788   5.483   3.626
 7336WAT     H130064   2.755   5.426   3.569
 7336WAT     H230065   2.752   5.559   3.602
 7336WAT    EPW30066   2.778   5.486   3.614
 7337WAT      O30067   2.867   4.809   2.089
 7337WAT     H130068   2.875   4.833   2.006
 7337WAT     H230069   2.793   4.846   2.115
 7337WAT    EPW30070   2.857   4.818   2.081
 7338WAT      O30071   3.792   5.999   3.231
 7338WAT     H130072   3.788   5.913   3.217
 7338WAT     H230073   3.722   6.029   3.187
 7338WAT    EPW30074   3.781   5.991   3.222
 7339WAT      O30075   2.631   6.519   3.651
 7339WAT     H130076   2.635   6.532   3.737
 7339WAT     H230077   2.696   6.463   3.636
 7339WAT    EPW30078   2.641   6.513   3.662
 7340WAT      O30079   3.602   6.325   3.110
 7340WAT     H130080   3.655   6.317   3.041
 7340WAT     H230081   3.563   6.247   3.116
 7340WAT    EPW30082   3.604   6.312   3.101
 7341WAT      O30083   2.349   4.984   3.333
 7341WAT     H130084   2.315   4.907   3.310
 7341WAT     H230085   2.279   5.036   3.340
 7341WAT    EPW30086   2.334   4.980   3.331
 7342WAT      O30087   3.254   4.870   3.031
 7342WAT     H130088   3.321   4.924   3.044
 7342WAT     H230089   3.203   4.912   2.974
 7342WAT    EPW30090   3.256   4.884   3.024
 7343WAT      O30091   2.390   6.357   3.787
 7343WAT     H130092   2.450   6.400   3.834
 7343WAT     H230093   2.354   6.420   3.738
 7343WAT    EPW30094   2.394   6.373   3.787
 7344WAT      O30095   3.189   5.450   2.780
 7344WAT     H130096   3.245   5.390   2.810
 7344WAT     H230097   3.147   5.477   2.852
 7344WAT    EPW30098   3.191   5.445   2.795
 7345WAT      O30099   2.214   5.315   2.729
 7345WAT     H130100   2.177   5.346   2.802
 7345WAT     H230101   2.268   5.252   2.757
 7345WAT    EPW30102   2.217   5.311   2.744
 7346WAT      O30103   2.183   6.156   3.480
 7346WAT     H130104   2.126   6.198   3.531
 7346WAT     H230105   2.256   6.203   3.490
 7346WAT    EPW30106   2.185   6.169   3.489
 7347WAT      O30107   3.386   5.633   2.437
 7347WAT     H130108   3.393   5.548   2.455
 7347WAT     H230109   3.304   5.642   2.409
 7347WAT    EPW30110   3.375   5.622   2.435
 7348WAT      O30111   2.362   6.483   2.358
 7348WAT     H130112   2.347   6.498   2.273
 7348WAT     H230113   2.448   6.491   2.365
 7348WAT    EPW30114   2.372   6.486   2.346
 7349WAT      O30115   2.778   5.723   2.330
 7349WAT     H130116   2.788   5.736   2.245
 7349WAT     H230117   2.860   5.717   2.360
 7349WAT    EPW30118   2.792   5.724   2.322
 7350WAT      O30119   3.694   6.529   2.078
 7350WAT     H130120   3.758   6.516   2.136
 7350WAT     H230121   3.660   6.450   2.067
 7350WAT    EPW30122   3.699   6.515   2.085
 7351WAT      O30123   3.714   5.771   3.752
 7351WAT     H130124   3.777   5.754   3.809
 7351WAT     H230125   3.756   5.811   3.686
 7351WAT    EPW30126   3.729   5.774   3.751
 7352WAT      O30127   3.302   6.155   2.311
 7352WAT     H130128   3.277   6.143   2.393
 7352WAT     H230129   3.270   6.086   2.268
 7352WAT    EPW30130   3.293   6.143   2.317
 7353WAT      O30131   3.766   5.321   3.123
 7353WAT     H130132   3.683   5.346   3.115
 7353WAT     H230133   3.761   5.237   3.145
 7353WAT    EPW30134   3.753   5.313   3.125
 7354WAT      O30135   2.692   5.020   3.642
 7354WAT     H130136   2.716   4.962   3.581
 7354WAT     H230137   2.608   5.002   3.656
 7354WAT    EPW30138   2.683   5.009   3.635
 7355WAT      O30139   3.455   5.782   3.887
 7355WAT     H130140   3.542   5.778   3.884
 7355WAT     H230141   3.433   5.824   3.814
 7355WAT    EPW30142   3.465   5.787   3.876
 7356WAT      O30143   2.430   6.364   3.005
 7356WAT     H130144   2.422   6.283   2.974
 7356WAT     H230145   2.386   6.413   2.948
 7356WAT    EPW30146   2.423   6.360   2.992
 7357WAT      O30147   2.990   5.976   2.254
 7357WAT     H130148   3.062   5.942   2.218
 7357WAT     H230149   2.987   6.056   2.219
 7357WAT    EPW30150   3.001   5.983   2.243
 7358WAT      O30151   2.188   6.589   3.363
 7358WAT     H130152   2.237   6.583   3.435
 7358WAT     H230153   2.206   6.515   3.320
 7358WAT    EPW30154   2.198   6.577   3.368
 7359WAT      O30155   3.131   4.840   0.677
 7359WAT     H130156   3.107   4.889   0.609
 7359WAT     H230157   3.218   4.833   0.667
 7359WAT    EPW30158   3.140   4.846   0.666
 7360WAT      O30159   3.112   5.532   1.145
 7360WAT     H130160   3.060   5.592   1.181
 7360WAT     H230161   3.152   5.495   1.213
 7360WAT    EPW30162   3.110   5.535   1.160
 7361WAT      O30163   2.099   5.946   0.690
 7361WAT     H130164   2.055   5.958   0.764
 7361WAT     H230165   2.071   5.868   0.662
 7361WAT    EPW30166   2.088   5.936   0.697
 7362WAT      O30167   3.727   6.276   0.442
 7362WAT     H130168   3.797   6.224   0.441
 7362WAT     H230169   3.668   6.232   0.395
 7362WAT    EPW30170   3.728   6.262   0.435
 7363WAT      O30171   2.073   5.325   0.341
 7363WAT     H130172   1.996   5.341   0.305
 7363WAT     H230173   2.077   5.238   0.343
 7363WAT    EPW30174   2.063   5.315   0.336
 7364WAT      O30175   2.387   5.851   0.208
 7364WAT     H130176   2.348   5.814   0.139
 7364WAT     H230177   2.379   5.792   0.271
 7364WAT    EPW30178   2.380   5.837   0.207
 7365WAT      O30179   3.379   5.639   0.812
 7365WAT     H130180   3.387   5.639   0.725
 7365WAT     H230181   3.321   5.575   0.827
 7365WAT    EPW30182   3.372   5.629   0.802
 7366WAT      O30183   2.350   6.016   0.598
 7366WAT     H130184   2.411   5.999   0.658
 7366WAT     H230185   2.275   6.002   0.640
 7366WAT    EPW30186   2.348   6.011   0.613
 7367WAT      O30187   2.778   4.949   0.593
 7367WAT     H130188   2.771   5.017   0.538
 7367WAT     H230189   2.852   4.910   0.568
 7367WAT    EPW30190   2.788   4.953   0.581
 7368WAT      O30191   2.239   6.325   0.206
 7368WAT     H130192   2.286   6.333   0.133
 7368WAT     H230193   2.285   6.267   0.253
 7368WAT    EPW30194   2.253   6.317   0.202
 7369WAT      O30195   2.093   6.219   1.316
 7369WAT     H130196   2.106   6.191   1.397
 7369WAT     H230197   2.032   6.165   1.285
 7369WAT    EPW30198   2.086   6.207   1.323
 7370WAT      O30199   2.751   5.972   1.822
 7370WAT     H130200   2.727   5.972   1.906
 7370WAT     H230201   2.676   5.957   1.780
 7370WAT    EPW30202   2.736   5.970   1.828
 7371WAT      O30203   2.238   5.672   0.736
 7371WAT     H130204   2.192   5.632   0.673
 7371WAT     H230205   2.308   5.620   0.745
 7371WAT    EPW30206   2.241   5.658   0.728
 7372WAT      O30207   2.689   5.233   1.271
 7372WAT     H130208   2.756   5.234   1.216
 7372WAT     H230209   2.684   5.149   1.295
 7372WAT    EPW30210   2.698   5.220   1.266
 7373WAT      O30211   2.749   6.291   1.549
 7373WAT     H130212   2.763   6.367   1.508
 7373WAT     H230213   2.828   6.255   1.551
 7373WAT    EPW30214   2.762   6.297   1.543
 7374WAT      O30215   2.438   5.482   0.738
 7374WAT     H130216   2.520   5.463   0.762
 7374WAT     H230217   2.390   5.420   0.778
 7374WAT    EPW30218   2.443   5.470   0.748
 7375WAT      O30219   2.858   6.080   0.999
 7375WAT     H130220   2.893   6.000   1.002
 7375WAT     H230221   2.925   6.130   0.974
 7375WAT    EPW30222   2.873   6.075   0.996
 7376WAT      O30223   2.864   6.025   0.620
 7376WAT     H130224   2.897   5.960   0.669
 7376WAT     H230225   2.888   6.003   0.539
 7376WAT    EPW30226   2.872   6.012   0.615
 7377WAT      O30227   3.061   5.438   1.754
 7377WAT     H130228   2.976   5.428   1.736
 7377WAT     H230229   3.064   5.512   1.800
 7377WAT    EPW30230   3.049   5.447   1.758
 7378WAT      O30231   2.498   4.991   0.665
 7378WAT     H130232   2.468   5.041   0.600
 7378WAT     H230233   2.584   4.999   0.659
 7378WAT    EPW30234   2.506   5.000   0.654
 7379WAT      O30235   3.517   4.734   1.666
 7379WAT     H130236   3.501   4.811   1.627
 7379WAT     H230237   3.439   4.712   1.700
 7379WAT    EPW30238   3.503   4.742   1.665
 7380WAT      O30239   2.795   4.905   0.887
 7380WAT     H130240   2.803   4.991   0.900
 7380WAT     H230241   2.792   4.898   0.800
 7380WAT    EPW30242   2.796   4.917   0.876
 7381WAT      O30243   2.083   5.448   1.037
 7381WAT     H130244   2.058   5.531   1.030
 7381WAT     H230245   2.017   5.409   1.079
 7381WAT    EPW30246   2.070   5.454   1.042
 7382WAT      O30247   2.074   6.419   0.827
 7382WAT     H130248   2.015   6.474   0.796
 7382WAT     H230249   2.117   6.392   0.756
 7382WAT    EPW30250   2.072   6.423   0.812
 7383WAT      O30251   2.658   6.203   0.575
 7383WAT     H130252   2.600   6.176   0.634
 7383WAT     H230253   2.721   6.142   0.578
 7383WAT    EPW30254   2.659   6.190   0.584
 7384WAT      O30255   3.273   6.432   0.327
 7384WAT     H130256   3.345   6.479   0.338
 7384WAT     H230257   3.296   6.352   0.355
 7384WAT    EPW30258   3.287   6.427   0.333
 7385WAT      O30259   3.089   6.471   0.526
 7385WAT     H130260   3.111   6.524   0.593
 7385WAT     H230261   3.166   6.454   0.488
 7385WAT    EPW30262   3.104   6.476   0.531
 7386WAT      O30263   2.386   4.929   1.086
 7386WAT     H130264   2.334   4.867   1.055
 7386WAT     H230265   2.445   4.886   1.133
 7386WAT    EPW30266   2.387   4.914   1.089
 7387WAT      O30267   2.717   5.143   2.016
 7387WAT     H130268   2.729   5.097   1.942
 7387WAT     H230269   2.746   5.222   1.996
 7387WAT    EPW30270   2.723   5.148   2.002
 7388WAT      O30271   2.229   6.286   0.620
 7388WAT     H130272   2.294   6.228   0.622
 7388WAT     H230273   2.268   6.361   0.598
 7388WAT    EPW30274   2.244   6.288   0.617
 7389WAT      O30275   3.802   5.195   0.746
 7389WAT     H130276   3.768   5.263   0.789
 7389WAT     H230277   3.739   5.135   0.748
 7389WAT    EPW30278   3.788   5.196   0.753
 7390WAT      O30279   3.333   6.472   1.357
 7390WAT     H130280   3.408   6.518   1.356
 7390WAT     H230281   3.321   6.451   1.273
 7390WAT    EPW30282   3.343   6.476   1.344
 7391WAT      O30283   2.290   5.102   1.914
 7391WAT     H130284   2.212   5.063   1.907
 7391WAT     H230285   2.339   5.061   1.855
 7391WAT    EPW30286   2.286   5.090   1.905
 7392WAT      O30287   2.311   6.134   0.970
 7392WAT     H130288   2.353   6.099   0.903
 7392WAT     H230289   2.343   6.092   1.039
 7392WAT    EPW30290   2.322   6.123   0.971
 7393WAT      O30291   2.634   6.420   0.900
 7393WAT     H130292   2.718   6.430   0.880
 7393WAT     H230293   2.604   6.501   0.907
 7393WAT    EPW30294   2.642   6.433   0.898
 7394WAT      O30295   2.955   4.867   1.831
 7394WAT     H130296   2.973   4.786   1.804
 7394WAT     H230297   2.941   4.911   1.757
 7394WAT    EPW30298   2.956   4.861   1.816
 7395WAT      O30299   3.014   5.359   0.709
 7395WAT     H130300   3.043   5.336   0.630
 7395WAT     H230301   3.088   5.367   0.755
 7395WAT    EPW30302   3.029   5.357   0.704
 7396WAT      O30303   3.087   5.393   0.221
 7396WAT     H130304   3.115   5.472   0.246
 7396WAT     H230305   3.009   5.410   0.184
 7396WAT    EPW30306   3.079   5.407   0.219
 7397WAT      O30307   3.491   6.591   0.367
 7397WAT     H130308   3.557   6.576   0.313
 7397WAT     H230309   3.527   6.582   0.446
 7397WAT    EPW30310   3.506   6.587   0.371
 7398WAT      O30311   2.534   6.541   1.474
 7398WAT     H130312   2.563   6.535   1.556
 7398WAT     H230313   2.471   6.481   1.469
 7398WAT    EPW30314   2.529   6.532   1.485
 7399WAT      O30315   3.770   5.027   1.283
 7399WAT     H130316   3.845   5.035   1.241
 7399WAT     H230317   3.776   4.950   1.323
 7399WAT    EPW30318   3.782   5.017   1.283
 7400WAT      O30319   2.025   5.157   1.673
 7400WAT     H130320   2.025   5.216   1.738
 7400WAT     H230321   2.084   5.188   1.617
 7400WAT    EPW30322   2.034   5.170   1.674
 7401WAT      O30323   3.259   6.191   1.727
 7401WAT     H130324   3.255   6.229   1.806
 7401WAT     H230325   3.344   6.186   1.710
 7401WAT    EPW30326   3.271   6.196   1.736
 7402WAT      O30327   2.973   6.210   0.202
 7402WAT     H130328   2.954   6.265   0.268
 7402WAT     H230329   3.049   6.239   0.172
 7402WAT    EPW30330   2.981   6.223   0.208
 7403WAT      O30331   3.323   5.000   0.308
 7403WAT     H130332   3.377   4.932   0.315
 7403WAT     H230333   3.329   5.040   0.385
 7403WAT    EPW30334   3.332   4.996   0.320
 7404WAT      O30335   2.119   5.117   0.565
 7404WAT     H130336   2.107   5.030   0.568
 7404WAT     H230337   2.071   5.146   0.632
 7404WAT    EPW30338   2.110   5.108   0.575
 7405WAT      O30339   2.333   6.358   1.386
 7405WAT     H130340   2.263   6.307   1.399
 7405WAT     H230341   2.359   6.337   1.305
 7405WAT    EPW30342   2.326   6.347   1.376
 7406WAT      O30343   3.049   5.237   0.439
 7406WAT     H130344   2.998   5.171   0.414
 7406WAT     H230345   3.054   5.288   0.368
 7406WAT    EPW30346   3.042   5.235   0.425
 7407WAT      O30347   3.104   6.507   1.477
 7407WAT     H130348   3.181   6.499   1.436
 7407WAT     H230349   3.046   6.495   1.413
 7407WAT    EPW30350   3.107   6.504   1.462
 7408WAT      O30351   3.049   4.932   0.428
 7408WAT     H130352   3.004   4.891   0.366
 7408WAT     H230353   3.126   4.947   0.391
 7408WAT    EPW30354   3.054   4.928   0.413
 7409WAT      O30355   3.732   6.567   0.767
 7409WAT     H130356   3.686   6.639   0.787
 7409WAT     H230357   3.670   6.510   0.743
 7409WAT    EPW30358   3.716   6.569   0.767
 7410WAT      O30359   2.909   5.168   0.880
 7410WAT     H130360   2.916   5.225   0.815
 7410WAT     H230361   2.921   5.217   0.951
 7410WAT    EPW30362   2.912   5.184   0.881
 7411WAT      O30363   3.431   6.152   0.722
 7411WAT     H130364   3.501   6.104   0.740
 7411WAT     H230365   3.365   6.095   0.726
 7411WAT    EPW30366   3.432   6.136   0.725
 7412WAT      O30367   2.469   6.243   1.643
 7412WAT     H130368   2.553   6.249   1.621
 7412WAT     H230369   2.465   6.282   1.720
 7412WAT    EPW30370   2.481   6.250   1.651
 7413WAT      O30371   2.370   4.751   0.715
 7413WAT     H130372   2.423   4.819   0.714
 7413WAT     H230373   2.370   4.723   0.632
 7413WAT    EPW30374   2.378   4.757   0.703
 7414WAT      O30375   2.665   5.794   1.118
 7414WAT     H130376   2.682   5.773   1.201
 7414WAT     H230377   2.600   5.740   1.096
 7414WAT    EPW30378   2.658   5.783   1.127
 7415WAT      O30379   3.288   5.185   1.469
 7415WAT     H130380   3.279   5.217   1.550
 7415WAT     H230381   3.229   5.121   1.465
 7415WAT    EPW30382   3.278   5.180   1.481
 7416WAT      O30383   2.740   5.788   1.377
 7416WAT     H130384   2.746   5.872   1.397
 7416WAT     H230385   2.712   5.751   1.450
 7416WAT    EPW30386   2.737   5.795   1.390
 7417WAT      O30387   3.358   5.857   1.290
 7417WAT     H130388   3.307   5.816   1.347
 7417WAT     H230389   3.345   5.942   1.308
 7417WAT    EPW30390   3.349   5.864   1.301
 7418WAT      O30391   3.414   4.780   0.753
 7418WAT     H130392   3.419   4.748   0.834
 7418WAT     H230393   3.446   4.715   0.703
 7418WAT    EPW30394   3.419   4.765   0.757
 7419WAT      O30395   2.022   6.225   1.998
 7419WAT     H130396   2.098   6.260   2.024
 7419WAT     H230397   2.040   6.139   1.992
 7419WAT    EPW30398   2.036   6.217   2.001
 7420WAT      O30399   3.660   5.203   1.584
 7420WAT     H130400   3.737   5.181   1.617
 7420WAT     H230401   3.613   5.225   1.654
 7420WAT    EPW30402   3.664   5.203   1.599
 7421WAT      O30403   2.414   5.132   0.881
 7421WAT     H130404   2.442   5.089   0.810
 7421WAT     H230405   2.397   5.068   0.938
 7421WAT    EPW30406   2.416   5.116   0.879
 7422WAT      O30407   3.683   5.901   0.302
 7422WAT     H130408   3.695   5.872   0.384
 7422WAT     H230409   3.764   5.903   0.269
 7422WAT    EPW30410   3.697   5.897   0.310
 7423WAT      O30411   2.397   5.874   0.835
 7423WAT     H130412   2.482   5.866   0.818
 7423WAT     H230413   2.361   5.806   0.794
 7423WAT    EPW30414   2.404   5.863   0.827
 7424WAT      O30415   2.274   6.547   0.959
 7424WAT     H130416   2.206   6.497   0.935
 7424WAT     H230417   2.314   6.565   0.884
 7424WAT    EPW30418   2.270   6.542   0.944
 7425WAT      O30419   2.229   5.242   1.189
 7425WAT     H130420   2.313   5.264   1.184
 7425WAT     H230421   2.190   5.299   1.136
 7425WAT    EPW30422   2.235   5.253   1.180
 7426WAT      O30423   3.907   6.352   1.728
 7426WAT     H130424   3.838   6.383   1.683
 7426WAT     H230425   3.870   6.306   1.792
 7426WAT    EPW30426   3.891   6.350   1.731
 7427WAT      O30427   3.473   5.555   0.261
 7427WAT     H130428   3.451   5.628   0.219
 7427WAT     H230429   3.428   5.560   0.336
 7427WAT    EPW30430   3.463   5.566   0.266
 7428WAT      O30431   2.634   5.875   0.659
 7428WAT     H130432   2.705   5.924   0.668
 7428WAT     H230433   2.656   5.818   0.596
 7428WAT    EPW30434   2.647   5.874   0.651
 7429WAT      O30435   3.891   5.041   0.206
 7429WAT     H130436   3.825   4.984   0.208
 7429WAT     H230437   3.872   5.092   0.138
 7429WAT    EPW30438   3.879   5.040   0.196
 7430WAT      O30439   2.049   6.039   0.991
 7430WAT     H130440   1.983   6.088   1.019
 7430WAT     H230441   2.117   6.094   0.994
 7430WAT    EPW30442   2.049   6.054   0.995
 7431WAT      O30443   2.814   5.410   2.001
 7431WAT     H130444   2.766   5.468   2.045
 7431WAT     H230445   2.811   5.440   1.918
 7431WAT    EPW30446   2.806   5.423   1.995
 7432WAT      O30447   3.924   5.479   1.462
 7432WAT     H130448   3.945   5.399   1.434
 7432WAT     H230449   3.839   5.485   1.443
 7432WAT    EPW30450   3.914   5.468   1.455
 7433WAT      O30451   2.056   5.708   0.501
 7433WAT     H130452   2.037   5.624   0.516
 7433WAT     H230453   2.122   5.704   0.444
 7433WAT    EPW30454   2.063   5.695   0.495
 7434WAT      O30455   3.692   4.997   0.434
 7434WAT     H130456   3.766   4.956   0.454
 7434WAT     H230457   3.718   5.068   0.392
 7434WAT    EPW30458   3.707   5.001   0.431
 7435WAT      O30459   3.086   6.245   0.892
 7435WAT     H130460   3.034   6.309   0.862
 7435WAT     H230461   3.117   6.209   0.819
 7435WAT    EPW30462   3.083   6.249   0.877
 7436WAT      O30463   2.073   6.124   0.459
 7436WAT     H130464   2.128   6.181   0.495
 7436WAT     H230465   2.050   6.073   0.525
 7436WAT    EPW30466   2.078   6.125   0.474
 7437WAT      O30467   2.493   6.024   1.168
 7437WAT     H130468   2.540   6.053   1.235
 7437WAT     H230469   2.551   5.976   1.122
 7437WAT    EPW30470   2.509   6.021   1.171
 7438WAT      O30471   3.337   5.225   0.941
 7438WAT     H130472   3.371   5.241   1.020
 7438WAT     H230473   3.292   5.152   0.953
 7438WAT    EPW30474   3.335   5.217   0.955
 7439WAT      O30475   2.056   5.969   0.222
 7439WAT     H130476   2.132   5.926   0.227
 7439WAT     H230477   2.058   6.022   0.291
 7439WAT    EPW30478   2.067   5.970   0.233
 7440WAT      O30479   2.150   5.791   1.022
 7440WAT     H130480   2.193   5.778   0.947
 7440WAT     H230481   2.130   5.876   1.019
 7440WAT    EPW30482   2.153   5.802   1.011
 7441WAT      O30483   2.785   5.147   0.387
 7441WAT     H130484   2.784   5.136   0.301
 7441WAT     H230485   2.767   5.232   0.396
 7441WAT    EPW30486   2.782   5.158   0.376
 7442WAT      O30487   3.690   6.390   1.537
 7442WAT     H130488   3.623   6.442   1.559
 7442WAT     H230489   3.696   6.400   1.450
 7442WAT    EPW30490   3.681   6.399   1.527
 7443WAT      O30491   2.558   6.143   0.850
 7443WAT     H130492   2.571   6.227   0.869
 7443WAT     H230493   2.625   6.103   0.890
 7443WAT    EPW30494   2.570   6.149   0.859
 7444WAT      O30495   2.371   5.491   1.836
 7444WAT     H130496   2.318   5.440   1.883
 7444WAT     H230497   2.373   5.452   1.758
 7444WAT    EPW30498   2.364   5.478   1.832
 7445WAT      O30499   2.420   5.431   0.350
 7445WAT     H130500   2.407   5.386   0.424
 7445WAT     H230501   2.362   5.396   0.295
 7445WAT    EPW30502   2.409   5.419   0.353
 7446WAT      O30503   2.437   5.614   1.010
 7446WAT     H130504   2.359   5.608   0.972
 7446WAT     H230505   2.444   5.538   1.054
 7446WAT    EPW30506   2.426   5.602   1.011
 7447WAT      O30507   2.480   5.587   1.357
 7447WAT     H130508   2.482   5.520   1.302
 7447WAT     H230509   2.415   5.637   1.326
 7447WAT    EPW30510   2.471   5.585   1.344
 7448WAT      O30511   3.469   5.359   1.197
 7448WAT     H130512   3.403   5.391   1.243
 7448WAT     H230513   3.488   5.422   1.140
 7448WAT    EPW30514   3.462   5.373   1.195
 7449WAT      O30515   2.890   6.465   1.296
 7449WAT     H130516   2.862   6.401   1.244
 7449WAT     H230517   2.869   6.538   1.253
 7449WAT    EPW30518   2.883   6.466   1.282
 7450WAT      O30519   3.134   4.949   1.540
 7450WAT     H130520   3.149   4.867   1.515
 7450WAT     H230521   3.172   4.955   1.618
 7450WAT    EPW30522   3.141   4.938   1.548
 7451WAT      O30523   3.288   5.156   0.548
 7451WAT     H130524   3.337   5.227   0.540
 7451WAT     H230525   3.209   5.182   0.522
 7451WAT    EPW30526   3.284   5.170   0.543
 7452WAT      O30527   2.260   5.723   1.913
 7452WAT     H130528   2.256   5.773   1.842
 7452WAT     H230529   2.293   5.648   1.884
 7452WAT    EPW30530   2.264   5.719   1.898
 7453WAT      O30531   3.420   5.943   1.739
 7453WAT     H130532   3.468   6.015   1.749
 7453WAT     H230533   3.459   5.901   1.674
 7453WAT    EPW30534   3.433   5.948   1.731
 7454WAT      O30535   2.849   6.228   1.857
 7454WAT     H130536   2.885   6.210   1.934
 7454WAT     H230537   2.806   6.155   1.837
 7454WAT    EPW30538   2.848   6.214   1.865
 7455WAT      O30539   2.947   5.303   1.120
 7455WAT     H130540   2.995   5.372   1.141
 7455WAT     H230541   2.984   5.238   1.165
 7455WAT    EPW30542   2.959   5.303   1.130
 7456WAT      O30543   3.166   5.619   0.348
 7456WAT     H130544   3.165   5.692   0.299
 7456WAT     H230545   3.102   5.633   0.405
 7456WAT    EPW30546   3.156   5.632   0.349
 7457WAT      O30547   3.663   6.006   0.746
 7457WAT     H130548   3.698   5.971   0.817
 7457WAT     H230549   3.662   5.940   0.689
 7457WAT    EPW30550   3.668   5.991   0.748
 7458WAT      O30551   3.267   6.313   1.130
 7458WAT     H130552   3.207   6.283   1.075
 7458WAT     H230553   3.322   6.358   1.079
 7458WAT    EPW30554   3.266   6.315   1.114
 7459WAT      O30555   3.269   5.998   1.070
 7459WAT     H130556   3.189   6.021   1.098
 7459WAT     H230557   3.294   5.939   1.129
 7459WAT    EPW30558   3.261   5.993   1.083
 7460WAT      O30559   2.658   6.479   0.515
 7460WAT     H130560   2.643   6.402   0.552
 7460WAT     H230561   2.727   6.465   0.464
 7460WAT    EPW30562   2.666   6.466   0.513
 7461WAT      O30563   2.625   4.854   0.314
 7461WAT     H130564   2.635   4.843   0.400
 7461WAT     H230565   2.554   4.904   0.307
 7461WAT    EPW30566   2.616   4.860   0.326
 7462WAT      O30567   2.887   6.431   0.355
 7462WAT     H130568   2.949   6.447   0.414
 7462WAT     H230569   2.891   6.500   0.302
 7462WAT    EPW30570   2.897   6.444   0.356
 7463WAT      O30571   3.595   5.798   1.555
 7463WAT     H130572   3.600   5.810   1.469
 7463WAT     H230573   3.670   5.830   1.585
 7463WAT    EPW30574   3.606   5.804   1.547
 7464WAT      O30575   3.214   6.333   1.983
 7464WAT     H130576   3.230   6.361   2.063
 7464WAT     H230577   3.240   6.399   1.932
 7464WAT    EPW30578   3.220   6.347   1.987
 7465WAT      O30579   3.698   4.828   1.854
 7465WAT     H130580   3.634   4.788   1.809
 7465WAT     H230581   3.700   4.785   1.929
 7465WAT    EPW30582   3.689   4.816   1.858
 7466WAT      O30583   2.337   5.684   0.438
 7466WAT     H130584   2.369   5.606   0.416
 7466WAT     H230585   2.402   5.721   0.484
 7466WAT    EPW30586   2.351   5.678   0.442
 7467WAT      O30587   3.168   5.779   1.515
 7467WAT     H130588   3.152   5.840   1.575
 7467WAT     H230589   3.221   5.723   1.555
 7467WAT    EPW30590   3.173   5.779   1.530
 7468WAT      O30591   2.037   4.850   0.535
 7468WAT     H130592   2.050   4.780   0.486
 7468WAT     H230593   2.000   4.819   0.607
 7468WAT    EPW30594   2.033   4.835   0.538
 7469WAT      O30595   3.006   5.619   0.581
 7469WAT     H130596   3.012   5.684   0.639
 7469WAT     H230597   2.987   5.549   0.630
 7469WAT    EPW30598   3.004   5.618   0.596
 7470WAT      O30599   3.529   6.051   1.168
 7470WAT     H130600   3.481   6.081   1.101
 7470WAT     H230601   3.493   5.974   1.185
 7470WAT    EPW30602   3.516   6.044   1.160
 7471WAT      O30603   2.456   5.070   0.232
 7471WAT     H130604   2.405   5.076   0.161
 7471WAT     H230605   2.534   5.094   0.202
 7471WAT    EPW30606   2.460   5.075   0.217
 7472WAT      O30607   2.928   5.823   1.024
 7472WAT     H130608   2.844   5.804   1.032
 7472WAT     H230609   2.961   5.807   1.103
 7472WAT    EPW30610   2.921   5.818   1.037
 7473WAT      O30611   2.313   5.793   1.255
 7473WAT     H130612   2.385   5.841   1.252
 7473WAT     H230613   2.286   5.790   1.172
 7473WAT    EPW30614   2.320   5.799   1.243
 7474WAT      O30615   2.636   5.310   0.929
 7474WAT     H130616   2.721   5.291   0.939
 7474WAT     H230617   2.599   5.232   0.915
 7474WAT    EPW30618   2.643   5.295   0.928
 7475WAT      O30619   3.898   6.468   0.362
 7475WAT     H130620   3.967   6.421   0.337
 7475WAT     H230621   3.844   6.408   0.395
 7475WAT    EPW30622   3.900   6.452   0.363
 7476WAT      O30623   2.118   5.443   0.594
 7476WAT     H130624   2.167   5.414   0.660
 7476WAT     H230625   2.131   5.384   0.532
 7476WAT    EPW30626   2.127   5.430   0.595
 7477WAT      O30627   3.622   5.746   1.279
 7477WAT     H130628   3.621   5.668   1.319
 7477WAT     H230629   3.538   5.769   1.279
 7477WAT    EPW30630   3.609   5.738   1.285
 7478WAT      O30631   2.253   5.898   1.683
 7478WAT     H130632   2.211   5.846   1.627
 7478WAT     H230633   2.217   5.976   1.669
 7478WAT    EPW30634   2.241   5.902   1.673
 7479WAT      O30635   3.747   5.753   1.023
 7479WAT     H130636   3.719   5.793   1.095
 7479WAT     H230637   3.833   5.747   1.036
 7479WAT    EPW30638   3.756   5.758   1.036
 7480WAT      O30639   2.716   5.433   0.414
 7480WAT     H130640   2.743   5.516   0.421
 7480WAT     H230641   2.630   5.440   0.404
 7480WAT    EPW30642   2.708   5.446   0.413
 7481WAT      O30643   3.514   5.145   1.877
 7481WAT     H130644   3.461   5.191   1.930
 7481WAT     H230645   3.477   5.066   1.877
 7481WAT    EPW30646   3.500   5.140   1.885
 7482WAT      O30647   2.064   5.030   1.068
 7482WAT     H130648   2.069   5.064   0.987
 7482WAT     H230649   2.140   5.054   1.104
 7482WAT    EPW30650   2.076   5.039   1.061
 7483WAT      O30651   3.860   6.316   1.076
 7483WAT     H130652   3.889   6.342   0.998
 7483WAT     H230653   3.930   6.326   1.128
 7483WAT    EPW30654   3.875   6.321   1.072
 7484WAT      O30655   3.363   5.502   1.885
 7484WAT     H130656   3.370   5.512   1.971
 7484WAT     H230657   3.299   5.558   1.863
 7484WAT    EPW30658   3.354   5.512   1.894
 7485WAT      O30659   3.590   5.534   1.721
 7485WAT     H130660   3.621   5.613   1.742
 7485WAT     H230661   3.553   5.507   1.796
 7485WAT    EPW30662   3.589   5.542   1.735
 7486WAT      O30663   3.521   6.176   0.274
 7486WAT     H130664   3.554   6.096   0.278
 7486WAT     H230665   3.445   6.169   0.317
 7486WAT    EPW30666   3.515   6.163   0.281
 7487WAT      O30667   3.569   5.360   0.840
 7487WAT     H130668   3.495   5.327   0.872
 7487WAT     H230669   3.569   5.442   0.868
 7487WAT    EPW30670   3.558   5.367   0.849
 7488WAT      O30671   3.859   5.588   1.995
 7488WAT     H130672   3.854   5.554   1.915
 7488WAT     H230673   3.933   5.635   1.993
 7488WAT    EPW30674   3.869   5.590   1.983
 7489WAT      O30675   3.813   5.956   1.615
 7489WAT     H130676   3.876   5.901   1.590
 7489WAT     H230677   3.807   6.012   1.549
 7489WAT    EPW30678   3.822   5.956   1.602
 7490WAT      O30679   3.258   5.964   0.215
 7490WAT     H130680   3.327   5.912   0.198
 7490WAT     H230681   3.217   5.968   0.138
 7490WAT    EPW30682   3.262   5.957   0.201
 7491WAT      O30683   2.727   6.079   1.345
 7491WAT     H130684   2.697   6.138   1.402
 7491WAT     H230685   2.732   6.123   1.270
 7491WAT    EPW30686   2.723   6.094   1.342
 7492WAT      O30687   2.524   5.974   1.685
 7492WAT     H130688   2.444   5.945   1.701
 7492WAT     H230689   2.516   6.061   1.685
 7492WAT    EPW30690   2.511   5.982   1.687
 7493WAT      O30691   3.460   4.993   1.586
 7493WAT     H130692   3.535   5.038   1.580
 7493WAT     H230693   3.404   5.040   1.539
 7493WAT    EPW30694   3.463   5.006   1.578
 7494WAT      O30695   2.978   5.721   1.294
 7494WAT     H130696   3.026   5.759   1.357
 7494WAT     H230697   2.896   5.735   1.320
 7494WAT    EPW30698   2.973   5.729   1.307
 7495WAT      O30699   2.649   5.281   1.568
 7495WAT     H130700   2.665   5.207   1.611
 7495WAT     H230701   2.645   5.257   1.485
 7495WAT    EPW30702   2.651   5.267   1.562
 7496WAT      O30703   2.905   6.460   0.817
 7496WAT     H130704   2.959   6.528   0.822
 7496WAT     H230705   2.870   6.469   0.737
 7496WAT    EPW30706   2.907   6.472   0.806
 7497WAT      O30707   3.589   4.791   1.353
 7497WAT     H130708   3.561   4.873   1.349
 7497WAT     H230709   3.660   4.796   1.403
 7497WAT    EPW30710   3.595   4.804   1.360
 7498WAT      O30711   2.824   4.862   1.556
 7498WAT     H130712   2.895   4.894   1.516
 7498WAT     H230713   2.848   4.782   1.579
 7498WAT    EPW30714   2.838   4.855   1.554
 7499WAT      O30715   2.723   6.283   1.156
 7499WAT     H130716   2.660   6.341   1.138
 7499WAT     H230717   2.748   6.255   1.077
 7499WAT    EPW30718   2.717   6.288   1.141
 7500WAT      O30719   3.154   5.947   1.855
 7500WAT     H130720   3.229   5.975   1.822
 7500WAT     H230721   3.099   5.952   1.787
 7500WAT    EPW30722   3.157   5.952   1.840
 7501WAT      O30723   3.545   6.202   1.705
 7501WAT     H130724   3.579   6.229   1.780
 7501WAT     H230725   3.574   6.260   1.647
 7501WAT    EPW30726   3.554   6.214   1.708
 7502WAT      O30727   3.731   5.416   0.239
 7502WAT     H130728   3.769   5.484   0.199
 7502WAT     H230729   3.647   5.439   0.242
 7502WAT    EPW30730   3.724   5.430   0.233
 7503WAT      O30731   2.475   5.368   1.162
 7503WAT     H130732   2.519   5.357   1.088
 7503WAT     H230733   2.530   5.336   1.223
 7503WAT    EPW30734   2.490   5.361   1.160
 7504WAT      O30735   3.277   5.278   1.721
 7504WAT     H130736   3.212   5.325   1.756
 7504WAT     H230737   3.333   5.269   1.787
 7504WAT    EPW30738   3.276   5.283   1.736
 7505WAT      O30739   3.246   5.431   1.351
 7505WAT     H130740   3.276   5.473   1.422
 7505WAT     H230741   3.249   5.347   1.374
 7505WAT    EPW30742   3.251   5.425   1.365
 7506WAT      O30743   2.988   6.448   1.744
 7506WAT     H130744   3.036   6.388   1.702
 7506WAT     H230745   2.953   6.404   1.810
 7506WAT    EPW30746   2.990   6.433   1.747
 7507WAT      O30747   3.500   5.376   0.576
 7507WAT     H130748   3.521   5.356   0.659
 7507WAT     H230749   3.576   5.403   0.542
 7507WAT    EPW30750   3.515   5.377   0.584
 7508WAT      O30751   2.830   4.866   1.167
 7508WAT     H130752   2.747   4.851   1.191
 7508WAT     H230753   2.826   4.870   1.080
 7508WAT    EPW30754   2.817   4.864   1.158
 7509WAT      O30755   3.603   4.984   0.724
 7509WAT     H130756   3.531   4.937   0.741
 7509WAT     H230757   3.586   5.019   0.645
 7509WAT    EPW30758   3.590   4.983   0.715
 7510WAT      O30759   3.647   5.779   0.562
 7510WAT     H130760   3.695   5.706   0.557
 7510WAT     H230761   3.565   5.750   0.554
 7510WAT    EPW30762   3.642   5.764   0.560
 7511WAT      O30763   2.994   5.970   1.646
 7511WAT     H130764   2.915   5.964   1.681
 7511WAT     H230765   3.001   6.055   1.626
 7511WAT    EPW30766   2.983   5.982   1.648
 7512WAT      O30767   2.086   4.906   1.770
 7512WAT     H130768   2.072   4.985   1.737
 7512WAT     H230769   2.008   4.882   1.799
 7512WAT    EPW30770   2.073   4.914   1.770
 7513WAT      O30771   2.577   6.591   1.177
 7513WAT     H130772   2.578   6.597   1.264
 7513WAT     H230773   2.535   6.516   1.162
 7513WAT    EPW30774   2.571   6.581   1.188
 7514WAT      O30775   2.393   5.180   0.493
 7514WAT     H130776   2.405   5.147   0.413
 7514WAT     H230777   2.312   5.155   0.513
 7514WAT    EPW30778   2.383   5.172   0.484
 7515WAT      O30779   3.269   5.896   0.797
 7515WAT     H130780   3.276   5.930   0.877
 7515WAT     H230781   3.285   5.811   0.809
 7515WAT    EPW30782   3.272   5.888   0.811
 7516WAT      O30783   3.021   5.823   0.754
 7516WAT     H130784   2.991   5.791   0.830
 7516WAT     H230785   3.090   5.870   0.777
 7516WAT    EPW30786   3.027   5.825   0.769
 7517WAT      O30787   3.043   6.235   1.557
 7517WAT     H130788   3.112   6.223   1.609
 7517WAT     H230789   3.056   6.314   1.522
 7517WAT    EPW30790   3.055   6.245   1.559
 7518WAT      O30791   3.861   5.496   1.738
 7518WAT     H130792   3.775   5.483   1.750
 7518WAT     H230793   3.876   5.456   1.661
 7518WAT    EPW30794   3.850   5.488   1.728
 7519WAT      O30795   3.312   5.562   1.595
 7519WAT     H130796   3.286   5.490   1.637
 7519WAT     H230797   3.394   5.574   1.622
 7519WAT    EPW30798   3.320   5.553   1.605
 7520WAT      O30799   2.253   6.541   1.722
 7520WAT     H130800   2.188   6.484   1.731
 7520WAT     H230801   2.216   6.618   1.737
 7520WAT    EPW30802   2.238   6.544   1.725
 7521WAT      O30803   3.105   5.681   1.914
 7521WAT     H130804   3.138   5.750   1.871
 7521WAT     H230805   3.035   5.713   1.954
 7521WAT    EPW30806   3.100   5.696   1.913
 7522WAT      O30807   3.414   6.519   1.007
 7522WAT     H130808   3.369   6.583   1.045
 7522WAT     H230809   3.484   6.511   1.057
 7522WAT    EPW30810   3.417   6.527   1.020
 7523WAT      O30811   3.084   6.028   1.300
 7523WAT     H130812   3.014   6.068   1.334
 7523WAT     H230813   3.151   6.071   1.334
 7523WAT    EPW30814   3.083   6.040   1.310
 7524WAT      O30815   3.621   6.287   1.958
 7524WAT     H130816   3.699   6.248   1.966
 7524WAT     H230817   3.575   6.253   2.023
 7524WAT    EPW30818   3.626   6.276   1.969
 7525WAT      O30819   2.391   5.381   1.535
 7525WAT     H130820   2.428   5.443   1.486
 7525WAT     H230821   2.458   5.334   1.563
 7525WAT    EPW30822   2.406   5.384   1.532
 7526WAT      O30823   2.168   5.226   1.462
 7526WAT     H130824   2.176   5.209   1.377
 7526WAT     H230825   2.243   5.267   1.482
 7526WAT    EPW30826   2.180   5.230   1.452
 7527WAT      O30827   3.724   5.490   0.506
 7527WAT     H130828   3.734   5.484   0.420
 7527WAT     H230829   3.798   5.457   0.538
 7527WAT    EPW30830   3.736   5.484   0.498
 7528WAT      O30831   2.423   4.967   1.703
 7528WAT     H130832   2.415   4.883   1.724
 7528WAT     H230833   2.392   4.972   1.622
 7528WAT    EPW30834   2.418   4.955   1.694
 7529WAT      O30835   3.116   6.187   0.617
 7529WAT     H130836   3.095   6.270   0.601
 7529WAT     H230837   3.038   6.148   0.629
 7529WAT    EPW30838   3.101   6.193   0.616
 7530WAT      O30839   3.634   5.505   1.442
 7530WAT     H130840   3.634   5.418   1.454
 7530WAT     H230841   3.641   5.537   1.522
 7530WAT    EPW30842   3.635   5.497   1.455
 7531WAT      O30843   2.108   5.749   1.484
 7531WAT     H130844   2.140   5.771   1.406
 7531WAT     H230845   2.098   5.662   1.479
 7531WAT    EPW30846   2.111   5.739   1.472
 7532WAT      O30847   3.222   4.985   1.820
 7532WAT     H130848   3.231   5.056   1.869
 7532WAT     H230849   3.158   4.940   1.860
 7532WAT    EPW30850   3.214   4.989   1.833
 7533WAT      O30851   3.121   5.004   0.905
 7533WAT     H130852   3.051   5.056   0.900
 7533WAT     H230853   3.125   4.966   0.827
 7533WAT    EPW30854   3.112   5.006   0.893
 7534WAT      O30855   2.652   6.213   0.258
 7534WAT     H130856   2.696   6.221   0.332
 7534WAT     H230857   2.572   6.191   0.283
 7534WAT    EPW30858   2.647   6.211   0.273
 7535WAT      O30859   3.481   5.055   1.185
 7535WAT     H130860   3.567   5.065   1.200
 7535WAT     H230861   3.444   5.111   1.242
 7535WAT    EPW30862   3.488   5.065   1.196
 7536WAT      O30863   2.584   5.678   1.623
 7536WAT     H130864   2.544   5.755   1.630
 7536WAT     H230865   2.543   5.641   1.555
 7536WAT    EPW30866   2.572   5.684   1.614
 7537WAT      O30867   3.512   5.583   1.034
 7537WAT     H130868   3.578   5.637   1.050
 7537WAT     H230869   3.477   5.614   0.960
 7537WAT    EPW30870   3.516   5.596   1.026
 7538WAT      O30871   3.543   6.390   0.615
 7538WAT     H130872   3.526   6.325   0.670
 7538WAT     H230873   3.614   6.363   0.573
 7538WAT    EPW30874   3.551   6.376   0.617
 7539WAT      O30875   2.385   6.120   0.318
 7539WAT     H130876   2.361   6.089   0.396
 7539WAT     H230877   2.382   6.050   0.266
 7539WAT    EPW30878   2.381   6.105   0.322
 7540WAT      O30879   2.667   5.944   0.192
 7540WAT     H130880   2.585   5.918   0.206
 7540WAT     H230881   2.664   6.030   0.211
 7540WAT    EPW30882   2.654   5.953   0.197
 7541WAT      O30883   2.627   4.976   1.368
 7541WAT     H130884   2.541   4.984   1.376
 7541WAT     H230885   2.649   4.924   1.435
 7541WAT    EPW30886   2.617   4.969   1.379
 7542WAT      O30887   3.829   4.839   1.501
 7542WAT     H130888   3.824   4.835   1.588
 7542WAT     H230889   3.897   4.789   1.482
 7542WAT    EPW30890   3.838   4.831   1.511
 7543WAT      O30891   3.037   5.050   1.205
 7543WAT     H130892   2.964   5.005   1.217
 7543WAT     H230893   3.094   5.010   1.258
 7543WAT    EPW30894   3.035   5.038   1.215
 7544WAT      O30895   3.310   6.135   1.384
 7544WAT     H130896   3.331   6.165   1.463
 7544WAT     H230897   3.304   6.207   1.336
 7544WAT    EPW30898   3.313   6.150   1.389
 7545WAT      O30899   3.264   6.557   1.809
 7545WAT     H130900   3.189   6.555   1.765
 7545WAT     H230901   3.281   6.642   1.817
 7545WAT    EPW30902   3.255   6.569   1.803
 7546WAT      O30903   2.788   5.483   1.726
 7546WAT     H130904   2.755   5.426   1.669
 7546WAT     H230905   2.752   5.559   1.701
 7546WAT    EPW30906   2.778   5.486   1.714
 7547WAT      O30907   3.792   5.999   1.330
 7547WAT     H130908   3.788   5.913   1.316
 7547WAT     H230909   3.722   6.029   1.287
 7547WAT    EPW30910   3.781   5.991   1.322
 7548WAT      O30911   2.631   6.519   1.751
 7548WAT     H130912   2.635   6.532   1.837
 7548WAT     H230913   2.696   6.463   1.735
 7548WAT    EPW30914   2.641   6.513   1.761
 7549WAT      O30915   3.602   6.325   1.210
 7549WAT     H130916   3.655   6.317   1.141
 7549WAT     H230917   3.563   6.247   1.215
 7549WAT    EPW30918   3.604   6.312   1.200
 7550WAT      O30919   2.349   4.984   1.433
 7550WAT     H130920   2.315   4.907   1.409
 7550WAT     H230921   2.279   5.036   1.439
 7550WAT    EPW30922   2.334   4.980   1.430
 7551WAT      O30923   3.254   4.870   1.130
 7551WAT     H130924   3.321   4.924   1.143
 7551WAT     H230925   3.203   4.912   1.073
 7551WAT    EPW30926   3.256   4.884   1.124
 7552WAT      O30927   2.390   6.357   1.887
 7552WAT     H130928   2.450   6.400   1.934
 7552WAT     H230929   2.354   6.420   1.838
 7552WAT    EPW30930   2.394   6.373   1.886
 7553WAT      O30931   3.189   5.450   0.880
 7553WAT     H130932   3.245   5.390   0.910
 7553WAT     H230933   3.147   5.477   0.951
 7553WAT    EPW30934   3.191   5.445   0.895
 7554WAT      O30935   2.214   5.315   0.828
 7554WAT     H130936   2.177   5.346   0.901
 7554WAT     H230937   2.268   5.252   0.857
 7554WAT    EPW30938   2.217   5.311   0.843
 7555WAT      O30939   2.183   6.156   1.579
 7555WAT     H130940   2.126   6.198   1.630
 7555WAT     H230941   2.256   6.203   1.589
 7555WAT    EPW30942   2.185   6.169   1.588
 7556WAT      O30943   3.386   5.633   0.536
 7556WAT     H130944   3.393   5.548   0.554
 7556WAT     H230945   3.304   5.642   0.508
 7556WAT    EPW30946   3.375   5.622   0.535
 7557WAT      O30947   2.362   6.483   0.457
 7557WAT     H130948   2.347   6.498   0.372
 7557WAT     H230949   2.448   6.491   0.465
 7557WAT    EPW30950   2.372   6.486   0.446
 7558WAT      O30951   2.778   5.723   0.430
 7558WAT     H130952   2.788   5.736   0.344
 7558WAT     H230953   2.860   5.717   0.459
 7558WAT    EPW30954   2.792   5.724   0.421
 7559WAT      O30955   3.694   6.529   0.178
 7559WAT     H130956   3.758   6.516   0.236
 7559WAT     H230957   3.660   6.450   0.166
 7559WAT    EPW30958   3.699   6.515   0.185
 7560WAT      O30959   3.714   5.771   1.851
 7560WAT     H130960   3.777   5.754   1.908
 7560WAT     H230961   3.756   5.811   1.786
 7560WAT    EPW30962   3.729   5.774   1.850
 7561WAT      O30963   3.302   6.155   0.410
 7561WAT     H130964   3.277   6.143   0.493
 7561WAT     H230965   3.270   6.086   0.368
 7561WAT    EPW30966   3.293   6.143   0.416
 7562WAT      O30967   3.776   5.227   1.925
 7562WAT     H130968   3.757   5.292   1.980
 7562WAT     H230969   3.704   5.178   1.924
 7562WAT    EPW30970   3.763   5.229   1.933
 7563WAT      O30971   3.766   5.321   1.222
 7563WAT     H130972   3.683   5.346   1.215
 7563WAT     H230973   3.761   5.237   1.245
 7563WAT    EPW30974   3.753   5.313   1.224
 7564WAT      O30975   2.692   5.020   1.741
 7564WAT     H130976   2.716   4.962   1.680
 7564WAT     H230977   2.608   5.002   1.755
 7564WAT    EPW30978   2.683   5.009   1.734
 7565WAT      O30979   3.455   5.782   1.987
 7565WAT     H130980   3.542   5.778   1.983
 7565WAT     H230981   3.433   5.824   1.913
 7565WAT    EPW30982   3.465   5.787   1.975
 7566WAT      O30983   2.430   6.364   1.105
 7566WAT     H130984   2.422   6.283   1.073
 7566WAT     H230985   2.386   6.413   1.047
 7566WAT    EPW30986   2.423   6.360   1.092
 7567WAT      O30987   2.990   5.976   0.353
 7567WAT     H130988   3.062   5.942   0.317
 7567WAT     H230989   2.987   6.056   0.318
 7567WAT    EPW30990   3.001   5.983   0.343
 7568WAT      O30991   2.188   6.589   1.463
 7568WAT     H130992   2.237   6.583   1.535
 7568WAT     H230993   2.206   6.515   1.419
 7568WAT    EPW30994   2.198   6.577   1.467
 7569WAT      O30995   3.131   2.993   6.379
 7569WAT     H130996   3.107   3.041   6.311
 7569WAT     H230997   3.218   2.985   6.369
 7569WAT    EPW30998   3.140   2.999   6.368
 7570WAT      O30999   3.112   3.684   6.846
 7570WAT     H131000   3.060   3.744   6.883
 7570WAT     H231001   3.152   3.647   6.915
 7570WAT    EPW31002   3.110   3.688   6.862
 7571WAT      O31003   2.099   4.098   6.392
 7571WAT     H131004   2.055   4.110   6.466
 7571WAT     H231005   2.071   4.021   6.363
 7571WAT    EPW31006   2.088   4.088   6.399
 7572WAT      O31007   3.727   4.428   6.143
 7572WAT     H131008   3.797   4.376   6.143
 7572WAT     H231009   3.668   4.384   6.097
 7572WAT    EPW31010   3.728   4.414   6.136
 7573WAT      O31011   2.073   3.477   6.043
 7573WAT     H131012   1.996   3.494   6.007
 7573WAT     H231013   2.077   3.390   6.045
 7573WAT    EPW31014   2.063   3.467   6.038
 7574WAT      O31015   2.387   4.004   5.910
 7574WAT     H131016   2.348   3.967   5.841
 7574WAT     H231017   2.379   3.944   5.973
 7574WAT    EPW31018   2.380   3.989   5.909
 7575WAT      O31019   3.379   3.791   6.514
 7575WAT     H131020   3.387   3.791   6.427
 7575WAT     H231021   3.321   3.728   6.529
 7575WAT    EPW31022   3.372   3.782   6.503
 7576WAT      O31023   2.350   4.168   6.300
 7576WAT     H131024   2.411   4.151   6.360
 7576WAT     H231025   2.275   4.154   6.342
 7576WAT    EPW31026   2.348   4.163   6.315
 7577WAT      O31027   2.778   3.101   6.295
 7577WAT     H131028   2.771   3.169   6.240
 7577WAT     H231029   2.852   3.062   6.270
 7577WAT    EPW31030   2.788   3.106   6.283
 7578WAT      O31031   2.239   4.477   5.908
 7578WAT     H131032   2.286   4.485   5.834
 7578WAT     H231033   2.285   4.419   5.954
 7578WAT    EPW31034   2.253   4.470   5.904
 7579WAT      O31035   2.093   4.372   7.017
 7579WAT     H131036   2.106   4.344   7.099
 7579WAT     H231037   2.032   4.318   6.987
 7579WAT    EPW31038   2.086   4.360   7.025
 7580WAT      O31039   2.751   4.124   7.524
 7580WAT     H131040   2.727   4.124   7.608
 7580WAT     H231041   2.676   4.109   7.482
 7580WAT    EPW31042   2.736   4.122   7.530
 7581WAT      O31043   2.238   3.824   6.438
 7581WAT     H131044   2.192   3.785   6.375
 7581WAT     H231045   2.308   3.772   6.447
 7581WAT    EPW31046   2.241   3.810   6.430
 7582WAT      O31047   2.689   3.385   6.972
 7582WAT     H131048   2.756   3.387   6.917
 7582WAT     H231049   2.684   3.301   6.997
 7582WAT    EPW31050   2.698   3.373   6.968
 7583WAT      O31051   2.749   4.443   7.250
 7583WAT     H131052   2.763   4.519   7.210
 7583WAT     H231053   2.828   4.407   7.253
 7583WAT    EPW31054   2.762   4.449   7.245
 7584WAT      O31055   2.438   3.634   6.440
 7584WAT     H131056   2.520   3.615   6.464
 7584WAT     H231057   2.390   3.572   6.480
 7584WAT    EPW31058   2.443   3.622   6.449
 7585WAT      O31059   2.858   4.232   6.701
 7585WAT     H131060   2.893   4.152   6.704
 7585WAT     H231061   2.925   4.282   6.675
 7585WAT    EPW31062   2.873   4.227   6.698
 7586WAT      O31063   2.864   4.177   6.322
 7586WAT     H131064   2.897   4.112   6.371
 7586WAT     H231065   2.888   4.156   6.241
 7586WAT    EPW31066   2.872   4.164   6.317
 7587WAT      O31067   3.061   3.590   7.456
 7587WAT     H131068   2.976   3.580   7.438
 7587WAT     H231069   3.064   3.664   7.501
 7587WAT    EPW31070   3.049   3.599   7.460
 7588WAT      O31071   2.498   3.143   6.367
 7588WAT     H131072   2.468   3.193   6.302
 7588WAT     H231073   2.584   3.151   6.361
 7588WAT    EPW31074   2.506   3.152   6.356
 7589WAT      O31075   3.517   2.886   7.367
 7589WAT     H131076   3.501   2.963   7.329
 7589WAT     H231077   3.439   2.864   7.402
 7589WAT    EPW31078   3.503   2.894   7.367
 7590WAT      O31079   2.795   3.057   6.589
 7590WAT     H131080   2.803   3.143   6.602
 7590WAT     H231081   2.792   3.050   6.502
 7590WAT    EPW31082   2.796   3.069   6.578
 7591WAT      O31083   3.263   3.350   5.819
 7591WAT     H131084   3.218   3.418   5.849
 7591WAT     H231085   3.274   3.300   5.889
 7591WAT    EPW31086   3.258   3.353   5.834
 7592WAT      O31087   2.083   3.600   6.739
 7592WAT     H131088   2.058   3.683   6.731
 7592WAT     H231089   2.017   3.562   6.781
 7592WAT    EPW31090   2.070   3.606   6.744
 7593WAT      O31091   2.074   4.571   6.529
 7593WAT     H131092   2.015   4.627   6.498
 7593WAT     H231093   2.117   4.544   6.458
 7593WAT    EPW31094   2.072   4.575   6.514
 7594WAT      O31095   2.658   4.355   6.277
 7594WAT     H131096   2.600   4.328   6.336
 7594WAT     H231097   2.721   4.294   6.279
 7594WAT    EPW31098   2.659   4.342   6.286
 7595WAT      O31099   3.273   4.584   6.029
 7595WAT     H131100   3.345   4.631   6.039
 7595WAT     H231101   3.296   4.505   6.057
 7595WAT    EPW31102   3.287   4.579   6.035
 7596WAT      O31103   3.089   4.623   6.228
 7596WAT     H131104   3.111   4.676   6.294
 7596WAT     H231105   3.166   4.606   6.190
 7596WAT    EPW31106   3.104   4.628   6.232
 7597WAT      O31107   2.386   3.082   6.788
 7597WAT     H131108   2.334   3.019   6.757
 7597WAT     H231109   2.445   3.038   6.835
 7597WAT    EPW31110   2.387   3.066   6.790
 7598WAT      O31111   2.229   4.438   6.322
 7598WAT     H131112   2.294   4.380   6.324
 7598WAT     H231113   2.268   4.513   6.300
 7598WAT    EPW31114   2.244   4.440   6.319
 7599WAT      O31115   3.802   3.347   6.448
 7599WAT     H131116   3.768   3.415   6.491
 7599WAT     H231117   3.739   3.287   6.450
 7599WAT    EPW31118   3.788   3.348   6.455
 7600WAT      O31119   3.333   4.624   7.059
 7600WAT     H131120   3.408   4.670   7.058
 7600WAT     H231121   3.321   4.603   6.975
 7600WAT    EPW31122   3.343   4.628   7.046
 7601WAT      O31123   2.290   3.255   7.616
 7601WAT     H131124   2.212   3.216   7.609
 7601WAT     H231125   2.339   3.213   7.557
 7601WAT    EPW31126   2.286   3.243   7.606
 7602WAT      O31127   2.311   4.287   6.672
 7602WAT     H131128   2.353   4.251   6.605
 7602WAT     H231129   2.343   4.244   6.741
 7602WAT    EPW31130   2.322   4.275   6.672
 7603WAT      O31131   2.634   4.572   6.602
 7603WAT     H131132   2.718   4.582   6.582
 7603WAT     H231133   2.604   4.654   6.608
 7603WAT    EPW31134   2.642   4.585   6.600
 7604WAT      O31135   2.955   3.019   7.533
 7604WAT     H131136   2.973   2.938   7.506
 7604WAT     H231137   2.941   3.063   7.459
 7604WAT    EPW31138   2.956   3.013   7.518
 7605WAT      O31139   3.014   3.511   6.410
 7605WAT     H131140   3.043   3.488   6.331
 7605WAT     H231141   3.088   3.519   6.457
 7605WAT    EPW31142   3.029   3.509   6.406
 7606WAT      O31143   3.087   3.545   5.922
 7606WAT     H131144   3.115   3.624   5.947
 7606WAT     H231145   3.009   3.562   5.886
 7606WAT    EPW31146   3.079   3.559   5.921
 7607WAT      O31147   3.491   4.743   6.069
 7607WAT     H131148   3.557   4.728   6.015
 7607WAT     H231149   3.527   4.734   6.148
 7607WAT    EPW31150   3.506   4.739   6.073
 7608WAT      O31151   2.534   4.694   7.176
 7608WAT     H131152   2.563   4.687   7.258
 7608WAT     H231153   2.471   4.633   7.171
 7608WAT    EPW31154   2.529   4.684   7.187
 7609WAT      O31155   3.770   3.180   6.985
 7609WAT     H131156   3.845   3.187   6.942
 7609WAT     H231157   3.776   3.102   7.025
 7609WAT    EPW31158   3.782   3.169   6.985
 7610WAT      O31159   2.025   3.309   7.375
 7610WAT     H131160   2.025   3.368   7.439
 7610WAT     H231161   2.084   3.341   7.319
 7610WAT    EPW31162   2.034   3.323   7.376
 7611WAT      O31163   3.259   4.343   7.429
 7611WAT     H131164   3.255   4.381   7.507
 7611WAT     H231165   3.344   4.339   7.412
 7611WAT    EPW31166   3.271   4.348   7.438
 7612WAT      O31167   2.973   4.362   5.904
 7612WAT     H131168   2.954   4.417   5.970
 7612WAT     H231169   3.049   4.391   5.874
 7612WAT    EPW31170   2.981   4.375   5.909
 7613WAT      O31171   3.323   3.152   6.009
 7613WAT     H131172   3.377   3.084   6.017
 7613WAT     H231173   3.329   3.192   6.087
 7613WAT    EPW31174   3.332   3.148   6.022
 7614WAT      O31175   2.119   3.269   6.266
 7614WAT     H131176   2.107   3.182   6.269
 7614WAT     H231177   2.071   3.298   6.333
 7614WAT    EPW31178   2.110   3.260   6.277
 7615WAT      O31179   2.333   4.510   7.088
 7615WAT     H131180   2.263   4.459   7.100
 7615WAT     H231181   2.359   4.489   7.007
 7615WAT    EPW31182   2.326   4.499   7.078
 7616WAT      O31183   3.049   3.390   6.141
 7616WAT     H131184   2.998   3.323   6.115
 7616WAT     H231185   3.054   3.440   6.070
 7616WAT    EPW31186   3.042   3.387   6.127
 7617WAT      O31187   3.104   4.659   7.179
 7617WAT     H131188   3.181   4.651   7.138
 7617WAT     H231189   3.046   4.647   7.115
 7617WAT    EPW31190   3.107   4.656   7.163
 7618WAT      O31191   3.049   3.084   6.130
 7618WAT     H131192   3.004   3.044   6.067
 7618WAT     H231193   3.126   3.099   6.092
 7618WAT    EPW31194   3.054   3.080   6.115
 7619WAT      O31195   3.732   4.719   6.469
 7619WAT     H131196   3.686   4.791   6.489
 7619WAT     H231197   3.670   4.662   6.445
 7619WAT    EPW31198   3.716   4.722   6.468
 7620WAT      O31199   2.909   3.320   6.582
 7620WAT     H131200   2.916   3.377   6.516
 7620WAT     H231201   2.921   3.370   6.653
 7620WAT    EPW31202   2.912   3.336   6.583
 7621WAT      O31203   3.431   4.304   6.423
 7621WAT     H131204   3.501   4.256   6.442
 7621WAT     H231205   3.365   4.247   6.428
 7621WAT    EPW31206   3.432   4.288   6.427
 7622WAT      O31207   2.469   4.395   7.345
 7622WAT     H131208   2.553   4.401   7.322
 7622WAT     H231209   2.465   4.435   7.422
 7622WAT    EPW31210   2.481   4.402   7.353
 7623WAT      O31211   2.370   2.903   6.417
 7623WAT     H131212   2.423   2.972   6.416
 7623WAT     H231213   2.370   2.875   6.334
 7623WAT    EPW31214   2.378   2.909   6.405
 7624WAT      O31215   2.665   3.946   6.819
 7624WAT     H131216   2.682   3.925   6.902
 7624WAT     H231217   2.600   3.893   6.798
 7624WAT    EPW31218   2.658   3.935   6.829
 7625WAT      O31219   3.288   3.337   7.171
 7625WAT     H131220   3.279   3.369   7.252
 7625WAT     H231221   3.229   3.274   7.167
 7625WAT    EPW31222   3.278   3.333   7.182
 7626WAT      O31223   2.740   3.940   7.078
 7626WAT     H131224   2.746   4.025   7.099
 7626WAT     H231225   2.712   3.903   7.152
 7626WAT    EPW31226   2.737   3.947   7.092
 7627WAT      O31227   3.358   4.009   6.991
 7627WAT     H131228   3.307   3.968   7.049
 7627WAT     H231229   3.345   4.094   7.010
 7627WAT    EPW31230   3.349   4.016   7.003
 7628WAT      O31231   3.414   2.932   6.455
 7628WAT     H131232   3.419   2.900   6.536
 7628WAT     H231233   3.446   2.867   6.405
 7628WAT    EPW31234   3.419   2.918   6.459
 7629WAT      O31235   3.660   3.355   7.285
 7629WAT     H131236   3.737   3.333   7.319
 7629WAT     H231237   3.613   3.377   7.355
 7629WAT    EPW31238   3.664   3.355   7.301
 7630WAT      O31239   2.414   3.284   6.582
 7630WAT     H131240   2.442   3.241   6.512
 7630WAT     H231241   2.397   3.220   6.639
 7630WAT    EPW31242   2.416   3.268   6.580
 7631WAT      O31243   3.683   4.053   6.004
 7631WAT     H131244   3.695   4.025   6.086
 7631WAT     H231245   3.764   4.055   5.971
 7631WAT    EPW31246   3.697   4.049   6.011
 7632WAT      O31247   2.397   4.026   6.537
 7632WAT     H131248   2.482   4.018   6.520
 7632WAT     H231249   2.361   3.958   6.496
 7632WAT    EPW31250   2.404   4.015   6.529
 7633WAT      O31251   2.274   4.699   6.661
 7633WAT     H131252   2.206   4.649   6.636
 7633WAT     H231253   2.314   4.717   6.586
 7633WAT    EPW31254   2.270   4.694   6.646
 7634WAT      O31255   2.229   3.394   6.891
 7634WAT     H131256   2.313   3.416   6.886
 7634WAT     H231257   2.190   3.451   6.837
 7634WAT    EPW31258   2.235   3.406   6.882
 7635WAT      O31259   3.907   4.504   7.430
 7635WAT     H131260   3.838   4.535   7.385
 7635WAT     H231261   3.870   4.458   7.494
 7635WAT    EPW31262   3.891   4.502   7.432
 7636WAT      O31263   3.473   3.707   5.963
 7636WAT     H131264   3.451   3.780   5.920
 7636WAT     H231265   3.428   3.712   6.037
 7636WAT    EPW31266   3.463   3.718   5.967
 7637WAT      O31267   2.634   4.027   6.361
 7637WAT     H131268   2.705   4.077   6.370
 7637WAT     H231269   2.656   3.970   6.298
 7637WAT    EPW31270   2.647   4.026   6.353
 7638WAT      O31271   3.891   3.193   5.908
 7638WAT     H131272   3.825   3.136   5.910
 7638WAT     H231273   3.872   3.244   5.840
 7638WAT    EPW31274   3.879   3.192   5.898
 7639WAT      O31275   2.049   4.191   6.693
 7639WAT     H131276   1.983   4.240   6.720
 7639WAT     H231277   2.117   4.246   6.696
 7639WAT    EPW31278   2.049   4.207   6.697
 7640WAT      O31279   3.924   3.631   7.164
 7640WAT     H131280   3.945   3.551   7.136
 7640WAT     H231281   3.839   3.637   7.145
 7640WAT    EPW31282   3.914   3.620   7.157
 7641WAT      O31283   2.056   3.860   6.203
 7641WAT     H131284   2.037   3.776   6.218
 7641WAT     H231285   2.122   3.856   6.146
 7641WAT    EPW31286   2.063   3.847   6.197
 7642WAT      O31287   3.692   3.149   6.136
 7642WAT     H131288   3.766   3.108   6.156
 7642WAT     H231289   3.718   3.220   6.093
 7642WAT    EPW31290   3.707   3.153   6.133
 7643WAT      O31291   3.086   4.397   6.593
 7643WAT     H131292   3.034   4.461   6.564
 7643WAT     H231293   3.117   4.361   6.521
 7643WAT    EPW31294   3.083   4.401   6.578
 7644WAT      O31295   2.073   4.276   6.161
 7644WAT     H131296   2.128   4.333   6.197
 7644WAT     H231297   2.050   4.225   6.227
 7644WAT    EPW31298   2.078   4.277   6.176
 7645WAT      O31299   2.493   4.176   6.869
 7645WAT     H131300   2.540   4.205   6.937
 7645WAT     H231301   2.551   4.128   6.824
 7645WAT    EPW31302   2.509   4.173   6.873
 7646WAT      O31303   3.337   3.378   6.643
 7646WAT     H131304   3.371   3.393   6.722
 7646WAT     H231305   3.292   3.304   6.654
 7646WAT    EPW31306   3.335   3.369   6.656
 7647WAT      O31307   2.056   4.121   5.923
 7647WAT     H131308   2.132   4.078   5.929
 7647WAT     H231309   2.058   4.174   5.992
 7647WAT    EPW31310   2.067   4.123   5.934
 7648WAT      O31311   2.150   3.943   6.724
 7648WAT     H131312   2.193   3.930   6.649
 7648WAT     H231313   2.130   4.028   6.721
 7648WAT    EPW31314   2.153   3.954   6.712
 7649WAT      O31315   2.785   3.300   6.089
 7649WAT     H131316   2.784   3.288   6.002
 7649WAT     H231317   2.767   3.384   6.098
 7649WAT    EPW31318   2.782   3.310   6.077
 7650WAT      O31319   3.690   4.542   7.239
 7650WAT     H131320   3.623   4.594   7.260
 7650WAT     H231321   3.696   4.552   7.152
 7650WAT    EPW31322   3.681   4.551   7.229
 7651WAT      O31323   2.558   4.295   6.552
 7651WAT     H131324   2.571   4.379   6.571
 7651WAT     H231325   2.625   4.255   6.592
 7651WAT    EPW31326   2.570   4.301   6.561
 7652WAT      O31327   2.371   3.643   7.538
 7652WAT     H131328   2.318   3.593   7.585
 7652WAT     H231329   2.373   3.604   7.460
 7652WAT    EPW31330   2.364   3.630   7.534
 7653WAT      O31331   2.420   3.583   6.052
 7653WAT     H131332   2.407   3.538   6.126
 7653WAT     H231333   2.362   3.549   5.997
 7653WAT    EPW31334   2.409   3.571   6.055
 7654WAT      O31335   2.437   3.766   6.712
 7654WAT     H131336   2.359   3.760   6.674
 7654WAT     H231337   2.444   3.691   6.756
 7654WAT    EPW31338   2.426   3.754   6.713
 7655WAT      O31339   2.480   3.740   7.059
 7655WAT     H131340   2.482   3.672   7.004
 7655WAT     H231341   2.415   3.789   7.028
 7655WAT    EPW31342   2.471   3.737   7.046
 7656WAT      O31343   3.469   3.511   6.899
 7656WAT     H131344   3.403   3.544   6.945
 7656WAT     H231345   3.488   3.574   6.842
 7656WAT    EPW31346   3.462   3.525   6.897
 7657WAT      O31347   2.890   4.617   6.998
 7657WAT     H131348   2.862   4.553   6.946
 7657WAT     H231349   2.869   4.690   6.954
 7657WAT    EPW31350   2.883   4.619   6.984
 7658WAT      O31351   3.134   3.101   7.241
 7658WAT     H131352   3.149   3.019   7.217
 7658WAT     H231353   3.172   3.107   7.320
 7658WAT    EPW31354   3.141   3.090   7.249
 7659WAT      O31355   3.288   3.308   6.250
 7659WAT     H131356   3.337   3.379   6.242
 7659WAT     H231357   3.209   3.334   6.223
 7659WAT    EPW31358   3.284   3.322   6.245
 7660WAT      O31359   2.260   3.875   7.615
 7660WAT     H131360   2.256   3.925   7.543
 7660WAT     H231361   2.293   3.800   7.585
 7660WAT    EPW31362   2.264   3.871   7.600
 7661WAT      O31363   3.420   4.096   7.441
 7661WAT     H131364   3.468   4.167   7.450
 7661WAT     H231365   3.459   4.053   7.376
 7661WAT    EPW31366   3.433   4.100   7.432
 7662WAT      O31367   2.849   4.380   7.558
 7662WAT     H131368   2.885   4.362   7.636
 7662WAT     H231369   2.806   4.307   7.538
 7662WAT    EPW31370   2.848   4.367   7.567
 7663WAT      O31371   2.947   3.455   6.822
 7663WAT     H131372   2.995   3.525   6.843
 7663WAT     H231373   2.984   3.390   6.867
 7663WAT    EPW31374   2.959   3.456   6.832
 7664WAT      O31375   3.166   3.772   6.050
 7664WAT     H131376   3.165   3.844   6.001
 7664WAT     H231377   3.102   3.785   6.107
 7664WAT    EPW31378   3.156   3.784   6.051
 7665WAT      O31379   3.663   4.159   6.448
 7665WAT     H131380   3.698   4.124   6.519
 7665WAT     H231381   3.662   4.093   6.391
 7665WAT    EPW31382   3.668   4.144   6.450
 7666WAT      O31383   3.267   4.465   6.832
 7666WAT     H131384   3.207   4.436   6.776
 7666WAT     H231385   3.322   4.510   6.781
 7666WAT    EPW31386   3.266   4.468   6.816
 7667WAT      O31387   3.269   4.150   6.772
 7667WAT     H131388   3.189   4.173   6.799
 7667WAT     H231389   3.294   4.091   6.831
 7667WAT    EPW31390   3.261   4.145   6.785
 7668WAT      O31391   2.658   4.632   6.217
 7668WAT     H131392   2.643   4.554   6.254
 7668WAT     H231393   2.727   4.617   6.165
 7668WAT    EPW31394   2.666   4.618   6.215
 7669WAT      O31395   2.625   3.006   6.016
 7669WAT     H131396   2.635   2.995   6.102
 7669WAT     H231397   2.554   3.056   6.009
 7669WAT    EPW31398   2.616   3.012   6.027
 7670WAT      O31399   3.595   3.950   7.257
 7670WAT     H131400   3.600   3.963   7.170
 7670WAT     H231401   3.670   3.982   7.287
 7670WAT    EPW31402   3.606   3.957   7.248
 7671WAT      O31403   3.698   2.980   7.555
 7671WAT     H131404   3.634   2.940   7.511
 7671WAT     H231405   3.700   2.937   7.631
 7671WAT    EPW31406   3.689   2.968   7.560
 7672WAT      O31407   2.337   3.837   6.140
 7672WAT     H131408   2.369   3.759   6.118
 7672WAT     H231409   2.402   3.873   6.185
 7672WAT    EPW31410   2.351   3.830   6.143
 7673WAT      O31411   3.168   3.931   7.217
 7673WAT     H131412   3.152   3.992   7.277
 7673WAT     H231413   3.221   3.875   7.257
 7673WAT    EPW31414   3.173   3.932   7.232
 7674WAT      O31415   2.037   3.003   6.237
 7674WAT     H131416   2.050   2.932   6.188
 7674WAT     H231417   2.000   2.971   6.309
 7674WAT    EPW31418   2.033   2.987   6.240
 7675WAT      O31419   3.006   3.771   6.282
 7675WAT     H131420   3.012   3.836   6.340
 7675WAT     H231421   2.987   3.701   6.332
 7675WAT    EPW31422   3.004   3.770   6.298
 7676WAT      O31423   2.456   3.222   5.934
 7676WAT     H131424   2.405   3.228   5.863
 7676WAT     H231425   2.534   3.246   5.904
 7676WAT    EPW31426   2.460   3.227   5.919
 7677WAT      O31427   2.928   3.975   6.726
 7677WAT     H131428   2.844   3.956   6.734
 7677WAT     H231429   2.961   3.959   6.805
 7677WAT    EPW31430   2.921   3.970   6.738
 7678WAT      O31431   2.604   4.648   5.814
 7678WAT     H131432   2.647   4.579   5.843
 7678WAT     H231433   2.624   4.711   5.871
 7678WAT    EPW31434   2.613   4.647   5.827
 7679WAT      O31435   2.313   3.945   6.957
 7679WAT     H131436   2.385   3.994   6.953
 7679WAT     H231437   2.286   3.942   6.874
 7679WAT    EPW31438   2.320   3.952   6.944
 7680WAT      O31439   2.636   3.462   6.631
 7680WAT     H131440   2.721   3.443   6.640
 7680WAT     H231441   2.599   3.384   6.617
 7680WAT    EPW31442   2.643   3.448   6.630
 7681WAT      O31443   3.898   4.620   6.063
 7681WAT     H131444   3.967   4.574   6.039
 7681WAT     H231445   3.844   4.560   6.097
 7681WAT    EPW31446   3.900   4.604   6.065
 7682WAT      O31447   2.118   3.596   6.296
 7682WAT     H131448   2.167   3.566   6.362
 7682WAT     H231449   2.131   3.536   6.233
 7682WAT    EPW31450   2.127   3.583   6.297
 7683WAT      O31451   3.622   3.898   6.981
 7683WAT     H131452   3.621   3.820   7.021
 7683WAT     H231453   3.538   3.921   6.981
 7683WAT    EPW31454   3.609   3.890   6.987
 7684WAT      O31455   2.571   3.739   5.845
 7684WAT     H131456   2.510   3.699   5.892
 7684WAT     H231457   2.532   3.751   5.767
 7684WAT    EPW31458   2.556   3.735   5.840
 7685WAT      O31459   2.253   4.050   7.385
 7685WAT     H131460   2.211   3.998   7.329
 7685WAT     H231461   2.217   4.129   7.371
 7685WAT    EPW31462   2.241   4.054   7.375
 7686WAT      O31463   3.747   3.905   6.725
 7686WAT     H131464   3.719   3.945   6.797
 7686WAT     H231465   3.833   3.899   6.738
 7686WAT    EPW31466   3.756   3.910   6.737
 7687WAT      O31467   2.716   3.585   6.116
 7687WAT     H131468   2.743   3.668   6.122
 7687WAT     H231469   2.630   3.593   6.106
 7687WAT    EPW31470   2.708   3.598   6.115
 7688WAT      O31471   3.514   3.297   7.579
 7688WAT     H131472   3.461   3.343   7.631
 7688WAT     H231473   3.477   3.218   7.578
 7688WAT    EPW31474   3.500   3.292   7.587
 7689WAT      O31475   2.064   3.182   6.769
 7689WAT     H131476   2.069   3.217   6.689
 7689WAT     H231477   2.140   3.206   6.806
 7689WAT    EPW31478   2.076   3.191   6.763
 7690WAT      O31479   3.860   4.468   6.778
 7690WAT     H131480   3.889   4.494   6.700
 7690WAT     H231481   3.930   4.478   6.830
 7690WAT    EPW31482   3.875   4.473   6.774
 7691WAT      O31483   3.363   3.654   7.587
 7691WAT     H131484   3.370   3.665   7.673
 7691WAT     H231485   3.299   3.710   7.564
 7691WAT    EPW31486   3.354   3.664   7.596
 7692WAT      O31487   3.590   3.686   7.423
 7692WAT     H131488   3.621   3.765   7.443
 7692WAT     H231489   3.553   3.659   7.497
 7692WAT    EPW31490   3.589   3.694   7.437
 7693WAT      O31491   3.521   4.329   5.976
 7693WAT     H131492   3.554   4.248   5.980
 7693WAT     H231493   3.445   4.321   6.019
 7693WAT    EPW31494   3.515   4.316   5.983
 7694WAT      O31495   3.569   3.512   6.542
 7694WAT     H131496   3.495   3.480   6.574
 7694WAT     H231497   3.569   3.595   6.570
 7694WAT    EPW31498   3.558   3.519   6.551
 7695WAT      O31499   3.813   4.108   7.317
 7695WAT     H131500   3.876   4.053   7.292
 7695WAT     H231501   3.807   4.164   7.251
 7695WAT    EPW31502   3.822   4.108   7.304
 7696WAT      O31503   3.258   4.116   5.916
 7696WAT     H131504   3.327   4.065   5.899
 7696WAT     H231505   3.217   4.121   5.840
 7696WAT    EPW31506   3.262   4.109   5.903
 7697WAT      O31507   2.727   4.231   7.047
 7697WAT     H131508   2.697   4.290   7.103
 7697WAT     H231509   2.732   4.275   6.972
 7697WAT    EPW31510   2.723   4.246   7.044
 7698WAT      O31511   2.524   4.126   7.387
 7698WAT     H131512   2.444   4.097   7.403
 7698WAT     H231513   2.516   4.213   7.387
 7698WAT    EPW31514   2.511   4.135   7.389
 7699WAT      O31515   3.460   3.145   7.288
 7699WAT     H131516   3.535   3.190   7.282
 7699WAT     H231517   3.404   3.192   7.241
 7699WAT    EPW31518   3.463   3.159   7.280
 7700WAT      O31519   2.978   3.873   6.996
 7700WAT     H131520   3.026   3.911   7.059
 7700WAT     H231521   2.896   3.887   7.022
 7700WAT    EPW31522   2.973   3.881   7.009
 7701WAT      O31523   2.649   3.434   7.270
 7701WAT     H131524   2.665   3.359   7.313
 7701WAT     H231525   2.645   3.409   7.186
 7701WAT    EPW31526   2.651   3.419   7.264
 7702WAT      O31527   2.905   4.613   6.519
 7702WAT     H131528   2.959   4.681   6.524
 7702WAT     H231529   2.870   4.621   6.439
 7702WAT    EPW31530   2.907   4.624   6.508
 7703WAT      O31531   3.589   2.943   7.055
 7703WAT     H131532   3.561   3.025   7.051
 7703WAT     H231533   3.660   2.948   7.105
 7703WAT    EPW31534   3.595   2.956   7.062
 7704WAT      O31535   2.824   3.014   7.258
 7704WAT     H131536   2.895   3.046   7.218
 7704WAT     H231537   2.848   2.934   7.281
 7704WAT    EPW31538   2.838   3.007   7.255
 7705WAT      O31539   2.723   4.435   6.858
 7705WAT     H131540   2.660   4.494   6.839
 7705WAT     H231541   2.748   4.407   6.779
 7705WAT    EPW31542   2.717   4.440   6.843
 7706WAT      O31543   3.154   4.099   7.556
 7706WAT     H131544   3.229   4.127   7.524
 7706WAT     H231545   3.099   4.104   7.489
 7706WAT    EPW31546   3.157   4.104   7.542
 7707WAT      O31547   3.545   4.354   7.407
 7707WAT     H131548   3.579   4.381   7.482
 7707WAT     H231549   3.574   4.412   7.349
 7707WAT    EPW31550   3.554   4.366   7.409
 7708WAT      O31551   3.731   3.568   5.941
 7708WAT     H131552   3.769   3.636   5.901
 7708WAT     H231553   3.647   3.591   5.944
 7708WAT    EPW31554   3.724   3.582   5.935
 7709WAT      O31555   2.882   3.913   5.849
 7709WAT     H131556   2.802   3.895   5.821
 7709WAT     H231557   2.879   3.998   5.868
 7709WAT    EPW31558   2.870   3.923   5.848
 7710WAT      O31559   2.475   3.520   6.864
 7710WAT     H131560   2.519   3.509   6.789
 7710WAT     H231561   2.530   3.488   6.925
 7710WAT    EPW31562   2.490   3.514   6.862
 7711WAT      O31563   3.277   3.430   7.423
 7711WAT     H131564   3.212   3.477   7.458
 7711WAT     H231565   3.333   3.421   7.489
 7711WAT    EPW31566   3.276   3.436   7.438
 7712WAT      O31567   3.246   3.584   7.053
 7712WAT     H131568   3.276   3.626   7.123
 7712WAT     H231569   3.249   3.500   7.076
 7712WAT    EPW31570   3.251   3.577   7.067
 7713WAT      O31571   2.988   4.600   7.446
 7713WAT     H131572   3.036   4.540   7.404
 7713WAT     H231573   2.953   4.556   7.512
 7713WAT    EPW31574   2.990   4.585   7.449
 7714WAT      O31575   3.500   3.528   6.278
 7714WAT     H131576   3.521   3.508   6.361
 7714WAT     H231577   3.576   3.555   6.244
 7714WAT    EPW31578   3.515   3.529   6.285
 7715WAT      O31579   2.830   3.018   6.869
 7715WAT     H131580   2.747   3.003   6.892
 7715WAT     H231581   2.826   3.022   6.782
 7715WAT    EPW31582   2.817   3.017   6.859
 7716WAT      O31583   3.603   3.137   6.426
 7716WAT     H131584   3.531   3.090   6.443
 7716WAT     H231585   3.586   3.171   6.347
 7716WAT    EPW31586   3.590   3.135   6.417
 7717WAT      O31587   3.647   3.931   6.264
 7717WAT     H131588   3.695   3.858   6.259
 7717WAT     H231589   3.565   3.902   6.256
 7717WAT    EPW31590   3.642   3.916   6.262
 7718WAT      O31591   2.994   4.122   7.348
 7718WAT     H131592   2.915   4.116   7.383
 7718WAT     H231593   3.001   4.207   7.328
 7718WAT    EPW31594   2.983   4.134   7.350
 7719WAT      O31595   2.086   3.058   7.472
 7719WAT     H131596   2.072   3.138   7.439
 7719WAT     H231597   2.008   3.034   7.501
 7719WAT    EPW31598   2.073   3.066   7.472
 7720WAT      O31599   2.577   4.743   6.879
 7720WAT     H131600   2.578   4.749   6.966
 7720WAT     H231601   2.535   4.668   6.864
 7720WAT    EPW31602   2.571   4.733   6.890
 7721WAT      O31603   2.393   3.332   6.195
 7721WAT     H131604   2.405   3.300   6.115
 7721WAT     H231605   2.312   3.308   6.215
 7721WAT    EPW31606   2.383   3.324   6.186
 7722WAT      O31607   3.269   4.048   6.499
 7722WAT     H131608   3.276   4.082   6.579
 7722WAT     H231609   3.285   3.963   6.511
 7722WAT    EPW31610   3.272   4.040   6.513
 7723WAT      O31611   3.021   3.975   6.456
 7723WAT     H131612   2.991   3.944   6.531
 7723WAT     H231613   3.090   4.022   6.479
 7723WAT    EPW31614   3.027   3.977   6.470
 7724WAT      O31615   3.043   4.387   7.258
 7724WAT     H131616   3.112   4.376   7.311
 7724WAT     H231617   3.056   4.466   7.224
 7724WAT    EPW31618   3.055   4.397   7.261
 7725WAT      O31619   3.861   3.648   7.439
 7725WAT     H131620   3.775   3.636   7.452
 7725WAT     H231621   3.876   3.608   7.363
 7725WAT    EPW31622   3.850   3.640   7.430
 7726WAT      O31623   3.312   3.714   7.297
 7726WAT     H131624   3.286   3.642   7.339
 7726WAT     H231625   3.394   3.726   7.324
 7726WAT    EPW31626   3.320   3.705   7.307
 7727WAT      O31627   2.253   4.693   7.423
 7727WAT     H131628   2.188   4.636   7.433
 7727WAT     H231629   2.216   4.770   7.439
 7727WAT    EPW31630   2.238   4.696   7.427
 7728WAT      O31631   3.105   3.833   7.616
 7728WAT     H131632   3.138   3.902   7.573
 7728WAT     H231633   3.035   3.866   7.656
 7728WAT    EPW31634   3.100   3.848   7.615
 7729WAT      O31635   3.414   4.671   6.709
 7729WAT     H131636   3.369   4.735   6.747
 7729WAT     H231637   3.484   4.663   6.759
 7729WAT    EPW31638   3.417   4.679   6.722
 7730WAT      O31639   3.084   4.180   7.002
 7730WAT     H131640   3.014   4.220   7.036
 7730WAT     H231641   3.151   4.223   7.036
 7730WAT    EPW31642   3.083   4.192   7.012
 7731WAT      O31643   2.391   3.534   7.236
 7731WAT     H131644   2.428   3.595   7.188
 7731WAT     H231645   2.458   3.486   7.265
 7731WAT    EPW31646   2.406   3.536   7.233
 7732WAT      O31647   2.168   3.378   7.164
 7732WAT     H131648   2.176   3.361   7.079
 7732WAT     H231649   2.243   3.419   7.184
 7732WAT    EPW31650   2.180   3.382   7.154
 7733WAT      O31651   3.724   3.642   6.208
 7733WAT     H131652   3.734   3.637   6.121
 7733WAT     H231653   3.798   3.609   6.240
 7733WAT    EPW31654   3.736   3.637   6.200
 7734WAT      O31655   2.423   3.119   7.405
 7734WAT     H131656   2.415   3.035   7.426
 7734WAT     H231657   2.392   3.124   7.324
 7734WAT    EPW31658   2.418   3.108   7.396
 7735WAT      O31659   3.116   4.339   6.319
 7735WAT     H131660   3.095   4.422   6.303
 7735WAT     H231661   3.038   4.301   6.331
 7735WAT    EPW31662   3.101   4.346   6.318
 7736WAT      O31663   3.634   3.657   7.143
 7736WAT     H131664   3.634   3.571   7.156
 7736WAT     H231665   3.641   3.689   7.224
 7736WAT    EPW31666   3.635   3.649   7.157
 7737WAT      O31667   2.108   3.901   7.186
 7737WAT     H131668   2.140   3.923   7.108
 7737WAT     H231669   2.098   3.814   7.181
 7737WAT    EPW31670   2.111   3.891   7.174
 7738WAT      O31671   2.253   3.495   5.848
 7738WAT     H131672   2.186   3.496   5.904
 7738WAT     H231673   2.263   3.410   5.830
 7738WAT    EPW31674   2.245   3.482   5.854
 7739WAT      O31675   3.222   3.137   7.522
 7739WAT     H131676   3.231   3.208   7.571
 7739WAT     H231677   3.158   3.092   7.561
 7739WAT    EPW31678   3.214   3.141   7.535
 7740WAT      O31679   3.121   3.156   6.607
 7740WAT     H131680   3.051   3.208   6.601
 7740WAT     H231681   3.125   3.118   6.529
 7740WAT    EPW31682   3.112   3.158   6.595
 7741WAT      O31683   2.652   4.365   5.959
 7741WAT     H131684   2.696   4.373   6.034
 7741WAT     H231685   2.572   4.343   5.985
 7741WAT    EPW31686   2.647   4.363   5.974
 7742WAT      O31687   3.481   3.208   6.887
 7742WAT     H131688   3.567   3.217   6.902
 7742WAT     H231689   3.444   3.263   6.944
 7742WAT    EPW31690   3.488   3.217   6.898
 7743WAT      O31691   2.584   3.830   7.325
 7743WAT     H131692   2.544   3.908   7.332
 7743WAT     H231693   2.543   3.793   7.257
 7743WAT    EPW31694   2.572   3.836   7.316
 7744WAT      O31695   3.512   3.736   6.736
 7744WAT     H131696   3.578   3.790   6.752
 7744WAT     H231697   3.477   3.767   6.662
 7744WAT    EPW31698   3.516   3.748   6.728
 7745WAT      O31699   3.543   4.542   6.317
 7745WAT     H131700   3.526   4.477   6.372
 7745WAT     H231701   3.614   4.515   6.275
 7745WAT    EPW31702   3.551   4.528   6.319
 7746WAT      O31703   2.385   4.272   6.020
 7746WAT     H131704   2.361   4.241   6.098
 7746WAT     H231705   2.382   4.202   5.968
 7746WAT    EPW31706   2.381   4.257   6.023
 7747WAT      O31707   2.667   4.097   5.894
 7747WAT     H131708   2.585   4.070   5.908
 7747WAT     H231709   2.664   4.182   5.912
 7747WAT    EPW31710   2.654   4.105   5.899
 7748WAT      O31711   2.627   3.128   7.070
 7748WAT     H131712   2.541   3.136   7.078
 7748WAT     H231713   2.649   3.076   7.137
 7748WAT    EPW31714   2.617   3.122   7.081
 7749WAT      O31715   3.829   2.991   7.203
 7749WAT     H131716   3.824   2.987   7.290
 7749WAT     H231717   3.897   2.941   7.184
 7749WAT    EPW31718   3.838   2.983   7.213
 7750WAT      O31719   3.037   3.203   6.907
 7750WAT     H131720   2.964   3.157   6.918
 7750WAT     H231721   3.094   3.162   6.959
 7750WAT    EPW31722   3.035   3.190   6.917
 7751WAT      O31723   3.310   4.287   7.086
 7751WAT     H131724   3.331   4.318   7.165
 7751WAT     H231725   3.304   4.360   7.037
 7751WAT    EPW31726   3.313   4.303   7.090
 7752WAT      O31727   3.264   4.709   7.511
 7752WAT     H131728   3.189   4.707   7.466
 7752WAT     H231729   3.281   4.794   7.519
 7752WAT    EPW31730   3.255   4.721   7.505
 7753WAT      O31731   2.788   3.636   7.428
 7753WAT     H131732   2.755   3.578   7.371
 7753WAT     H231733   2.752   3.711   7.403
 7753WAT    EPW31734   2.778   3.638   7.416
 7754WAT      O31735   2.867   2.961   5.890
 7754WAT     H131736   2.875   2.985   5.807
 7754WAT     H231737   2.793   2.998   5.916
 7754WAT    EPW31738   2.857   2.970   5.882
 7755WAT      O31739   3.792   4.151   7.032
 7755WAT     H131740   3.788   4.065   7.018
 7755WAT     H231741   3.722   4.182   6.988
 7755WAT    EPW31742   3.781   4.143   7.023
 7756WAT      O31743   2.631   4.671   7.452
 7756WAT     H131744   2.635   4.684   7.539
 7756WAT     H231745   2.696   4.615   7.437
 7756WAT    EPW31746   2.641   4.665   7.463
 7757WAT      O31747   3.602   4.477   6.911
 7757WAT     H131748   3.655   4.469   6.842
 7757WAT     H231749   3.563   4.400   6.917
 7757WAT    EPW31750   3.604   4.465   6.902
 7758WAT      O31751   2.349   3.136   7.135
 7758WAT     H131752   2.315   3.059   7.111
 7758WAT     H231753   2.279   3.189   7.141
 7758WAT    EPW31754   2.334   3.133   7.132
 7759WAT      O31755   3.254   3.022   6.832
 7759WAT     H131756   3.321   3.076   6.845
 7759WAT     H231757   3.203   3.064   6.775
 7759WAT    EPW31758   3.256   3.036   6.826
 7760WAT      O31759   2.390   4.509   7.588
 7760WAT     H131760   2.450   4.553   7.636
 7760WAT     H231761   2.354   4.572   7.539
 7760WAT    EPW31762   2.394   4.525   7.588
 7761WAT      O31763   3.189   3.603   6.582
 7761WAT     H131764   3.245   3.542   6.612
 7761WAT     H231765   3.147   3.629   6.653
 7761WAT    EPW31766   3.191   3.597   6.596
 7762WAT      O31767   2.214   3.468   6.530
 7762WAT     H131768   2.177   3.498   6.603
 7762WAT     H231769   2.268   3.405   6.559
 7762WAT    EPW31770   2.217   3.463   6.545
 7763WAT      O31771   2.183   4.308   7.281
 7763WAT     H131772   2.126   4.350   7.332
 7763WAT     H231773   2.256   4.355   7.291
 7763WAT    EPW31774   2.185   4.321   7.290
 7764WAT      O31775   3.386   3.786   6.238
 7764WAT     H131776   3.393   3.701   6.256
 7764WAT     H231777   3.304   3.794   6.210
 7764WAT    EPW31778   3.375   3.774   6.236
 7765WAT      O31779   2.362   4.635   6.159
 7765WAT     H131780   2.347   4.651   6.074
 7765WAT     H231781   2.448   4.643   6.167
 7765WAT    EPW31782   2.372   4.639   6.147
 7766WAT      O31783   2.778   3.875   6.132
 7766WAT     H131784   2.788   3.889   6.046
 7766WAT     H231785   2.860   3.869   6.161
 7766WAT    EPW31786   2.792   3.876   6.123
 7767WAT      O31787   3.714   3.923   7.553
 7767WAT     H131788   3.777   3.906   7.610
 7767WAT     H231789   3.756   3.963   7.488
 7767WAT    EPW31790   3.729   3.926   7.552
 7768WAT      O31791   3.302   4.308   6.112
 7768WAT     H131792   3.277   4.295   6.194
 7768WAT     H231793   3.270   4.238   6.070
 7768WAT    EPW31794   3.293   4.296   6.118
 7769WAT      O31795   3.776   3.379   7.627
 7769WAT     H131796   3.757   3.444   7.682
 7769WAT     H231797   3.704   3.330   7.626
 7769WAT    EPW31798   3.763   3.382   7.635
 7770WAT      O31799   3.766   3.473   6.924
 7770WAT     H131800   3.683   3.498   6.917
 7770WAT     H231801   3.761   3.389   6.947
 7770WAT    EPW31802   3.753   3.465   6.926
 7771WAT      O31803   2.692   3.172   7.443
 7771WAT     H131804   2.716   3.115   7.382
 7771WAT     H231805   2.608   3.154   7.457
 7771WAT    EPW31806   2.683   3.161   7.436
 7772WAT      O31807   3.455   3.934   7.688
 7772WAT     H131808   3.542   3.930   7.685
 7772WAT     H231809   3.433   3.976   7.615
 7772WAT    EPW31810   3.465   3.940   7.677
 7773WAT      O31811   2.430   4.517   6.806
 7773WAT     H131812   2.422   4.436   6.775
 7773WAT     H231813   2.386   4.565   6.749
 7773WAT    EPW31814   2.423   4.512   6.793
 7774WAT      O31815   2.990   4.128   6.055
 7774WAT     H131816   3.062   4.094   6.019
 7774WAT     H231817   2.987   4.208   6.020
 7774WAT    EPW31818   3.001   4.135   6.044
 7775WAT      O31819   2.188   4.741   7.165
 7775WAT     H131820   2.237   4.735   7.236
 7775WAT     H231821   2.206   4.668   7.121
 7775WAT    EPW31822   2.198   4.729   7.169
 7776WAT      O31823   2.099   4.098   4.491
 7776WAT     H131824   2.055   4.110   4.566
 7776WAT     H231825   2.071   4.021   4.463
 7776WAT    EPW31826   2.088   4.088   4.498
 7777WAT      O31827   2.073   3.477   4.142
 7777WAT     H131828   1.996   3.494   4.106
 7777WAT     H231829   2.077   3.390   4.144
 7777WAT    EPW31830   2.063   3.467   4.137
 7778WAT      O31831   2.387   4.004   4.009
 7778WAT     H131832   2.348   3.967   3.941
 7778WAT     H231833   2.379   3.944   4.072
 7778WAT    EPW31834   2.380   3.989   4.008
 7779WAT      O31835   2.350   4.168   4.399
 7779WAT     H131836   2.411   4.151   4.460
 7779WAT     H231837   2.275   4.154   4.441
 7779WAT    EPW31838   2.348   4.163   4.414
 7780WAT      O31839   2.778   3.101   4.394
 7780WAT     H131840   2.771   3.169   4.340
 7780WAT     H231841   2.852   3.062   4.369
 7780WAT    EPW31842   2.788   3.106   4.382
 7781WAT      O31843   2.751   4.124   5.624
 7781WAT     H131844   2.727   4.124   5.708
 7781WAT     H231845   2.676   4.109   5.581
 7781WAT    EPW31846   2.736   4.122   5.630
 7782WAT      O31847   2.238   3.824   4.537
 7782WAT     H131848   2.192   3.785   4.474
 7782WAT     H231849   2.308   3.772   4.546
 7782WAT    EPW31850   2.241   3.810   4.529
 7783WAT      O31851   2.689   3.385   5.072
 7783WAT     H131852   2.756   3.387   5.017
 7783WAT     H231853   2.684   3.301   5.096
 7783WAT    EPW31854   2.698   3.373   5.067
 7784WAT      O31855   2.749   4.443   5.350
 7784WAT     H131856   2.763   4.519   5.309
 7784WAT     H231857   2.828   4.407   5.353
 7784WAT    EPW31858   2.762   4.449   5.344
 7785WAT      O31859   2.498   3.143   4.466
 7785WAT     H131860   2.468   3.193   4.401
 7785WAT     H231861   2.584   3.151   4.460
 7785WAT    EPW31862   2.506   3.152   4.456
 7786WAT      O31863   2.795   3.057   4.688
 7786WAT     H131864   2.803   3.143   4.701
 7786WAT     H231865   2.792   3.050   4.601
 7786WAT    EPW31866   2.796   3.069   4.677
 7787WAT      O31867   2.083   3.600   4.838
 7787WAT     H131868   2.058   3.683   4.831
 7787WAT     H231869   2.017   3.562   4.880
 7787WAT    EPW31870   2.070   3.606   4.843
 7788WAT      O31871   2.074   4.571   4.628
 7788WAT     H131872   2.015   4.627   4.597
 7788WAT     H231873   2.117   4.544   4.557
 7788WAT    EPW31874   2.072   4.575   4.613
 7789WAT      O31875   2.658   4.355   4.376
 7789WAT     H131876   2.600   4.328   4.436
 7789WAT     H231877   2.721   4.294   4.379
 7789WAT    EPW31878   2.659   4.342   4.385
 7790WAT      O31879   2.386   3.082   4.887
 7790WAT     H131880   2.334   3.019   4.857
 7790WAT     H231881   2.445   3.038   4.935
 7790WAT    EPW31882   2.387   3.066   4.890
 7791WAT      O31883   2.717   3.295   5.817
 7791WAT     H131884   2.729   3.249   5.744
 7791WAT     H231885   2.746   3.375   5.797
 7791WAT    EPW31886   2.723   3.300   5.803
 7792WAT      O31887   2.229   4.438   4.421
 7792WAT     H131888   2.294   4.380   4.423
 7792WAT     H231889   2.268   4.513   4.399
 7792WAT    EPW31890   2.244   4.440   4.418
 7793WAT      O31891   2.290   3.255   5.716
 7793WAT     H131892   2.212   3.216   5.708
 7793WAT     H231893   2.339   3.213   5.657
 7793WAT    EPW31894   2.286   3.243   5.706
 7794WAT      O31895   2.311   4.287   4.771
 7794WAT     H131896   2.353   4.251   4.704
 7794WAT     H231897   2.343   4.244   4.841
 7794WAT    EPW31898   2.322   4.275   4.772
 7795WAT      O31899   2.634   4.572   4.701
 7795WAT     H131900   2.718   4.582   4.682
 7795WAT     H231901   2.604   4.654   4.708
 7795WAT    EPW31902   2.642   4.585   4.699
 7796WAT      O31903   2.955   3.019   5.632
 7796WAT     H131904   2.973   2.938   5.605
 7796WAT     H231905   2.941   3.063   5.559
 7796WAT    EPW31906   2.956   3.013   5.617
 7797WAT      O31907   2.534   4.694   5.275
 7797WAT     H131908   2.563   4.687   5.357
 7797WAT     H231909   2.471   4.633   5.271
 7797WAT    EPW31910   2.529   4.684   5.287
 7798WAT      O31911   2.025   3.309   5.474
 7798WAT     H131912   2.025   3.368   5.539
 7798WAT     H231913   2.084   3.341   5.419
 7798WAT    EPW31914   2.034   3.323   5.476
 7799WAT      O31915   3.259   4.343   5.528
 7799WAT     H131916   3.255   4.381   5.607
 7799WAT     H231917   3.344   4.339   5.511
 7799WAT    EPW31918   3.271   4.348   5.538
 7800WAT      O31919   2.973   4.362   4.003
 7800WAT     H131920   2.954   4.417   4.069
 7800WAT     H231921   3.049   4.391   3.973
 7800WAT    EPW31922   2.981   4.375   4.009
 7801WAT      O31923   2.119   3.269   4.366
 7801WAT     H131924   2.107   3.182   4.369
 7801WAT     H231925   2.071   3.298   4.433
 7801WAT    EPW31926   2.110   3.260   4.376
 7802WAT      O31927   2.333   4.510   5.187
 7802WAT     H131928   2.263   4.459   5.200
 7802WAT     H231929   2.359   4.489   5.106
 7802WAT    EPW31930   2.326   4.499   5.177
 7803WAT      O31931   2.469   4.395   5.444
 7803WAT     H131932   2.553   4.401   5.422
 7803WAT     H231933   2.465   4.435   5.522
 7803WAT    EPW31934   2.481   4.402   5.452
 7804WAT      O31935   2.022   4.377   5.799
 7804WAT     H131936   2.098   4.412   5.825
 7804WAT     H231937   2.040   4.292   5.793
 7804WAT    EPW31938   2.036   4.369   5.802
 7805WAT      O31939   2.414   3.284   4.682
 7805WAT     H131940   2.442   3.241   4.611
 7805WAT     H231941   2.397   3.220   4.739
 7805WAT    EPW31942   2.416   3.268   4.680
 7806WAT      O31943   2.397   4.026   4.637
 7806WAT     H131944   2.482   4.018   4.619
 7806WAT     H231945   2.361   3.958   4.595
 7806WAT    EPW31946   2.404   4.015   4.628
 7807WAT      O31947   2.274   4.699   4.760
 7807WAT     H131948   2.206   4.649   4.736
 7807WAT     H231949   2.314   4.717   4.685
 7807WAT    EPW31950   2.270   4.694   4.746
 7808WAT      O31951   2.229   3.394   4.990
 7808WAT     H131952   2.313   3.416   4.986
 7808WAT     H231953   2.190   3.451   4.937
 7808WAT    EPW31954   2.235   3.406   4.981
 7809WAT      O31955   2.049   4.191   4.792
 7809WAT     H131956   1.983   4.240   4.820
 7809WAT     H231957   2.117   4.246   4.795
 7809WAT    EPW31958   2.049   4.207   4.797
 7810WAT      O31959   2.814   3.562   5.802
 7810WAT     H131960   2.766   3.620   5.846
 7810WAT     H231961   2.811   3.592   5.720
 7810WAT    EPW31962   2.806   3.575   5.796
 7811WAT      O31963   2.056   3.860   4.302
 7811WAT     H131964   2.037   3.776   4.318
 7811WAT     H231965   2.122   3.856   4.245
 7811WAT    EPW31966   2.063   3.847   4.296
 7812WAT      O31967   2.073   4.276   4.260
 7812WAT     H131968   2.128   4.333   4.296
 7812WAT     H231969   2.050   4.225   4.326
 7812WAT    EPW31970   2.078   4.277   4.275
 7813WAT      O31971   2.056   4.121   4.023
 7813WAT     H131972   2.132   4.078   4.029
 7813WAT     H231973   2.058   4.174   4.092
 7813WAT    EPW31974   2.067   4.123   4.034
 7814WAT      O31975   2.150   3.943   4.823
 7814WAT     H131976   2.193   3.930   4.749
 7814WAT     H231977   2.130   4.028   4.821
 7814WAT    EPW31978   2.153   3.954   4.812
 7815WAT      O31979   2.371   3.643   5.638
 7815WAT     H131980   2.318   3.593   5.684
 7815WAT     H231981   2.373   3.604   5.560
 7815WAT    EPW31982   2.364   3.630   5.633
 7816WAT      O31983   2.420   3.583   4.152
 7816WAT     H131984   2.407   3.538   4.225
 7816WAT     H231985   2.362   3.549   4.096
 7816WAT    EPW31986   2.409   3.571   4.154
 7817WAT      O31987   2.437   3.766   4.812
 7817WAT     H131988   2.359   3.760   4.773
 7817WAT     H231989   2.444   3.691   4.855
 7817WAT    EPW31990   2.426   3.754   4.812
 7818WAT      O31991   2.480   3.740   5.158
 7818WAT     H131992   2.482   3.672   5.103
 7818WAT     H231993   2.415   3.789   5.127
 7818WAT    EPW31994   2.471   3.737   5.146
 7819WAT      O31995   2.260   3.875   5.714
 7819WAT     H131996   2.256   3.925   5.643
 7819WAT     H231997   2.293   3.800   5.685
 7819WAT    EPW31998   2.264   3.871   5.699
 7820WAT      O31999   2.849   4.380   5.658
 7820WAT     H132000   2.885   4.362   5.735
 7820WAT     H232001   2.806   4.307   5.638
 7820WAT    EPW32002   2.848   4.367   5.666
 7821WAT      O32003   2.658   4.632   4.316
 7821WAT     H132004   2.643   4.554   4.353
 7821WAT     H232005   2.727   4.617   4.265
 7821WAT    EPW32006   2.666   4.618   4.314
 7822WAT      O32007   2.625   3.006   4.115
 7822WAT     H132008   2.635   2.995   4.201
 7822WAT     H232009   2.554   3.056   4.109
 7822WAT    EPW32010   2.616   3.012   4.127
 7823WAT      O32011   3.214   4.485   5.784
 7823WAT     H132012   3.230   4.513   5.865
 7823WAT     H232013   3.240   4.551   5.733
 7823WAT    EPW32014   3.220   4.499   5.788
 7824WAT      O32015   3.698   2.980   5.655
 7824WAT     H132016   3.634   2.940   5.611
 7824WAT     H232017   3.700   2.937   5.731
 7824WAT    EPW32018   3.689   2.968   5.659
 7825WAT      O32019   2.337   3.837   4.239
 7825WAT     H132020   2.369   3.759   4.217
 7825WAT     H232021   2.402   3.873   4.285
 7825WAT    EPW32022   2.351   3.830   4.243
 7826WAT      O32023   2.037   3.003   4.336
 7826WAT     H132024   2.050   2.932   4.287
 7826WAT     H232025   2.000   2.971   4.409
 7826WAT    EPW32026   2.033   2.987   4.340
 7827WAT      O32027   2.456   3.222   4.033
 7827WAT     H132028   2.405   3.228   3.962
 7827WAT     H232029   2.534   3.246   4.003
 7827WAT    EPW32030   2.460   3.227   4.018
 7828WAT      O32031   2.604   4.648   3.914
 7828WAT     H132032   2.647   4.579   3.942
 7828WAT     H232033   2.624   4.711   3.971
 7828WAT    EPW32034   2.613   4.647   3.926
 7829WAT      O32035   2.313   3.945   5.057
 7829WAT     H132036   2.385   3.994   5.053
 7829WAT     H232037   2.286   3.942   4.974
 7829WAT    EPW32038   2.320   3.952   5.044
 7830WAT      O32039   2.636   3.462   4.730
 7830WAT     H132040   2.721   3.443   4.740
 7830WAT     H232041   2.599   3.384   4.716
 7830WAT    EPW32042   2.643   3.448   4.729
 7831WAT      O32043   2.118   3.596   4.396
 7831WAT     H132044   2.167   3.566   4.462
 7831WAT     H232045   2.131   3.536   4.333
 7831WAT    EPW32046   2.127   3.583   4.396
 7832WAT      O32047   2.253   4.050   5.484
 7832WAT     H132048   2.211   3.998   5.428
 7832WAT     H232049   2.217   4.129   5.470
 7832WAT    EPW32050   2.241   4.054   5.474
 7833WAT      O32051   2.064   3.182   4.869
 7833WAT     H132052   2.069   3.217   4.789
 7833WAT     H232053   2.140   3.206   4.905
 7833WAT    EPW32054   2.076   3.191   4.862
 7834WAT      O32055   2.524   4.126   5.486
 7834WAT     H132056   2.444   4.097   5.503
 7834WAT     H232057   2.516   4.213   5.487
 7834WAT    EPW32058   2.511   4.135   5.488
 7835WAT      O32059   2.649   3.434   5.369
 7835WAT     H132060   2.665   3.359   5.412
 7835WAT     H232061   2.645   3.409   5.286
 7835WAT    EPW32062   2.651   3.419   5.363
 7836WAT      O32063   2.824   3.014   5.357
 7836WAT     H132064   2.895   3.046   5.317
 7836WAT     H232065   2.848   2.934   5.380
 7836WAT    EPW32066   2.838   3.007   5.355
 7837WAT      O32067   2.475   3.520   4.963
 7837WAT     H132068   2.519   3.509   4.889
 7837WAT     H232069   2.530   3.488   5.024
 7837WAT    EPW32070   2.490   3.514   4.961
 7838WAT      O32071   2.830   3.018   4.968
 7838WAT     H132072   2.747   3.003   4.992
 7838WAT     H232073   2.826   3.022   4.881
 7838WAT    EPW32074   2.817   3.017   4.959
 7839WAT      O32075   2.086   3.058   5.572
 7839WAT     H132076   2.072   3.138   5.539
 7839WAT     H232077   2.008   3.034   5.601
 7839WAT    EPW32078   2.073   3.066   5.571
 7840WAT      O32079   2.577   4.743   4.979
 7840WAT     H132080   2.578   4.749   5.066
 7840WAT     H232081   2.535   4.668   4.964
 7840WAT    EPW32082   2.571   4.733   4.989
 7841WAT      O32083   2.393   3.332   4.294
 7841WAT     H132084   2.405   3.300   4.214
 7841WAT     H232085   2.312   3.308   4.314
 7841WAT    EPW32086   2.383   3.324   4.285
 7842WAT      O32087   2.253   4.693   5.523
 7842WAT     H132088   2.188   4.636   5.533
 7842WAT     H232089   2.216   4.770   5.538
 7842WAT    EPW32090   2.238   4.696   5.527
 7843WAT      O32091   3.621   4.439   5.759
 7843WAT     H132092   3.699   4.400   5.767
 7843WAT     H232093   3.575   4.405   5.825
 7843WAT    EPW32094   3.626   4.428   5.770
 7844WAT      O32095   2.391   3.534   5.336
 7844WAT     H132096   2.428   3.595   5.287
 7844WAT     H232097   2.458   3.486   5.364
 7844WAT    EPW32098   2.406   3.536   5.333
 7845WAT      O32099   2.423   3.119   5.504
 7845WAT     H132100   2.415   3.035   5.525
 7845WAT     H232101   2.392   3.124   5.423
 7845WAT    EPW32102   2.418   3.108   5.495
 7846WAT      O32103   2.108   3.901   5.286
 7846WAT     H132104   2.140   3.923   5.208
 7846WAT     H232105   2.098   3.814   5.280
 7846WAT    EPW32106   2.111   3.891   5.273
 7847WAT      O32107   2.253   3.495   3.947
 7847WAT     H132108   2.186   3.496   4.003
 7847WAT     H232109   2.263   3.410   3.929
 7847WAT    EPW32110   2.245   3.482   3.953
 7848WAT      O32111   3.222   3.137   5.621
 7848WAT     H132112   3.231   3.208   5.670
 7848WAT     H232113   3.158   3.092   5.661
 7848WAT    EPW32114   3.214   3.141   5.634
 7849WAT      O32115   2.652   4.365   4.059
 7849WAT     H132116   2.696   4.373   4.134
 7849WAT     H232117   2.572   4.343   4.085
 7849WAT    EPW32118   2.647   4.363   4.074
 7850WAT      O32119   2.584   3.830   5.424
 7850WAT     H132120   2.544   3.908   5.432
 7850WAT     H232121   2.543   3.793   5.357
 7850WAT    EPW32122   2.572   3.836   5.415
 7851WAT      O32123   2.385   4.272   4.119
 7851WAT     H132124   2.361   4.241   4.197
 7851WAT     H232125   2.382   4.202   4.067
 7851WAT    EPW32126   2.381   4.257   4.123
 7852WAT      O32127   2.667   4.097   3.993
 7852WAT     H132128   2.585   4.070   4.007
 7852WAT     H232129   2.664   4.182   4.012
 7852WAT    EPW32130   2.654   4.105   3.998
 7853WAT      O32131   2.627   3.128   5.169
 7853WAT     H132132   2.541   3.136   5.177
 7853WAT     H232133   2.649   3.076   5.236
 7853WAT    EPW32134   2.617   3.122   5.180
 7854WAT      O32135   3.264   4.709   5.610
 7854WAT     H132136   3.189   4.707   5.566
 7854WAT     H232137   3.281   4.794   5.618
 7854WAT    EPW32138   3.255   4.721   5.605
 7855WAT      O32139   2.788   3.636   5.527
 7855WAT     H132140   2.755   3.578   5.470
 7855WAT     H232141   2.752   3.711   5.502
 7855WAT    EPW32142   2.778   3.638   5.515
 7856WAT      O32143   2.631   4.671   5.552
 7856WAT     H132144   2.635   4.684   5.638
 7856WAT     H232145   2.696   4.615   5.536
 7856WAT    EPW32146   2.641   4.665   5.562
 7857WAT      O32147   2.349   3.136   5.234
 7857WAT     H132148   2.315   3.059   5.211
 7857WAT     H232149   2.279   3.189   5.240
 7857WAT    EPW32150   2.334   3.133   5.231
 7858WAT      O32151   2.390   4.509   5.688
 7858WAT     H132152   2.450   4.553   5.735
 7858WAT     H232153   2.354   4.572   5.639
 7858WAT    EPW32154   2.394   4.525   5.687
 7859WAT      O32155   2.214   3.468   4.630
 7859WAT     H132156   2.177   3.498   4.703
 7859WAT     H232157   2.268   3.405   4.658
 7859WAT    EPW32158   2.217   3.463   4.645
 7860WAT      O32159   2.183   4.308   5.381
 7860WAT     H132160   2.126   4.350   5.432
 7860WAT     H232161   2.256   4.355   5.390
 7860WAT    EPW32162   2.185   4.321   5.390
 7861WAT      O32163   2.362   4.635   4.258
 7861WAT     H132164   2.347   4.651   4.174
 7861WAT     H232165   2.448   4.643   4.266
 7861WAT    EPW32166   2.372   4.639   4.247
 7862WAT      O32167   2.692   3.172   5.543
 7862WAT     H132168   2.716   3.115   5.481
 7862WAT     H232169   2.608   3.154   5.557
 7862WAT    EPW32170   2.683   3.161   5.536
 7863WAT      O32171   2.430   4.517   4.906
 7863WAT     H132172   2.422   4.436   4.874
 7863WAT     H232173   2.386   4.565   4.849
 7863WAT    EPW32174   2.423   4.512   4.893
 7864WAT      O32175   2.188   4.741   5.264
 7864WAT     H132176   2.237   4.735   5.336
 7864WAT     H232177   2.206   4.668   5.220
 7864WAT    EPW32178   2.198   4.729   5.268
 7865WAT      O32179   2.099   4.098   2.591
 7865WAT     H132180   2.055   4.110   2.665
 7865WAT     H232181   2.071   4.021   2.562
 7865WAT    EPW32182   2.088   4.088   2.598
 7866WAT      O32183   2.073   3.477   2.241
 7866WAT     H132184   1.996   3.494   2.205
 7866WAT     H232185   2.077   3.390   2.244
 7866WAT    EPW32186   2.063   3.467   2.236
 7867WAT      O32187   2.387   4.004   2.109
 7867WAT     H132188   2.348   3.967   2.040
 7867WAT     H232189   2.379   3.944   2.172
 7867WAT    EPW32190   2.380   3.989   2.108
 7868WAT      O32191   2.350   4.168   2.499
 7868WAT     H132192   2.411   4.151   2.559
 7868WAT     H232193   2.275   4.154   2.541
 7868WAT    EPW32194   2.348   4.163   2.514
 7869WAT      O32195   2.778   3.101   2.494
 7869WAT     H132196   2.771   3.169   2.439
 7869WAT     H232197   2.852   3.062   2.469
 7869WAT    EPW32198   2.788   3.106   2.482
 7870WAT      O32199   2.239   4.477   2.106
 7870WAT     H132200   2.286   4.485   2.033
 7870WAT     H232201   2.285   4.419   2.153
 7870WAT    EPW32202   2.253   4.470   2.102
 7871WAT      O32203   2.093   4.372   3.216
 7871WAT     H132204   2.106   4.344   3.298
 7871WAT     H232205   2.032   4.318   3.185
 7871WAT    EPW32206   2.086   4.360   3.224
 7872WAT      O32207   2.238   3.824   2.636
 7872WAT     H132208   2.192   3.785   2.574
 7872WAT     H232209   2.308   3.772   2.646
 7872WAT    EPW32210   2.241   3.810   2.629
 7873WAT      O32211   2.689   3.385   3.171
 7873WAT     H132212   2.756   3.387   3.116
 7873WAT     H232213   2.684   3.301   3.196
 7873WAT    EPW32214   2.698   3.373   3.167
 7874WAT      O32215   2.749   4.443   3.449
 7874WAT     H132216   2.763   4.519   3.409
 7874WAT     H232217   2.828   4.407   3.452
 7874WAT    EPW32218   2.762   4.449   3.444
 7875WAT      O32219   2.438   3.634   2.639
 7875WAT     H132220   2.520   3.615   2.663
 7875WAT     H232221   2.390   3.572   2.678
 7875WAT    EPW32222   2.443   3.622   2.648
 7876WAT      O32223   2.864   4.177   2.521
 7876WAT     H132224   2.897   4.112   2.569
 7876WAT     H232225   2.888   4.156   2.440
 7876WAT    EPW32226   2.872   4.164   2.516
 7877WAT      O32227   2.498   3.143   2.565
 7877WAT     H132228   2.468   3.193   2.500
 7877WAT     H232229   2.584   3.151   2.560
 7877WAT    EPW32230   2.506   3.152   2.555
 7878WAT      O32231   2.795   3.057   2.788
 7878WAT     H132232   2.803   3.143   2.801
 7878WAT     H232233   2.792   3.050   2.701
 7878WAT    EPW32234   2.796   3.069   2.777
 7879WAT      O32235   3.263   3.350   2.018
 7879WAT     H132236   3.218   3.418   2.048
 7879WAT     H232237   3.274   3.300   2.088
 7879WAT    EPW32238   3.258   3.353   2.032
 7880WAT      O32239   2.083   3.600   2.938
 7880WAT     H132240   2.058   3.683   2.930
 7880WAT     H232241   2.017   3.562   2.979
 7880WAT    EPW32242   2.070   3.606   2.943
 7881WAT      O32243   2.074   4.571   2.728
 7881WAT     H132244   2.015   4.627   2.696
 7881WAT     H232245   2.117   4.544   2.657
 7881WAT    EPW32246   2.072   4.575   2.713
 7882WAT      O32247   2.658   4.355   2.476
 7882WAT     H132248   2.600   4.328   2.535
 7882WAT     H232249   2.721   4.294   2.478
 7882WAT    EPW32250   2.659   4.342   2.485
 7883WAT      O32251   3.273   4.584   2.228
 7883WAT     H132252   3.345   4.631   2.238
 7883WAT     H232253   3.296   4.505   2.256
 7883WAT    EPW32254   3.287   4.579   2.234
 7884WAT      O32255   3.089   4.623   2.427
 7884WAT     H132256   3.111   4.676   2.493
 7884WAT     H232257   3.166   4.606   2.389
 7884WAT    EPW32258   3.104   4.628   2.431
 7885WAT      O32259   2.386   3.082   2.987
 7885WAT     H132260   2.334   3.019   2.956
 7885WAT     H232261   2.445   3.038   3.034
 7885WAT    EPW32262   2.387   3.066   2.989
 7886WAT      O32263   2.229   4.438   2.521
 7886WAT     H132264   2.294   4.380   2.522
 7886WAT     H232265   2.268   4.513   2.499
 7886WAT    EPW32266   2.244   4.440   2.518
 7887WAT      O32267   3.333   4.624   3.257
 7887WAT     H132268   3.408   4.670   3.256
 7887WAT     H232269   3.321   4.603   3.174
 7887WAT    EPW32270   3.343   4.628   3.245
 7888WAT      O32271   2.290   3.255   3.815
 7888WAT     H132272   2.212   3.216   3.808
 7888WAT     H232273   2.339   3.213   3.756
 7888WAT    EPW32274   2.286   3.243   3.805
 7889WAT      O32275   2.311   4.287   2.871
 7889WAT     H132276   2.353   4.251   2.803
 7889WAT     H232277   2.343   4.244   2.940
 7889WAT    EPW32278   2.322   4.275   2.871
 7890WAT      O32279   2.634   4.572   2.800
 7890WAT     H132280   2.718   4.582   2.781
 7890WAT     H232281   2.604   4.654   2.807
 7890WAT    EPW32282   2.642   4.585   2.799
 7891WAT      O32283   3.014   3.511   2.609
 7891WAT     H132284   3.043   3.488   2.530
 7891WAT     H232285   3.088   3.519   2.656
 7891WAT    EPW32286   3.029   3.509   2.604
 7892WAT      O32287   3.491   4.743   2.268
 7892WAT     H132288   3.557   4.728   2.213
 7892WAT     H232289   3.527   4.734   2.347
 7892WAT    EPW32290   3.506   4.739   2.272
 7893WAT      O32291   2.025   3.309   3.574
 7893WAT     H132292   2.025   3.368   3.638
 7893WAT     H232293   2.084   3.341   3.518
 7893WAT    EPW32294   2.034   3.323   3.575
 7894WAT      O32295   3.259   4.343   3.628
 7894WAT     H132296   3.255   4.381   3.706
 7894WAT     H232297   3.344   4.339   3.611
 7894WAT    EPW32298   3.271   4.348   3.637
 7895WAT      O32299   2.973   4.362   2.103
 7895WAT     H132300   2.954   4.417   2.169
 7895WAT     H232301   3.049   4.391   2.073
 7895WAT    EPW32302   2.981   4.375   2.108
 7896WAT      O32303   3.323   3.152   2.208
 7896WAT     H132304   3.377   3.084   2.216
 7896WAT     H232305   3.329   3.192   2.286
 7896WAT    EPW32306   3.332   3.148   2.221
 7897WAT      O32307   2.119   3.269   2.465
 7897WAT     H132308   2.107   3.182   2.468
 7897WAT     H232309   2.071   3.298   2.532
 7897WAT    EPW32310   2.110   3.260   2.475
 7898WAT      O32311   2.333   4.510   3.287
 7898WAT     H132312   2.263   4.459   3.299
 7898WAT     H232313   2.359   4.489   3.206
 7898WAT    EPW32314   2.326   4.499   3.277
 7899WAT      O32315   3.049   3.390   2.340
 7899WAT     H132316   2.998   3.323   2.314
 7899WAT     H232317   3.054   3.440   2.269
 7899WAT    EPW32318   3.042   3.387   2.325
 7900WAT      O32319   3.104   4.659   3.378
 7900WAT     H132320   3.181   4.651   3.337
 7900WAT     H232321   3.046   4.647   3.314
 7900WAT    EPW32322   3.107   4.656   3.362
 7901WAT      O32323   3.049   3.084   2.329
 7901WAT     H132324   3.004   3.044   2.266
 7901WAT     H232325   3.126   3.099   2.291
 7901WAT    EPW32326   3.054   3.080   2.314
 7902WAT      O32327   2.909   3.320   2.781
 7902WAT     H132328   2.916   3.377   2.715
 7902WAT     H232329   2.921   3.370   2.852
 7902WAT    EPW32330   2.912   3.336   2.782
 7903WAT      O32331   2.469   4.395   3.543
 7903WAT     H132332   2.553   4.401   3.521
 7903WAT     H232333   2.465   4.435   3.621
 7903WAT    EPW32334   2.481   4.402   3.552
 7904WAT      O32335   2.370   2.903   2.616
 7904WAT     H132336   2.423   2.972   2.615
 7904WAT     H232337   2.370   2.875   2.533
 7904WAT    EPW32338   2.378   2.909   2.603
 7905WAT      O32339   2.665   3.946   3.018
 7905WAT     H132340   2.682   3.925   3.101
 7905WAT     H232341   2.600   3.893   2.997
 7905WAT    EPW32342   2.658   3.935   3.027
 7906WAT      O32343   2.022   4.377   3.898
 7906WAT     H132344   2.098   4.412   3.924
 7906WAT     H232345   2.040   4.292   3.893
 7906WAT    EPW32346   2.036   4.369   3.901
 7907WAT      O32347   2.414   3.284   2.781
 7907WAT     H132348   2.442   3.241   2.710
 7907WAT     H232349   2.397   3.220   2.838
 7907WAT    EPW32350   2.416   3.268   2.779
 7908WAT      O32351   3.683   4.053   2.203
 7908WAT     H132352   3.695   4.025   2.284
 7908WAT     H232353   3.764   4.055   2.170
 7908WAT    EPW32354   3.697   4.049   2.210
 7909WAT      O32355   2.274   4.699   2.860
 7909WAT     H132356   2.206   4.649   2.835
 7909WAT     H232357   2.314   4.717   2.785
 7909WAT    EPW32358   2.270   4.694   2.845
 7910WAT      O32359   2.229   3.394   3.089
 7910WAT     H132360   2.313   3.416   3.085
 7910WAT     H232361   2.190   3.451   3.036
 7910WAT    EPW32362   2.235   3.406   3.081
 7911WAT      O32363   3.907   4.504   3.628
 7911WAT     H132364   3.838   4.535   3.584
 7911WAT     H232365   3.870   4.458   3.693
 7911WAT    EPW32366   3.891   4.502   3.631
 7912WAT      O32367   3.473   3.707   2.161
 7912WAT     H132368   3.451   3.780   2.119
 7912WAT     H232369   3.428   3.712   2.236
 7912WAT    EPW32370   3.463   3.718   2.166
 7913WAT      O32371   2.634   4.027   2.560
 7913WAT     H132372   2.705   4.077   2.569
 7913WAT     H232373   2.656   3.970   2.497
 7913WAT    EPW32374   2.647   4.026   2.552
 7914WAT      O32375   2.049   4.191   2.892
 7914WAT     H132376   1.983   4.240   2.919
 7914WAT     H232377   2.117   4.246   2.894
 7914WAT    EPW32378   2.049   4.207   2.896
 7915WAT      O32379   2.056   3.860   2.402
 7915WAT     H132380   2.037   3.776   2.417
 7915WAT     H232381   2.122   3.856   2.345
 7915WAT    EPW32382   2.063   3.847   2.396
 7916WAT      O32383   2.073   4.276   2.359
 7916WAT     H132384   2.128   4.333   2.396
 7916WAT     H232385   2.050   4.225   2.426
 7916WAT    EPW32386   2.078   4.277   2.375
 7917WAT      O32387   2.493   4.176   3.068
 7917WAT     H132388   2.540   4.205   3.136
 7917WAT     H232389   2.551   4.128   3.023
 7917WAT    EPW32390   2.509   4.173   3.072
 7918WAT      O32391   2.056   4.121   2.122
 7918WAT     H132392   2.132   4.078   2.128
 7918WAT     H232393   2.058   4.174   2.191
 7918WAT    EPW32394   2.067   4.123   2.133
 7919WAT      O32395   2.150   3.943   2.923
 7919WAT     H132396   2.193   3.930   2.848
 7919WAT     H232397   2.130   4.028   2.920
 7919WAT    EPW32398   2.153   3.954   2.911
 7920WAT      O32399   2.785   3.300   2.288
 7920WAT     H132400   2.784   3.288   2.201
 7920WAT     H232401   2.767   3.384   2.297
 7920WAT    EPW32402   2.782   3.310   2.276
 7921WAT      O32403   3.690   4.542   3.437
 7921WAT     H132404   3.623   4.594   3.459
 7921WAT     H232405   3.696   4.552   3.351
 7921WAT    EPW32406   3.681   4.551   3.428
 7922WAT      O32407   2.558   4.295   2.751
 7922WAT     H132408   2.571   4.379   2.770
 7922WAT     H232409   2.625   4.255   2.790
 7922WAT    EPW32410   2.570   4.301   2.759
 7923WAT      O32411   2.371   3.643   3.737
 7923WAT     H132412   2.318   3.593   3.784
 7923WAT     H232413   2.373   3.604   3.659
 7923WAT    EPW32414   2.364   3.630   3.732
 7924WAT      O32415   2.420   3.583   2.251
 7924WAT     H132416   2.407   3.538   2.325
 7924WAT     H232417   2.362   3.549   2.196
 7924WAT    EPW32418   2.409   3.571   2.254
 7925WAT      O32419   2.437   3.766   2.911
 7925WAT     H132420   2.359   3.760   2.873
 7925WAT     H232421   2.444   3.691   2.955
 7925WAT    EPW32422   2.426   3.754   2.912
 7926WAT      O32423   2.480   3.740   3.258
 7926WAT     H132424   2.482   3.672   3.203
 7926WAT     H232425   2.415   3.789   3.227
 7926WAT    EPW32426   2.471   3.737   3.245
 7927WAT      O32427   2.890   4.617   3.197
 7927WAT     H132428   2.862   4.553   3.145
 7927WAT     H232429   2.869   4.690   3.153
 7927WAT    EPW32430   2.883   4.619   3.183
 7928WAT      O32431   3.288   3.308   2.448
 7928WAT     H132432   3.337   3.379   2.441
 7928WAT     H232433   3.209   3.334   2.422
 7928WAT    EPW32434   3.284   3.322   2.443
 7929WAT      O32435   2.260   3.875   3.814
 7929WAT     H132436   2.256   3.925   3.742
 7929WAT     H232437   2.293   3.800   3.784
 7929WAT    EPW32438   2.264   3.871   3.799
 7930WAT      O32439   2.849   4.380   3.757
 7930WAT     H132440   2.885   4.362   3.835
 7930WAT     H232441   2.806   4.307   3.737
 7930WAT    EPW32442   2.848   4.367   3.766
 7931WAT      O32443   3.166   3.772   2.248
 7931WAT     H132444   3.165   3.844   2.199
 7931WAT     H232445   3.102   3.785   2.306
 7931WAT    EPW32446   3.156   3.784   2.250
 7932WAT      O32447   2.658   4.632   2.416
 7932WAT     H132448   2.643   4.554   2.453
 7932WAT     H232449   2.727   4.617   2.364
 7932WAT    EPW32450   2.666   4.618   2.414
 7933WAT      O32451   2.625   3.006   2.214
 7933WAT     H132452   2.635   2.995   2.301
 7933WAT     H232453   2.554   3.056   2.208
 7933WAT    EPW32454   2.616   3.012   2.226
 7934WAT      O32455   2.887   4.583   2.256
 7934WAT     H132456   2.949   4.599   2.315
 7934WAT     H232457   2.891   4.652   2.203
 7934WAT    EPW32458   2.897   4.596   2.257
 7935WAT      O32459   2.337   3.837   2.339
 7935WAT     H132460   2.369   3.759   2.317
 7935WAT     H232461   2.402   3.873   2.384
 7935WAT    EPW32462   2.351   3.830   2.342
 7936WAT      O32463   2.037   3.003   2.436
 7936WAT     H132464   2.050   2.932   2.386
 7936WAT     H232465   2.000   2.971   2.508
 7936WAT    EPW32466   2.033   2.987   2.439
 7937WAT      O32467   3.006   3.771   2.481
 7937WAT     H132468   3.012   3.836   2.539
 7937WAT     H232469   2.987   3.701   2.530
 7937WAT    EPW32470   3.004   3.770   2.497
 7938WAT      O32471   2.456   3.222   2.132
 7938WAT     H132472   2.405   3.228   2.062
 7938WAT     H232473   2.534   3.246   2.103
 7938WAT    EPW32474   2.460   3.227   2.118
 7939WAT      O32475   2.604   4.648   2.013
 7939WAT     H132476   2.647   4.579   2.042
 7939WAT     H232477   2.624   4.711   2.070
 7939WAT    EPW32478   2.613   4.647   2.026
 7940WAT      O32479   2.313   3.945   3.156
 7940WAT     H132480   2.385   3.994   3.152
 7940WAT     H232481   2.286   3.942   3.073
 7940WAT    EPW32482   2.320   3.952   3.143
 7941WAT      O32483   2.636   3.462   2.829
 7941WAT     H132484   2.721   3.443   2.839
 7941WAT     H232485   2.599   3.384   2.816
 7941WAT    EPW32486   2.643   3.448   2.829
 7942WAT      O32487   3.898   4.620   2.262
 7942WAT     H132488   3.967   4.574   2.237
 7942WAT     H232489   3.844   4.560   2.296
 7942WAT    EPW32490   3.900   4.604   2.263
 7943WAT      O32491   2.118   3.596   2.495
 7943WAT     H132492   2.167   3.566   2.561
 7943WAT     H232493   2.131   3.536   2.432
 7943WAT    EPW32494   2.127   3.583   2.495
 7944WAT      O32495   2.571   3.739   2.044
 7944WAT     H132496   2.510   3.699   2.091
 7944WAT     H232497   2.532   3.751   1.966
 7944WAT    EPW32498   2.556   3.735   2.039
 7945WAT      O32499   2.253   4.050   3.584
 7945WAT     H132500   2.211   3.998   3.528
 7945WAT     H232501   2.217   4.129   3.569
 7945WAT    EPW32502   2.241   4.054   3.573
 7946WAT      O32503   2.716   3.585   2.315
 7946WAT     H132504   2.743   3.668   2.321
 7946WAT     H232505   2.630   3.593   2.305
 7946WAT    EPW32506   2.708   3.598   2.314
 7947WAT      O32507   2.064   3.182   2.968
 7947WAT     H132508   2.069   3.217   2.888
 7947WAT     H232509   2.140   3.206   3.005
 7947WAT    EPW32510   2.076   3.191   2.962
 7948WAT      O32511   3.521   4.329   2.175
 7948WAT     H132512   3.554   4.248   2.178
 7948WAT     H232513   3.445   4.321   2.218
 7948WAT    EPW32514   3.515   4.316   2.182
 7949WAT      O32515   3.258   4.116   2.115
 7949WAT     H132516   3.327   4.065   2.098
 7949WAT     H232517   3.217   4.121   2.039
 7949WAT    EPW32518   3.262   4.109   2.101
 7950WAT      O32519   2.524   4.126   3.585
 7950WAT     H132520   2.444   4.097   3.602
 7950WAT     H232521   2.516   4.213   3.586
 7950WAT    EPW32522   2.511   4.135   3.588
 7951WAT      O32523   2.905   4.613   2.717
 7951WAT     H132524   2.959   4.681   2.723
 7951WAT     H232525   2.870   4.621   2.638
 7951WAT    EPW32526   2.907   4.624   2.706
 7952WAT      O32527   2.824   3.014   3.457
 7952WAT     H132528   2.895   3.046   3.417
 7952WAT     H232529   2.848   2.934   3.479
 7952WAT    EPW32530   2.838   3.007   3.454
 7953WAT      O32531   2.723   4.435   3.056
 7953WAT     H132532   2.660   4.494   3.038
 7953WAT     H232533   2.748   4.407   2.978
 7953WAT    EPW32534   2.717   4.440   3.042
 7954WAT      O32535   3.545   4.354   3.606
 7954WAT     H132536   3.579   4.381   3.681
 7954WAT     H232537   3.574   4.412   3.548
 7954WAT    EPW32538   3.554   4.366   3.608
 7955WAT      O32539   2.882   3.913   2.048
 7955WAT     H132540   2.802   3.895   2.019
 7955WAT     H232541   2.879   3.998   2.067
 7955WAT    EPW32542   2.870   3.923   2.047
 7956WAT      O32543   2.475   3.520   3.063
 7956WAT     H132544   2.519   3.509   2.988
 7956WAT     H232545   2.530   3.488   3.123
 7956WAT    EPW32546   2.490   3.514   3.061
 7957WAT      O32547   2.988   4.600   3.644
 7957WAT     H132548   3.036   4.540   3.603
 7957WAT     H232549   2.953   4.556   3.711
 7957WAT    EPW32550   2.990   4.585   3.648
 7958WAT      O32551   2.830   3.018   3.068
 7958WAT     H132552   2.747   3.003   3.091
 7958WAT     H232553   2.826   3.022   2.980
 7958WAT    EPW32554   2.817   3.017   3.058
 7959WAT      O32555   2.086   3.058   3.671
 7959WAT     H132556   2.072   3.138   3.638
 7959WAT     H232557   2.008   3.034   3.700
 7959WAT    EPW32558   2.073   3.066   3.670
 7960WAT      O32559   2.577   4.743   3.078
 7960WAT     H132560   2.578   4.749   3.165
 7960WAT     H232561   2.535   4.668   3.063
 7960WAT    EPW32562   2.571   4.733   3.089
 7961WAT      O32563   2.393   3.332   2.394
 7961WAT     H132564   2.405   3.300   2.314
 7961WAT     H232565   2.312   3.308   2.413
 7961WAT    EPW32566   2.383   3.324   2.385
 7962WAT      O32567   3.043   4.387   3.457
 7962WAT     H132568   3.112   4.376   3.510
 7962WAT     H232569   3.056   4.466   3.423
 7962WAT    EPW32570   3.055   4.397   3.460
 7963WAT      O32571   2.253   4.693   3.622
 7963WAT     H132572   2.188   4.636   3.632
 7963WAT     H232573   2.216   4.770   3.637
 7963WAT    EPW32574   2.238   4.696   3.626
 7964WAT      O32575   3.621   4.439   3.858
 7964WAT     H132576   3.699   4.400   3.867
 7964WAT     H232577   3.575   4.405   3.924
 7964WAT    EPW32578   3.626   4.428   3.869
 7965WAT      O32579   2.391   3.534   3.435
 7965WAT     H132580   2.428   3.595   3.386
 7965WAT     H232581   2.458   3.486   3.464
 7965WAT    EPW32582   2.406   3.536   3.432
 7966WAT      O32583   2.168   3.378   3.363
 7966WAT     H132584   2.176   3.361   3.277
 7966WAT     H232585   2.243   3.419   3.382
 7966WAT    EPW32586   2.180   3.382   3.353
 7967WAT      O32587   2.423   3.119   3.604
 7967WAT     H132588   2.415   3.035   3.624
 7967WAT     H232589   2.392   3.124   3.522
 7967WAT    EPW32590   2.418   3.108   3.595
 7968WAT      O32591   3.116   4.339   2.517
 7968WAT     H132592   3.095   4.422   2.501
 7968WAT     H232593   3.038   4.301   2.530
 7968WAT    EPW32594   3.101   4.346   2.517
 7969WAT      O32595   2.108   3.901   3.385
 7969WAT     H132596   2.140   3.923   3.307
 7969WAT     H232597   2.098   3.814   3.380
 7969WAT    EPW32598   2.111   3.891   3.373
 7970WAT      O32599   2.253   3.495   2.047
 7970WAT     H132600   2.186   3.496   2.102
 7970WAT     H232601   2.263   3.410   2.028
 7970WAT    EPW32602   2.245   3.482   2.052
 7971WAT      O32603   2.652   4.365   2.158
 7971WAT     H132604   2.696   4.373   2.233
 7971WAT     H232605   2.572   4.343   2.184
 7971WAT    EPW32606   2.647   4.363   2.173
 7972WAT      O32607   2.385   4.272   2.218
 7972WAT     H132608   2.361   4.241   2.296
 7972WAT     H232609   2.382   4.202   2.167
 7972WAT    EPW32610   2.381   4.257   2.222
 7973WAT      O32611   2.667   4.097   2.093
 7973WAT     H132612   2.585   4.070   2.107
 7973WAT     H232613   2.664   4.182   2.111
 7973WAT    EPW32614   2.654   4.105   2.097
 7974WAT      O32615   2.627   3.128   3.269
 7974WAT     H132616   2.541   3.136   3.277
 7974WAT     H232617   2.649   3.076   3.335
 7974WAT    EPW32618   2.617   3.122   3.280
 7975WAT      O32619   3.037   3.203   3.106
 7975WAT     H132620   2.964   3.157   3.117
 7975WAT     H232621   3.094   3.162   3.158
 7975WAT    EPW32622   3.035   3.190   3.115
 7976WAT      O32623   2.867   2.961   2.089
 7976WAT     H132624   2.875   2.985   2.006
 7976WAT     H232625   2.793   2.998   2.115
 7976WAT    EPW32626   2.857   2.970   2.081
 7977WAT      O32627   2.631   4.671   3.651
 7977WAT     H132628   2.635   4.684   3.737
 7977WAT     H232629   2.696   4.615   3.636
 7977WAT    EPW32630   2.641   4.665   3.662
 7978WAT      O32631   2.390   4.509   3.787
 7978WAT     H132632   2.450   4.553   3.834
 7978WAT     H232633   2.354   4.572   3.738
 7978WAT    EPW32634   2.394   4.525   3.787
 7979WAT      O32635   2.214   3.468   2.729
 7979WAT     H132636   2.177   3.498   2.802
 7979WAT     H232637   2.268   3.405   2.757
 7979WAT    EPW32638   2.217   3.463   2.744
 7980WAT      O32639   2.183   4.308   3.480
 7980WAT     H132640   2.126   4.350   3.531
 7980WAT     H232641   2.256   4.355   3.490
 7980WAT    EPW32642   2.185   4.321   3.489
 7981WAT      O32643   2.362   4.635   2.358
 7981WAT     H132644   2.347   4.651   2.273
 7981WAT     H232645   2.448   4.643   2.365
 7981WAT    EPW32646   2.372   4.639   2.346
 7982WAT      O32647   2.778   3.875   2.330
 7982WAT     H132648   2.788   3.889   2.245
 7982WAT     H232649   2.860   3.869   2.360
 7982WAT    EPW32650   2.792   3.876   2.322
 7983WAT      O32651   3.694   4.681   2.078
 7983WAT     H132652   3.758   4.668   2.136
 7983WAT     H232653   3.660   4.602   2.067
 7983WAT    EPW32654   3.699   4.667   2.085
 7984WAT      O32655   3.302   4.308   2.311
 7984WAT     H132656   3.277   4.295   2.393
 7984WAT     H232657   3.270   4.238   2.268
 7984WAT    EPW32658   3.293   4.296   2.317
 7985WAT      O32659   2.692   3.172   3.642
 7985WAT     H132660   2.716   3.115   3.581
 7985WAT     H232661   2.608   3.154   3.656
 7985WAT    EPW32662   2.683   3.161   3.635
 7986WAT      O32663   2.430   4.517   3.005
 7986WAT     H132664   2.422   4.436   2.974
 7986WAT     H232665   2.386   4.565   2.948
 7986WAT    EPW32666   2.423   4.512   2.992
 7987WAT      O32667   2.990   4.128   2.254
 7987WAT     H132668   3.062   4.094   2.218
 7987WAT     H232669   2.987   4.208   2.219
 7987WAT    EPW32670   3.001   4.135   2.243
 7988WAT      O32671   2.188   4.741   3.363
 7988WAT     H132672   2.237   4.735   3.435
 7988WAT     H232673   2.206   4.668   3.320
 7988WAT    EPW32674   2.198   4.729   3.368
 7989WAT      O32675   3.131   2.993   0.677
 7989WAT     H132676   3.107   3.041   0.609
 7989WAT     H232677   3.218   2.985   0.667
 7989WAT    EPW32678   3.140   2.999   0.666
 7990WAT      O32679   3.112   3.684   1.145
 7990WAT     H132680   3.060   3.744   1.181
 7990WAT     H232681   3.152   3.647   1.213
 7990WAT    EPW32682   3.110   3.688   1.160
 7991WAT      O32683   2.099   4.098   0.690
 7991WAT     H132684   2.055   4.110   0.764
 7991WAT     H232685   2.071   4.021   0.662
 7991WAT    EPW32686   2.088   4.088   0.697
 7992WAT      O32687   3.727   4.428   0.442
 7992WAT     H132688   3.797   4.376   0.441
 7992WAT     H232689   3.668   4.384   0.395
 7992WAT    EPW32690   3.728   4.414   0.435
 7993WAT      O32691   2.073   3.477   0.341
 7993WAT     H132692   1.996   3.494   0.305
 7993WAT     H232693   2.077   3.390   0.343
 7993WAT    EPW32694   2.063   3.467   0.336
 7994WAT      O32695   2.387   4.004   0.208
 7994WAT     H132696   2.348   3.967   0.139
 7994WAT     H232697   2.379   3.944   0.271
 7994WAT    EPW32698   2.380   3.989   0.207
 7995WAT      O32699   3.379   3.791   0.812
 7995WAT     H132700   3.387   3.791   0.725
 7995WAT     H232701   3.321   3.728   0.827
 7995WAT    EPW32702   3.372   3.782   0.802
 7996WAT      O32703   2.350   4.168   0.598
 7996WAT     H132704   2.411   4.151   0.658
 7996WAT     H232705   2.275   4.154   0.640
 7996WAT    EPW32706   2.348   4.163   0.613
 7997WAT      O32707   2.778   3.101   0.593
 7997WAT     H132708   2.771   3.169   0.538
 7997WAT     H232709   2.852   3.062   0.568
 7997WAT    EPW32710   2.788   3.106   0.581
 7998WAT      O32711   2.239   4.477   0.206
 7998WAT     H132712   2.286   4.485   0.133
 7998WAT     H232713   2.285   4.419   0.253
 7998WAT    EPW32714   2.253   4.470   0.202
 7999WAT      O32715   2.093   4.372   1.316
 7999WAT     H132716   2.106   4.344   1.397
 7999WAT     H232717   2.032   4.318   1.285
 7999WAT    EPW32718   2.086   4.360   1.323
 8000WAT      O32719   2.751   4.124   1.822
 8000WAT     H132720   2.727   4.124   1.906
 8000WAT     H232721   2.676   4.109   1.780
 8000WAT    EPW32722   2.736   4.122   1.828
 8001WAT      O32723   2.238   3.824   0.736
 8001WAT     H132724   2.192   3.785   0.673
 8001WAT     H232725   2.308   3.772   0.745
 8001WAT    EPW32726   2.241   3.810   0.728
 8002WAT      O32727   2.689   3.385   1.271
 8002WAT     H132728   2.756   3.387   1.216
 8002WAT     H232729   2.684   3.301   1.295
 8002WAT    EPW32730   2.698   3.373   1.266
 8003WAT      O32731   2.749   4.443   1.549
 8003WAT     H132732   2.763   4.519   1.508
 8003WAT     H232733   2.828   4.407   1.551
 8003WAT    EPW32734   2.762   4.449   1.543
 8004WAT      O32735   2.438   3.634   0.738
 8004WAT     H132736   2.520   3.615   0.762
 8004WAT     H232737   2.390   3.572   0.778
 8004WAT    EPW32738   2.443   3.622   0.748
 8005WAT      O32739   2.858   4.232   0.999
 8005WAT     H132740   2.893   4.152   1.002
 8005WAT     H232741   2.925   4.282   0.974
 8005WAT    EPW32742   2.873   4.227   0.996
 8006WAT      O32743   2.864   4.177   0.620
 8006WAT     H132744   2.897   4.112   0.669
 8006WAT     H232745   2.888   4.156   0.539
 8006WAT    EPW32746   2.872   4.164   0.615
 8007WAT      O32747   3.061   3.590   1.754
 8007WAT     H132748   2.976   3.580   1.736
 8007WAT     H232749   3.064   3.664   1.800
 8007WAT    EPW32750   3.049   3.599   1.758
 8008WAT      O32751   2.498   3.143   0.665
 8008WAT     H132752   2.468   3.193   0.600
 8008WAT     H232753   2.584   3.151   0.659
 8008WAT    EPW32754   2.506   3.152   0.654
 8009WAT      O32755   2.795   3.057   0.887
 8009WAT     H132756   2.803   3.143   0.900
 8009WAT     H232757   2.792   3.050   0.800
 8009WAT    EPW32758   2.796   3.069   0.876
 8010WAT      O32759   2.083   3.600   1.037
 8010WAT     H132760   2.058   3.683   1.030
 8010WAT     H232761   2.017   3.562   1.079
 8010WAT    EPW32762   2.070   3.606   1.042
 8011WAT      O32763   2.074   4.571   0.827
 8011WAT     H132764   2.015   4.627   0.796
 8011WAT     H232765   2.117   4.544   0.756
 8011WAT    EPW32766   2.072   4.575   0.812
 8012WAT      O32767   2.658   4.355   0.575
 8012WAT     H132768   2.600   4.328   0.634
 8012WAT     H232769   2.721   4.294   0.578
 8012WAT    EPW32770   2.659   4.342   0.584
 8013WAT      O32771   3.273   4.584   0.327
 8013WAT     H132772   3.345   4.631   0.338
 8013WAT     H232773   3.296   4.505   0.355
 8013WAT    EPW32774   3.287   4.579   0.333
 8014WAT      O32775   3.089   4.623   0.526
 8014WAT     H132776   3.111   4.676   0.593
 8014WAT     H232777   3.166   4.606   0.488
 8014WAT    EPW32778   3.104   4.628   0.531
 8015WAT      O32779   2.386   3.082   1.086
 8015WAT     H132780   2.334   3.019   1.055
 8015WAT     H232781   2.445   3.038   1.133
 8015WAT    EPW32782   2.387   3.066   1.089
 8016WAT      O32783   2.717   3.295   2.016
 8016WAT     H132784   2.729   3.249   1.942
 8016WAT     H232785   2.746   3.375   1.996
 8016WAT    EPW32786   2.723   3.300   2.002
 8017WAT      O32787   2.229   4.438   0.620
 8017WAT     H132788   2.294   4.380   0.622
 8017WAT     H232789   2.268   4.513   0.598
 8017WAT    EPW32790   2.244   4.440   0.617
 8018WAT      O32791   3.802   3.347   0.746
 8018WAT     H132792   3.768   3.415   0.789
 8018WAT     H232793   3.739   3.287   0.748
 8018WAT    EPW32794   3.788   3.348   0.753
 8019WAT      O32795   3.333   4.624   1.357
 8019WAT     H132796   3.408   4.670   1.356
 8019WAT     H232797   3.321   4.603   1.273
 8019WAT    EPW32798   3.343   4.628   1.344
 8020WAT      O32799   2.290   3.255   1.914
 8020WAT     H132800   2.212   3.216   1.907
 8020WAT     H232801   2.339   3.213   1.855
 8020WAT    EPW32802   2.286   3.243   1.905
 8021WAT      O32803   2.311   4.287   0.970
 8021WAT     H132804   2.353   4.251   0.903
 8021WAT     H232805   2.343   4.244   1.039
 8021WAT    EPW32806   2.322   4.275   0.971
 8022WAT      O32807   2.634   4.572   0.900
 8022WAT     H132808   2.718   4.582   0.880
 8022WAT     H232809   2.604   4.654   0.907
 8022WAT    EPW32810   2.642   4.585   0.898
 8023WAT      O32811   2.955   3.019   1.831
 8023WAT     H132812   2.973   2.938   1.804
 8023WAT     H232813   2.941   3.063   1.757
 8023WAT    EPW32814   2.956   3.013   1.816
 8024WAT      O32815   3.014   3.511   0.709
 8024WAT     H132816   3.043   3.488   0.630
 8024WAT     H232817   3.088   3.519   0.755
 8024WAT    EPW32818   3.029   3.509   0.704
 8025WAT      O32819   3.087   3.545   0.221
 8025WAT     H132820   3.115   3.624   0.246
 8025WAT     H232821   3.009   3.562   0.184
 8025WAT    EPW32822   3.079   3.559   0.219
 8026WAT      O32823   3.491   4.743   0.367
 8026WAT     H132824   3.557   4.728   0.313
 8026WAT     H232825   3.527   4.734   0.446
 8026WAT    EPW32826   3.506   4.739   0.371
 8027WAT      O32827   2.534   4.694   1.474
 8027WAT     H132828   2.563   4.687   1.556
 8027WAT     H232829   2.471   4.633   1.469
 8027WAT    EPW32830   2.529   4.684   1.485
 8028WAT      O32831   3.770   3.180   1.283
 8028WAT     H132832   3.845   3.187   1.241
 8028WAT     H232833   3.776   3.102   1.323
 8028WAT    EPW32834   3.782   3.169   1.283
 8029WAT      O32835   2.025   3.309   1.673
 8029WAT     H132836   2.025   3.368   1.738
 8029WAT     H232837   2.084   3.341   1.617
 8029WAT    EPW32838   2.034   3.323   1.674
 8030WAT      O32839   3.259   4.343   1.727
 8030WAT     H132840   3.255   4.381   1.806
 8030WAT     H232841   3.344   4.339   1.710
 8030WAT    EPW32842   3.271   4.348   1.736
 8031WAT      O32843   2.973   4.362   0.202
 8031WAT     H132844   2.954   4.417   0.268
 8031WAT     H232845   3.049   4.391   0.172
 8031WAT    EPW32846   2.981   4.375   0.208
 8032WAT      O32847   3.323   3.152   0.308
 8032WAT     H132848   3.377   3.084   0.315
 8032WAT     H232849   3.329   3.192   0.385
 8032WAT    EPW32850   3.332   3.148   0.320
 8033WAT      O32851   2.119   3.269   0.565
 8033WAT     H132852   2.107   3.182   0.568
 8033WAT     H232853   2.071   3.298   0.632
 8033WAT    EPW32854   2.110   3.260   0.575
 8034WAT      O32855   2.333   4.510   1.386
 8034WAT     H132856   2.263   4.459   1.399
 8034WAT     H232857   2.359   4.489   1.305
 8034WAT    EPW32858   2.326   4.499   1.376
 8035WAT      O32859   3.049   3.390   0.439
 8035WAT     H132860   2.998   3.323   0.414
 8035WAT     H232861   3.054   3.440   0.368
 8035WAT    EPW32862   3.042   3.387   0.425
 8036WAT      O32863   3.104   4.659   1.477
 8036WAT     H132864   3.181   4.651   1.436
 8036WAT     H232865   3.046   4.647   1.413
 8036WAT    EPW32866   3.107   4.656   1.462
 8037WAT      O32867   3.049   3.084   0.428
 8037WAT     H132868   3.004   3.044   0.366
 8037WAT     H232869   3.126   3.099   0.391
 8037WAT    EPW32870   3.054   3.080   0.413
 8038WAT      O32871   3.732   4.719   0.767
 8038WAT     H132872   3.686   4.791   0.787
 8038WAT     H232873   3.670   4.662   0.743
 8038WAT    EPW32874   3.716   4.722   0.767
 8039WAT      O32875   2.909   3.320   0.880
 8039WAT     H132876   2.916   3.377   0.815
 8039WAT     H232877   2.921   3.370   0.951
 8039WAT    EPW32878   2.912   3.336   0.881
 8040WAT      O32879   3.431   4.304   0.722
 8040WAT     H132880   3.501   4.256   0.740
 8040WAT     H232881   3.365   4.247   0.726
 8040WAT    EPW32882   3.432   4.288   0.725
 8041WAT      O32883   2.469   4.395   1.643
 8041WAT     H132884   2.553   4.401   1.621
 8041WAT     H232885   2.465   4.435   1.720
 8041WAT    EPW32886   2.481   4.402   1.651
 8042WAT      O32887   2.370   2.903   0.715
 8042WAT     H132888   2.423   2.972   0.714
 8042WAT     H232889   2.370   2.875   0.632
 8042WAT    EPW32890   2.378   2.909   0.703
 8043WAT      O32891   2.665   3.946   1.118
 8043WAT     H132892   2.682   3.925   1.201
 8043WAT     H232893   2.600   3.893   1.096
 8043WAT    EPW32894   2.658   3.935   1.127
 8044WAT      O32895   3.288   3.337   1.469
 8044WAT     H132896   3.279   3.369   1.550
 8044WAT     H232897   3.229   3.274   1.465
 8044WAT    EPW32898   3.278   3.333   1.481
 8045WAT      O32899   2.740   3.940   1.377
 8045WAT     H132900   2.746   4.025   1.397
 8045WAT     H232901   2.712   3.903   1.450
 8045WAT    EPW32902   2.737   3.947   1.390
 8046WAT      O32903   3.358   4.009   1.290
 8046WAT     H132904   3.307   3.968   1.347
 8046WAT     H232905   3.345   4.094   1.308
 8046WAT    EPW32906   3.349   4.016   1.301
 8047WAT      O32907   3.414   2.932   0.753
 8047WAT     H132908   3.419   2.900   0.834
 8047WAT     H232909   3.446   2.867   0.703
 8047WAT    EPW32910   3.419   2.918   0.757
 8048WAT      O32911   2.022   4.377   1.998
 8048WAT     H132912   2.098   4.412   2.024
 8048WAT     H232913   2.040   4.292   1.992
 8048WAT    EPW32914   2.036   4.369   2.001
 8049WAT      O32915   3.660   3.355   1.584
 8049WAT     H132916   3.737   3.333   1.617
 8049WAT     H232917   3.613   3.377   1.654
 8049WAT    EPW32918   3.664   3.355   1.599
 8050WAT      O32919   2.414   3.284   0.881
 8050WAT     H132920   2.442   3.241   0.810
 8050WAT     H232921   2.397   3.220   0.938
 8050WAT    EPW32922   2.416   3.268   0.879
 8051WAT      O32923   3.683   4.053   0.302
 8051WAT     H132924   3.695   4.025   0.384
 8051WAT     H232925   3.764   4.055   0.269
 8051WAT    EPW32926   3.697   4.049   0.310
 8052WAT      O32927   2.397   4.026   0.835
 8052WAT     H132928   2.482   4.018   0.818
 8052WAT     H232929   2.361   3.958   0.794
 8052WAT    EPW32930   2.404   4.015   0.827
 8053WAT      O32931   2.274   4.699   0.959
 8053WAT     H132932   2.206   4.649   0.935
 8053WAT     H232933   2.314   4.717   0.884
 8053WAT    EPW32934   2.270   4.694   0.944
 8054WAT      O32935   2.229   3.394   1.189
 8054WAT     H132936   2.313   3.416   1.184
 8054WAT     H232937   2.190   3.451   1.136
 8054WAT    EPW32938   2.235   3.406   1.180
 8055WAT      O32939   3.907   4.504   1.728
 8055WAT     H132940   3.838   4.535   1.683
 8055WAT     H232941   3.870   4.458   1.792
 8055WAT    EPW32942   3.891   4.502   1.731
 8056WAT      O32943   3.473   3.707   0.261
 8056WAT     H132944   3.451   3.780   0.219
 8056WAT     H232945   3.428   3.712   0.336
 8056WAT    EPW32946   3.463   3.718   0.266
 8057WAT      O32947   2.634   4.027   0.659
 8057WAT     H132948   2.705   4.077   0.668
 8057WAT     H232949   2.656   3.970   0.596
 8057WAT    EPW32950   2.647   4.026   0.651
 8058WAT      O32951   3.891   3.193   0.206
 8058WAT     H132952   3.825   3.136   0.208
 8058WAT     H232953   3.872   3.244   0.138
 8058WAT    EPW32954   3.879   3.192   0.196
 8059WAT      O32955   2.049   4.191   0.991
 8059WAT     H132956   1.983   4.240   1.019
 8059WAT     H232957   2.117   4.246   0.994
 8059WAT    EPW32958   2.049   4.207   0.995
 8060WAT      O32959   2.814   3.562   2.001
 8060WAT     H132960   2.766   3.620   2.045
 8060WAT     H232961   2.811   3.592   1.918
 8060WAT    EPW32962   2.806   3.575   1.995
 8061WAT      O32963   3.924   3.631   1.462
 8061WAT     H132964   3.945   3.551   1.434
 8061WAT     H232965   3.839   3.637   1.443
 8061WAT    EPW32966   3.914   3.620   1.455
 8062WAT      O32967   2.056   3.860   0.501
 8062WAT     H132968   2.037   3.776   0.516
 8062WAT     H232969   2.122   3.856   0.444
 8062WAT    EPW32970   2.063   3.847   0.495
 8063WAT      O32971   3.692   3.149   0.434
 8063WAT     H132972   3.766   3.108   0.454
 8063WAT     H232973   3.718   3.220   0.392
 8063WAT    EPW32974   3.707   3.153   0.431
 8064WAT      O32975   3.086   4.397   0.892
 8064WAT     H132976   3.034   4.461   0.862
 8064WAT     H232977   3.117   4.361   0.819
 8064WAT    EPW32978   3.083   4.401   0.877
 8065WAT      O32979   2.073   4.276   0.459
 8065WAT     H132980   2.128   4.333   0.495
 8065WAT     H232981   2.050   4.225   0.525
 8065WAT    EPW32982   2.078   4.277   0.474
 8066WAT      O32983   2.493   4.176   1.168
 8066WAT     H132984   2.540   4.205   1.235
 8066WAT     H232985   2.551   4.128   1.122
 8066WAT    EPW32986   2.509   4.173   1.171
 8067WAT      O32987   3.337   3.378   0.941
 8067WAT     H132988   3.371   3.393   1.020
 8067WAT     H232989   3.292   3.304   0.953
 8067WAT    EPW32990   3.335   3.369   0.955
 8068WAT      O32991   2.056   4.121   0.222
 8068WAT     H132992   2.132   4.078   0.227
 8068WAT     H232993   2.058   4.174   0.291
 8068WAT    EPW32994   2.067   4.123   0.233
 8069WAT      O32995   2.150   3.943   1.022
 8069WAT     H132996   2.193   3.930   0.947
 8069WAT     H232997   2.130   4.028   1.019
 8069WAT    EPW32998   2.153   3.954   1.011
 8070WAT      O32999   2.785   3.300   0.387
 8070WAT     H133000   2.784   3.288   0.301
 8070WAT     H233001   2.767   3.384   0.396
 8070WAT    EPW33002   2.782   3.310   0.376
 8071WAT      O33003   3.690   4.542   1.537
 8071WAT     H133004   3.623   4.594   1.559
 8071WAT     H233005   3.696   4.552   1.450
 8071WAT    EPW33006   3.681   4.551   1.527
 8072WAT      O33007   2.558   4.295   0.850
 8072WAT     H133008   2.571   4.379   0.869
 8072WAT     H233009   2.625   4.255   0.890
 8072WAT    EPW33010   2.570   4.301   0.859
 8073WAT      O33011   2.371   3.643   1.836
 8073WAT     H133012   2.318   3.593   1.883
 8073WAT     H233013   2.373   3.604   1.758
 8073WAT    EPW33014   2.364   3.630   1.832
 8074WAT      O33015   2.420   3.583   0.350
 8074WAT     H133016   2.407   3.538   0.424
 8074WAT     H233017   2.362   3.549   0.295
 8074WAT    EPW33018   2.409   3.571   0.353
 8075WAT      O33019   2.437   3.766   1.010
 8075WAT     H133020   2.359   3.760   0.972
 8075WAT     H233021   2.444   3.691   1.054
 8075WAT    EPW33022   2.426   3.754   1.011
 8076WAT      O33023   2.480   3.740   1.357
 8076WAT     H133024   2.482   3.672   1.302
 8076WAT     H233025   2.415   3.789   1.326
 8076WAT    EPW33026   2.471   3.737   1.344
 8077WAT      O33027   3.469   3.511   1.197
 8077WAT     H133028   3.403   3.544   1.243
 8077WAT     H233029   3.488   3.574   1.140
 8077WAT    EPW33030   3.462   3.525   1.195
 8078WAT      O33031   2.890   4.617   1.296
 8078WAT     H133032   2.862   4.553   1.244
 8078WAT     H233033   2.869   4.690   1.253
 8078WAT    EPW33034   2.883   4.619   1.282
 8079WAT      O33035   3.134   3.101   1.540
 8079WAT     H133036   3.149   3.019   1.515
 8079WAT     H233037   3.172   3.107   1.618
 8079WAT    EPW33038   3.141   3.090   1.548
 8080WAT      O33039   3.288   3.308   0.548
 8080WAT     H133040   3.337   3.379   0.540
 8080WAT     H233041   3.209   3.334   0.522
 8080WAT    EPW33042   3.284   3.322   0.543
 8081WAT      O33043   2.260   3.875   1.913
 8081WAT     H133044   2.256   3.925   1.842
 8081WAT     H233045   2.293   3.800   1.884
 8081WAT    EPW33046   2.264   3.871   1.898
 8082WAT      O33047   3.420   4.096   1.739
 8082WAT     H133048   3.468   4.167   1.749
 8082WAT     H233049   3.459   4.053   1.674
 8082WAT    EPW33050   3.433   4.100   1.731
 8083WAT      O33051   2.849   4.380   1.857
 8083WAT     H133052   2.885   4.362   1.934
 8083WAT     H233053   2.806   4.307   1.837
 8083WAT    EPW33054   2.848   4.367   1.865
 8084WAT      O33055   2.947   3.455   1.120
 8084WAT     H133056   2.995   3.525   1.141
 8084WAT     H233057   2.984   3.390   1.165
 8084WAT    EPW33058   2.959   3.456   1.130
 8085WAT      O33059   3.166   3.772   0.348
 8085WAT     H133060   3.165   3.844   0.299
 8085WAT     H233061   3.102   3.785   0.405
 8085WAT    EPW33062   3.156   3.784   0.349
 8086WAT      O33063   3.663   4.159   0.746
 8086WAT     H133064   3.698   4.124   0.817
 8086WAT     H233065   3.662   4.093   0.689
 8086WAT    EPW33066   3.668   4.144   0.748
 8087WAT      O33067   3.267   4.465   1.130
 8087WAT     H133068   3.207   4.436   1.075
 8087WAT     H233069   3.322   4.510   1.079
 8087WAT    EPW33070   3.266   4.468   1.114
 8088WAT      O33071   3.269   4.150   1.070
 8088WAT     H133072   3.189   4.173   1.098
 8088WAT     H233073   3.294   4.091   1.129
 8088WAT    EPW33074   3.261   4.145   1.083
 8089WAT      O33075   2.658   4.632   0.515
 8089WAT     H133076   2.643   4.554   0.552
 8089WAT     H233077   2.727   4.617   0.464
 8089WAT    EPW33078   2.666   4.618   0.513
 8090WAT      O33079   2.625   3.006   0.314
 8090WAT     H133080   2.635   2.995   0.400
 8090WAT     H233081   2.554   3.056   0.307
 8090WAT    EPW33082   2.616   3.012   0.326
 8091WAT      O33083   2.887   4.583   0.355
 8091WAT     H133084   2.949   4.599   0.414
 8091WAT     H233085   2.891   4.652   0.302
 8091WAT    EPW33086   2.897   4.596   0.356
 8092WAT      O33087   3.595   3.950   1.555
 8092WAT     H133088   3.600   3.963   1.469
 8092WAT     H233089   3.670   3.982   1.585
 8092WAT    EPW33090   3.606   3.957   1.547
 8093WAT      O33091   3.214   4.485   1.983
 8093WAT     H133092   3.230   4.513   2.063
 8093WAT     H233093   3.240   4.551   1.932
 8093WAT    EPW33094   3.220   4.499   1.987
 8094WAT      O33095   3.698   2.980   1.854
 8094WAT     H133096   3.634   2.940   1.809
 8094WAT     H233097   3.700   2.937   1.929
 8094WAT    EPW33098   3.689   2.968   1.858
 8095WAT      O33099   2.337   3.837   0.438
 8095WAT     H133100   2.369   3.759   0.416
 8095WAT     H233101   2.402   3.873   0.484
 8095WAT    EPW33102   2.351   3.830   0.442
 8096WAT      O33103   3.168   3.931   1.515
 8096WAT     H133104   3.152   3.992   1.575
 8096WAT     H233105   3.221   3.875   1.555
 8096WAT    EPW33106   3.173   3.932   1.530
 8097WAT      O33107   2.037   3.003   0.535
 8097WAT     H133108   2.050   2.932   0.486
 8097WAT     H233109   2.000   2.971   0.607
 8097WAT    EPW33110   2.033   2.987   0.538
 8098WAT      O33111   3.006   3.771   0.581
 8098WAT     H133112   3.012   3.836   0.639
 8098WAT     H233113   2.987   3.701   0.630
 8098WAT    EPW33114   3.004   3.770   0.596
 8099WAT      O33115   3.529   4.204   1.168
 8099WAT     H133116   3.481   4.233   1.101
 8099WAT     H233117   3.493   4.126   1.185
 8099WAT    EPW33118   3.516   4.197   1.160
 8100WAT      O33119   2.456   3.222   0.232
 8100WAT     H133120   2.405   3.228   0.161
 8100WAT     H233121   2.534   3.246   0.202
 8100WAT    EPW33122   2.460   3.227   0.217
 8101WAT      O33123   2.928   3.975   1.024
 8101WAT     H133124   2.844   3.956   1.032
 8101WAT     H233125   2.961   3.959   1.103
 8101WAT    EPW33126   2.921   3.970   1.037
 8102WAT      O33127   2.313   3.945   1.255
 8102WAT     H133128   2.385   3.994   1.252
 8102WAT     H233129   2.286   3.942   1.172
 8102WAT    EPW33130   2.320   3.952   1.243
 8103WAT      O33131   2.636   3.462   0.929
 8103WAT     H133132   2.721   3.443   0.939
 8103WAT     H233133   2.599   3.384   0.915
 8103WAT    EPW33134   2.643   3.448   0.928
 8104WAT      O33135   3.898   4.620   0.362
 8104WAT     H133136   3.967   4.574   0.337
 8104WAT     H233137   3.844   4.560   0.395
 8104WAT    EPW33138   3.900   4.604   0.363
 8105WAT      O33139   2.118   3.596   0.594
 8105WAT     H133140   2.167   3.566   0.660
 8105WAT     H233141   2.131   3.536   0.532
 8105WAT    EPW33142   2.127   3.583   0.595
 8106WAT      O33143   3.622   3.898   1.279
 8106WAT     H133144   3.621   3.820   1.319
 8106WAT     H233145   3.538   3.921   1.279
 8106WAT    EPW33146   3.609   3.890   1.285
 8107WAT      O33147   2.253   4.050   1.683
 8107WAT     H133148   2.211   3.998   1.627
 8107WAT     H233149   2.217   4.129   1.669
 8107WAT    EPW33150   2.241   4.054   1.673
 8108WAT      O33151   3.747   3.905   1.023
 8108WAT     H133152   3.719   3.945   1.095
 8108WAT     H233153   3.833   3.899   1.036
 8108WAT    EPW33154   3.756   3.910   1.036
 8109WAT      O33155   2.716   3.585   0.414
 8109WAT     H133156   2.743   3.668   0.421
 8109WAT     H233157   2.630   3.593   0.404
 8109WAT    EPW33158   2.708   3.598   0.413
 8110WAT      O33159   3.514   3.297   1.877
 8110WAT     H133160   3.461   3.343   1.930
 8110WAT     H233161   3.477   3.218   1.877
 8110WAT    EPW33162   3.500   3.292   1.885
 8111WAT      O33163   2.064   3.182   1.068
 8111WAT     H133164   2.069   3.217   0.987
 8111WAT     H233165   2.140   3.206   1.104
 8111WAT    EPW33166   2.076   3.191   1.061
 8112WAT      O33167   3.860   4.468   1.076
 8112WAT     H133168   3.889   4.494   0.998
 8112WAT     H233169   3.930   4.478   1.128
 8112WAT    EPW33170   3.875   4.473   1.072
 8113WAT      O33171   3.363   3.654   1.885
 8113WAT     H133172   3.370   3.665   1.971
 8113WAT     H233173   3.299   3.710   1.863
 8113WAT    EPW33174   3.354   3.664   1.894
 8114WAT      O33175   3.590   3.686   1.721
 8114WAT     H133176   3.621   3.765   1.742
 8114WAT     H233177   3.553   3.659   1.796
 8114WAT    EPW33178   3.589   3.694   1.735
 8115WAT      O33179   3.521   4.329   0.274
 8115WAT     H133180   3.554   4.248   0.278
 8115WAT     H233181   3.445   4.321   0.317
 8115WAT    EPW33182   3.515   4.316   0.281
 8116WAT      O33183   3.569   3.512   0.840
 8116WAT     H133184   3.495   3.480   0.872
 8116WAT     H233185   3.569   3.595   0.868
 8116WAT    EPW33186   3.558   3.519   0.849
 8117WAT      O33187   3.813   4.108   1.615
 8117WAT     H133188   3.876   4.053   1.590
 8117WAT     H233189   3.807   4.164   1.549
 8117WAT    EPW33190   3.822   4.108   1.602
 8118WAT      O33191   3.258   4.116   0.215
 8118WAT     H133192   3.327   4.065   0.198
 8118WAT     H233193   3.217   4.121   0.138
 8118WAT    EPW33194   3.262   4.109   0.201
 8119WAT      O33195   2.727   4.231   1.345
 8119WAT     H133196   2.697   4.290   1.402
 8119WAT     H233197   2.732   4.275   1.270
 8119WAT    EPW33198   2.723   4.246   1.342
 8120WAT      O33199   2.524   4.126   1.685
 8120WAT     H133200   2.444   4.097   1.701
 8120WAT     H233201   2.516   4.213   1.685
 8120WAT    EPW33202   2.511   4.135   1.687
 8121WAT      O33203   3.460   3.145   1.586
 8121WAT     H133204   3.535   3.190   1.580
 8121WAT     H233205   3.404   3.192   1.539
 8121WAT    EPW33206   3.463   3.159   1.578
 8122WAT      O33207   2.978   3.873   1.294
 8122WAT     H133208   3.026   3.911   1.357
 8122WAT     H233209   2.896   3.887   1.320
 8122WAT    EPW33210   2.973   3.881   1.307
 8123WAT      O33211   2.649   3.434   1.568
 8123WAT     H133212   2.665   3.359   1.611
 8123WAT     H233213   2.645   3.409   1.485
 8123WAT    EPW33214   2.651   3.419   1.562
 8124WAT      O33215   2.905   4.613   0.817
 8124WAT     H133216   2.959   4.681   0.822
 8124WAT     H233217   2.870   4.621   0.737
 8124WAT    EPW33218   2.907   4.624   0.806
 8125WAT      O33219   3.589   2.943   1.353
 8125WAT     H133220   3.561   3.025   1.349
 8125WAT     H233221   3.660   2.948   1.403
 8125WAT    EPW33222   3.595   2.956   1.360
 8126WAT      O33223   2.824   3.014   1.556
 8126WAT     H133224   2.895   3.046   1.516
 8126WAT     H233225   2.848   2.934   1.579
 8126WAT    EPW33226   2.838   3.007   1.554
 8127WAT      O33227   2.723   4.435   1.156
 8127WAT     H133228   2.660   4.494   1.138
 8127WAT     H233229   2.748   4.407   1.077
 8127WAT    EPW33230   2.717   4.440   1.141
 8128WAT      O33231   3.154   4.099   1.855
 8128WAT     H133232   3.229   4.127   1.822
 8128WAT     H233233   3.099   4.104   1.787
 8128WAT    EPW33234   3.157   4.104   1.840
 8129WAT      O33235   3.731   3.568   0.239
 8129WAT     H133236   3.769   3.636   0.199
 8129WAT     H233237   3.647   3.591   0.242
 8129WAT    EPW33238   3.724   3.582   0.233
 8130WAT      O33239   2.475   3.520   1.162
 8130WAT     H133240   2.519   3.509   1.088
 8130WAT     H233241   2.530   3.488   1.223
 8130WAT    EPW33242   2.490   3.514   1.160
 8131WAT      O33243   3.277   3.430   1.721
 8131WAT     H133244   3.212   3.477   1.756
 8131WAT     H233245   3.333   3.421   1.787
 8131WAT    EPW33246   3.276   3.436   1.736
 8132WAT      O33247   2.988   4.600   1.744
 8132WAT     H133248   3.036   4.540   1.702
 8132WAT     H233249   2.953   4.556   1.810
 8132WAT    EPW33250   2.990   4.585   1.747
 8133WAT      O33251   3.500   3.528   0.576
 8133WAT     H133252   3.521   3.508   0.659
 8133WAT     H233253   3.576   3.555   0.542
 8133WAT    EPW33254   3.515   3.529   0.584
 8134WAT      O33255   2.830   3.018   1.167
 8134WAT     H133256   2.747   3.003   1.191
 8134WAT     H233257   2.826   3.022   1.080
 8134WAT    EPW33258   2.817   3.017   1.158
 8135WAT      O33259   3.603   3.137   0.724
 8135WAT     H133260   3.531   3.090   0.741
 8135WAT     H233261   3.586   3.171   0.645
 8135WAT    EPW33262   3.590   3.135   0.715
 8136WAT      O33263   3.647   3.931   0.562
 8136WAT     H133264   3.695   3.858   0.557
 8136WAT     H233265   3.565   3.902   0.554
 8136WAT    EPW33266   3.642   3.916   0.560
 8137WAT      O33267   2.994   4.122   1.646
 8137WAT     H133268   2.915   4.116   1.681
 8137WAT     H233269   3.001   4.207   1.626
 8137WAT    EPW33270   2.983   4.134   1.648
 8138WAT      O33271   2.086   3.058   1.770
 8138WAT     H133272   2.072   3.138   1.737
 8138WAT     H233273   2.008   3.034   1.799
 8138WAT    EPW33274   2.073   3.066   1.770
 8139WAT      O33275   2.577   4.743   1.177
 8139WAT     H133276   2.578   4.749   1.264
 8139WAT     H233277   2.535   4.668   1.162
 8139WAT    EPW33278   2.571   4.733   1.188
 8140WAT      O33279   2.393   3.332   0.493
 8140WAT     H133280   2.405   3.300   0.413
 8140WAT     H233281   2.312   3.308   0.513
 8140WAT    EPW33282   2.383   3.324   0.484
 8141WAT      O33283   3.269   4.048   0.797
 8141WAT     H133284   3.276   4.082   0.877
 8141WAT     H233285   3.285   3.963   0.809
 8141WAT    EPW33286   3.272   4.040   0.811
 8142WAT      O33287   3.021   3.975   0.754
 8142WAT     H133288   2.991   3.944   0.830
 8142WAT     H233289   3.090   4.022   0.777
 8142WAT    EPW33290   3.027   3.977   0.769
 8143WAT      O33291   3.043   4.387   1.557
 8143WAT     H133292   3.112   4.376   1.609
 8143WAT     H233293   3.056   4.466   1.522
 8143WAT    EPW33294   3.055   4.397   1.559
 8144WAT      O33295   3.312   3.714   1.595
 8144WAT     H133296   3.286   3.642   1.637
 8144WAT     H233297   3.394   3.726   1.622
 8144WAT    EPW33298   3.320   3.705   1.605
 8145WAT      O33299   2.253   4.693   1.722
 8145WAT     H133300   2.188   4.636   1.731
 8145WAT     H233301   2.216   4.770   1.737
 8145WAT    EPW33302   2.238   4.696   1.725
 8146WAT      O33303   3.105   3.833   1.914
 8146WAT     H133304   3.138   3.902   1.871
 8146WAT     H233305   3.035   3.866   1.954
 8146WAT    EPW33306   3.100   3.848   1.913
 8147WAT      O33307   3.414   4.671   1.007
 8147WAT     H133308   3.369   4.735   1.045
 8147WAT     H233309   3.484   4.663   1.057
 8147WAT    EPW33310   3.417   4.679   1.020
 8148WAT      O33311   3.084   4.180   1.300
 8148WAT     H133312   3.014   4.220   1.334
 8148WAT     H233313   3.151   4.223   1.334
 8148WAT    EPW33314   3.083   4.192   1.310
 8149WAT      O33315   3.621   4.439   1.958
 8149WAT     H133316   3.699   4.400   1.966
 8149WAT     H233317   3.575   4.405   2.023
 8149WAT    EPW33318   3.626   4.428   1.969
 8150WAT      O33319   2.391   3.534   1.535
 8150WAT     H133320   2.428   3.595   1.486
 8150WAT     H233321   2.458   3.486   1.563
 8150WAT    EPW33322   2.406   3.536   1.532
 8151WAT      O33323   2.168   3.378   1.462
 8151WAT     H133324   2.176   3.361   1.377
 8151WAT     H233325   2.243   3.419   1.482
 8151WAT    EPW33326   2.180   3.382   1.452
 8152WAT      O33327   3.724   3.642   0.506
 8152WAT     H133328   3.734   3.637   0.420
 8152WAT     H233329   3.798   3.609   0.538
 8152WAT    EPW33330   3.736   3.637   0.498
 8153WAT      O33331   2.423   3.119   1.703
 8153WAT     H133332   2.415   3.035   1.724
 8153WAT     H233333   2.392   3.124   1.622
 8153WAT    EPW33334   2.418   3.108   1.694
 8154WAT      O33335   3.116   4.339   0.617
 8154WAT     H133336   3.095   4.422   0.601
 8154WAT     H233337   3.038   4.301   0.629
 8154WAT    EPW33338   3.101   4.346   0.616
 8155WAT      O33339   3.634   3.657   1.442
 8155WAT     H133340   3.634   3.571   1.454
 8155WAT     H233341   3.641   3.689   1.522
 8155WAT    EPW33342   3.635   3.649   1.455
 8156WAT      O33343   2.108   3.901   1.484
 8156WAT     H133344   2.140   3.923   1.406
 8156WAT     H233345   2.098   3.814   1.479
 8156WAT    EPW33346   2.111   3.891   1.472
 8157WAT      O33347   3.222   3.137   1.820
 8157WAT     H133348   3.231   3.208   1.869
 8157WAT     H233349   3.158   3.092   1.860
 8157WAT    EPW33350   3.214   3.141   1.833
 8158WAT      O33351   3.121   3.156   0.905
 8158WAT     H133352   3.051   3.208   0.900
 8158WAT     H233353   3.125   3.118   0.827
 8158WAT    EPW33354   3.112   3.158   0.893
 8159WAT      O33355   2.652   4.365   0.258
 8159WAT     H133356   2.696   4.373   0.332
 8159WAT     H233357   2.572   4.343   0.283
 8159WAT    EPW33358   2.647   4.363   0.273
 8160WAT      O33359   3.481   3.208   1.185
 8160WAT     H133360   3.567   3.217   1.200
 8160WAT     H233361   3.444   3.263   1.242
 8160WAT    EPW33362   3.488   3.217   1.196
 8161WAT      O33363   2.584   3.830   1.623
 8161WAT     H133364   2.544   3.908   1.630
 8161WAT     H233365   2.543   3.793   1.555
 8161WAT    EPW33366   2.572   3.836   1.614
 8162WAT      O33367   3.512   3.736   1.034
 8162WAT     H133368   3.578   3.790   1.050
 8162WAT     H233369   3.477   3.767   0.960
 8162WAT    EPW33370   3.516   3.748   1.026
 8163WAT      O33371   3.543   4.542   0.615
 8163WAT     H133372   3.526   4.477   0.670
 8163WAT     H233373   3.614   4.515   0.573
 8163WAT    EPW33374   3.551   4.528   0.617
 8164WAT      O33375   2.385   4.272   0.318
 8164WAT     H133376   2.361   4.241   0.396
 8164WAT     H233377   2.382   4.202   0.266
 8164WAT    EPW33378   2.381   4.257   0.322
 8165WAT      O33379   2.667   4.097   0.192
 8165WAT     H133380   2.585   4.070   0.206
 8165WAT     H233381   2.664   4.182   0.211
 8165WAT    EPW33382   2.654   4.105   0.197
 8166WAT      O33383   2.627   3.128   1.368
 8166WAT     H133384   2.541   3.136   1.376
 8166WAT     H233385   2.649   3.076   1.435
 8166WAT    EPW33386   2.617   3.122   1.379
 8167WAT      O33387   3.829   2.991   1.501
 8167WAT     H133388   3.824   2.987   1.588
 8167WAT     H233389   3.897   2.941   1.482
 8167WAT    EPW33390   3.838   2.983   1.511
 8168WAT      O33391   3.037   3.203   1.205
 8168WAT     H133392   2.964   3.157   1.217
 8168WAT     H233393   3.094   3.162   1.258
 8168WAT    EPW33394   3.035   3.190   1.215
 8169WAT      O33395   3.310   4.287   1.384
 8169WAT     H133396   3.331   4.318   1.463
 8169WAT     H233397   3.304   4.360   1.336
 8169WAT    EPW33398   3.313   4.303   1.389
 8170WAT      O33399   3.264   4.709   1.809
 8170WAT     H133400   3.189   4.707   1.765
 8170WAT     H233401   3.281   4.794   1.817
 8170WAT    EPW33402   3.255   4.721   1.803
 8171WAT      O33403   2.788   3.636   1.726
 8171WAT     H133404   2.755   3.578   1.669
 8171WAT     H233405   2.752   3.711   1.701
 8171WAT    EPW33406   2.778   3.638   1.714
 8172WAT      O33407   3.792   4.151   1.330
 8172WAT     H133408   3.788   4.065   1.316
 8172WAT     H233409   3.722   4.182   1.287
 8172WAT    EPW33410   3.781   4.143   1.322
 8173WAT      O33411   2.631   4.671   1.751
 8173WAT     H133412   2.635   4.684   1.837
 8173WAT     H233413   2.696   4.615   1.735
 8173WAT    EPW33414   2.641   4.665   1.761
 8174WAT      O33415   3.602   4.477   1.210
 8174WAT     H133416   3.655   4.469   1.141
 8174WAT     H233417   3.563   4.400   1.215
 8174WAT    EPW33418   3.604   4.465   1.200
 8175WAT      O33419   2.349   3.136   1.433
 8175WAT     H133420   2.315   3.059   1.409
 8175WAT     H233421   2.279   3.189   1.439
 8175WAT    EPW33422   2.334   3.133   1.430
 8176WAT      O33423   3.254   3.022   1.130
 8176WAT     H133424   3.321   3.076   1.143
 8176WAT     H233425   3.203   3.064   1.073
 8176WAT    EPW33426   3.256   3.036   1.124
 8177WAT      O33427   2.390   4.509   1.887
 8177WAT     H133428   2.450   4.553   1.934
 8177WAT     H233429   2.354   4.572   1.838
 8177WAT    EPW33430   2.394   4.525   1.886
 8178WAT      O33431   3.189   3.603   0.880
 8178WAT     H133432   3.245   3.542   0.910
 8178WAT     H233433   3.147   3.629   0.951
 8178WAT    EPW33434   3.191   3.597   0.895
 8179WAT      O33435   2.214   3.468   0.828
 8179WAT     H133436   2.177   3.498   0.901
 8179WAT     H233437   2.268   3.405   0.857
 8179WAT    EPW33438   2.217   3.463   0.843
 8180WAT      O33439   2.183   4.308   1.579
 8180WAT     H133440   2.126   4.350   1.630
 8180WAT     H233441   2.256   4.355   1.589
 8180WAT    EPW33442   2.185   4.321   1.588
 8181WAT      O33443   3.386   3.786   0.536
 8181WAT     H133444   3.393   3.701   0.554
 8181WAT     H233445   3.304   3.794   0.508
 8181WAT    EPW33446   3.375   3.774   0.535
 8182WAT      O33447   2.362   4.635   0.457
 8182WAT     H133448   2.347   4.651   0.372
 8182WAT     H233449   2.448   4.643   0.465
 8182WAT    EPW33450   2.372   4.639   0.446
 8183WAT      O33451   2.778   3.875   0.430
 8183WAT     H133452   2.788   3.889   0.344
 8183WAT     H233453   2.860   3.869   0.459
 8183WAT    EPW33454   2.792   3.876   0.421
 8184WAT      O33455   3.694   4.681   0.178
 8184WAT     H133456   3.758   4.668   0.236
 8184WAT     H233457   3.660   4.602   0.166
 8184WAT    EPW33458   3.699   4.667   0.185
 8185WAT      O33459   3.714   3.923   1.851
 8185WAT     H133460   3.777   3.906   1.908
 8185WAT     H233461   3.756   3.963   1.786
 8185WAT    EPW33462   3.729   3.926   1.850
 8186WAT      O33463   3.302   4.308   0.410
 8186WAT     H133464   3.277   4.295   0.493
 8186WAT     H233465   3.270   4.238   0.368
 8186WAT    EPW33466   3.293   4.296   0.416
 8187WAT      O33467   3.766   3.473   1.222
 8187WAT     H133468   3.683   3.498   1.215
 8187WAT     H233469   3.761   3.389   1.245
 8187WAT    EPW33470   3.753   3.465   1.224
 8188WAT      O33471   2.692   3.172   1.741
 8188WAT     H133472   2.716   3.115   1.680
 8188WAT     H233473   2.608   3.154   1.755
 8188WAT    EPW33474   2.683   3.161   1.734
 8189WAT      O33475   3.455   3.934   1.987
 8189WAT     H133476   3.542   3.930   1.983
 8189WAT     H233477   3.433   3.976   1.913
 8189WAT    EPW33478   3.465   3.940   1.975
 8190WAT      O33479   2.430   4.517   1.105
 8190WAT     H133480   2.422   4.436   1.073
 8190WAT     H233481   2.386   4.565   1.047
 8190WAT    EPW33482   2.423   4.512   1.092
 8191WAT      O33483   2.990   4.128   0.353
 8191WAT     H133484   3.062   4.094   0.317
 8191WAT     H233485   2.987   4.208   0.318
 8191WAT    EPW33486   3.001   4.135   0.343
 8192WAT      O33487   2.188   4.741   1.463
 8192WAT     H133488   2.237   4.735   1.535
 8192WAT     H233489   2.206   4.668   1.419
 8192WAT    EPW33490   2.198   4.729   1.467
 8193WAT      O33491   3.131   1.145   6.379
 8193WAT     H133492   3.107   1.194   6.311
 8193WAT     H233493   3.218   1.137   6.369
 8193WAT    EPW33494   3.140   1.151   6.368
 8194WAT      O33495   3.112   1.836   6.846
 8194WAT     H133496   3.060   1.896   6.883
 8194WAT     H233497   3.152   1.800   6.915
 8194WAT    EPW33498   3.110   1.840   6.862
 8195WAT      O33499   2.099   2.250   6.392
 8195WAT     H133500   2.055   2.262   6.466
 8195WAT     H233501   2.071   2.173   6.363
 8195WAT    EPW33502   2.088   2.241   6.399
 8196WAT      O33503   3.727   2.580   6.143
 8196WAT     H133504   3.797   2.529   6.143
 8196WAT     H233505   3.668   2.536   6.097
 8196WAT    EPW33506   3.728   2.566   6.136
 8197WAT      O33507   2.073   1.630   6.043
 8197WAT     H133508   1.996   1.646   6.007
 8197WAT     H233509   2.077   1.542   6.045
 8197WAT    EPW33510   2.063   1.619   6.038
 8198WAT      O33511   2.387   2.156   5.910
 8198WAT     H133512   2.348   2.119   5.841
 8198WAT     H233513   2.379   2.096   5.973
 8198WAT    EPW33514   2.380   2.142   5.909
 8199WAT      O33515   3.379   1.943   6.514
 8199WAT     H133516   3.387   1.943   6.427
 8199WAT     H233517   3.321   1.880   6.529
 8199WAT    EPW33518   3.372   1.934   6.503
 8200WAT      O33519   2.350   2.320   6.300
 8200WAT     H133520   2.411   2.303   6.360
 8200WAT     H233521   2.275   2.306   6.342
 8200WAT    EPW33522   2.348   2.315   6.315
 8201WAT      O33523   2.778   1.253   6.295
 8201WAT     H133524   2.771   1.321   6.240
 8201WAT     H233525   2.852   1.215   6.270
 8201WAT    EPW33526   2.788   1.258   6.283
 8202WAT      O33527   2.239   2.629   5.908
 8202WAT     H133528   2.286   2.637   5.834
 8202WAT     H233529   2.285   2.571   5.954
 8202WAT    EPW33530   2.253   2.622   5.904
 8203WAT      O33531   2.093   2.524   7.017
 8203WAT     H133532   2.106   2.496   7.099
 8203WAT     H233533   2.032   2.470   6.987
 8203WAT    EPW33534   2.086   2.512   7.025
 8204WAT      O33535   2.751   2.276   7.524
 8204WAT     H133536   2.727   2.276   7.608
 8204WAT     H233537   2.676   2.262   7.482
 8204WAT    EPW33538   2.736   2.274   7.530
 8205WAT      O33539   2.238   1.976   6.438
 8205WAT     H133540   2.192   1.937   6.375
 8205WAT     H233541   2.308   1.925   6.447
 8205WAT    EPW33542   2.241   1.963   6.430
 8206WAT      O33543   2.689   1.537   6.972
 8206WAT     H133544   2.756   1.539   6.917
 8206WAT     H233545   2.684   1.453   6.997
 8206WAT    EPW33546   2.698   1.525   6.968
 8207WAT      O33547   2.749   2.596   7.250
 8207WAT     H133548   2.763   2.672   7.210
 8207WAT     H233549   2.828   2.559   7.253
 8207WAT    EPW33550   2.762   2.601   7.245
 8208WAT      O33551   2.438   1.786   6.440
 8208WAT     H133552   2.520   1.767   6.464
 8208WAT     H233553   2.390   1.725   6.480
 8208WAT    EPW33554   2.443   1.774   6.449
 8209WAT      O33555   2.858   2.384   6.701
 8209WAT     H133556   2.893   2.304   6.704
 8209WAT     H233557   2.925   2.434   6.675
 8209WAT    EPW33558   2.873   2.380   6.698
 8210WAT      O33559   2.864   2.329   6.322
 8210WAT     H133560   2.897   2.265   6.371
 8210WAT     H233561   2.888   2.308   6.241
 8210WAT    EPW33562   2.872   2.316   6.317
 8211WAT      O33563   3.061   1.742   7.456
 8211WAT     H133564   2.976   1.732   7.438
 8211WAT     H233565   3.064   1.817   7.501
 8211WAT    EPW33566   3.049   1.752   7.460
 8212WAT      O33567   2.498   1.295   6.367
 8212WAT     H133568   2.468   1.345   6.302
 8212WAT     H233569   2.584   1.303   6.361
 8212WAT    EPW33570   2.506   1.304   6.356
 8213WAT      O33571   3.517   1.038   7.367
 8213WAT     H133572   3.501   1.115   7.329
 8213WAT     H233573   3.439   1.016   7.402
 8213WAT    EPW33574   3.503   1.046   7.367
 8214WAT      O33575   2.795   1.210   6.589
 8214WAT     H133576   2.803   1.296   6.602
 8214WAT     H233577   2.792   1.202   6.502
 8214WAT    EPW33578   2.796   1.221   6.578
 8215WAT      O33579   3.263   1.502   5.819
 8215WAT     H133580   3.218   1.570   5.849
 8215WAT     H233581   3.274   1.452   5.889
 8215WAT    EPW33582   3.258   1.505   5.834
 8216WAT      O33583   2.083   1.752   6.739
 8216WAT     H133584   2.058   1.835   6.731
 8216WAT     H233585   2.017   1.714   6.781
 8216WAT    EPW33586   2.070   1.759   6.744
 8217WAT      O33587   2.074   2.723   6.529
 8217WAT     H133588   2.015   2.779   6.498
 8217WAT     H233589   2.117   2.696   6.458
 8217WAT    EPW33590   2.072   2.727   6.514
 8218WAT      O33591   2.658   2.507   6.277
 8218WAT     H133592   2.600   2.480   6.336
 8218WAT     H233593   2.721   2.447   6.279
 8218WAT    EPW33594   2.659   2.494   6.286
 8219WAT      O33595   3.273   2.736   6.029
 8219WAT     H133596   3.345   2.783   6.039
 8219WAT     H233597   3.296   2.657   6.057
 8219WAT    EPW33598   3.287   2.732   6.035
 8220WAT      O33599   3.089   2.775   6.228
 8220WAT     H133600   3.111   2.828   6.294
 8220WAT     H233601   3.166   2.758   6.190
 8220WAT    EPW33602   3.104   2.781   6.232
 8221WAT      O33603   2.386   1.234   6.788
 8221WAT     H133604   2.334   1.171   6.757
 8221WAT     H233605   2.445   1.190   6.835
 8221WAT    EPW33606   2.387   1.218   6.790
 8222WAT      O33607   2.229   2.590   6.322
 8222WAT     H133608   2.294   2.533   6.324
 8222WAT     H233609   2.268   2.665   6.300
 8222WAT    EPW33610   2.244   2.593   6.319
 8223WAT      O33611   3.802   1.499   6.448
 8223WAT     H133612   3.768   1.567   6.491
 8223WAT     H233613   3.739   1.440   6.450
 8223WAT    EPW33614   3.788   1.501   6.455
 8224WAT      O33615   3.333   2.776   7.059
 8224WAT     H133616   3.408   2.822   7.058
 8224WAT     H233617   3.321   2.755   6.975
 8224WAT    EPW33618   3.343   2.780   7.046
 8225WAT      O33619   2.290   1.407   7.616
 8225WAT     H133620   2.212   1.368   7.609
 8225WAT     H233621   2.339   1.366   7.557
 8225WAT    EPW33622   2.286   1.395   7.606
 8226WAT      O33623   2.311   2.439   6.672
 8226WAT     H133624   2.353   2.403   6.605
 8226WAT     H233625   2.343   2.397   6.741
 8226WAT    EPW33626   2.322   2.427   6.672
 8227WAT      O33627   2.634   2.724   6.602
 8227WAT     H133628   2.718   2.734   6.582
 8227WAT     H233629   2.604   2.806   6.608
 8227WAT    EPW33630   2.642   2.738   6.600
 8228WAT      O33631   2.955   1.171   7.533
 8228WAT     H133632   2.973   1.090   7.506
 8228WAT     H233633   2.941   1.215   7.459
 8228WAT    EPW33634   2.956   1.166   7.518
 8229WAT      O33635   3.014   1.664   6.410
 8229WAT     H133636   3.043   1.640   6.331
 8229WAT     H233637   3.088   1.672   6.457
 8229WAT    EPW33638   3.029   1.661   6.406
 8230WAT      O33639   3.087   1.698   5.922
 8230WAT     H133640   3.115   1.776   5.947
 8230WAT     H233641   3.009   1.714   5.886
 8230WAT    EPW33642   3.079   1.712   5.921
 8231WAT      O33643   3.491   2.895   6.069
 8231WAT     H133644   3.557   2.880   6.015
 8231WAT     H233645   3.527   2.887   6.148
 8231WAT    EPW33646   3.506   2.892   6.073
 8232WAT      O33647   2.534   2.846   7.176
 8232WAT     H133648   2.563   2.839   7.258
 8232WAT     H233649   2.471   2.785   7.171
 8232WAT    EPW33650   2.529   2.836   7.187
 8233WAT      O33651   3.770   1.332   6.985
 8233WAT     H133652   3.845   1.339   6.942
 8233WAT     H233653   3.776   1.254   7.025
 8233WAT    EPW33654   3.782   1.321   6.985
 8234WAT      O33655   2.025   1.462   7.375
 8234WAT     H133656   2.025   1.520   7.439
 8234WAT     H233657   2.084   1.493   7.319
 8234WAT    EPW33658   2.034   1.475   7.376
 8235WAT      O33659   3.259   2.495   7.429
 8235WAT     H133660   3.255   2.533   7.507
 8235WAT     H233661   3.344   2.491   7.412
 8235WAT    EPW33662   3.271   2.500   7.438
 8236WAT      O33663   2.973   2.515   5.904
 8236WAT     H133664   2.954   2.569   5.970
 8236WAT     H233665   3.049   2.544   5.874
 8236WAT    EPW33666   2.981   2.527   5.909
 8237WAT      O33667   3.323   1.304   6.009
 8237WAT     H133668   3.377   1.236   6.017
 8237WAT     H233669   3.329   1.344   6.087
 8237WAT    EPW33670   3.332   1.300   6.022
 8238WAT      O33671   2.119   1.421   6.266
 8238WAT     H133672   2.107   1.335   6.269
 8238WAT     H233673   2.071   1.450   6.333
 8238WAT    EPW33674   2.110   1.413   6.277
 8239WAT      O33675   2.333   2.662   7.088
 8239WAT     H133676   2.263   2.611   7.100
 8239WAT     H233677   2.359   2.642   7.007
 8239WAT    EPW33678   2.326   2.652   7.078
 8240WAT      O33679   3.049   1.542   6.141
 8240WAT     H133680   2.998   1.476   6.115
 8240WAT     H233681   3.054   1.592   6.070
 8240WAT    EPW33682   3.042   1.540   6.127
 8241WAT      O33683   3.104   2.811   7.179
 8241WAT     H133684   3.181   2.803   7.138
 8241WAT     H233685   3.046   2.799   7.115
 8241WAT    EPW33686   3.107   2.808   7.163
 8242WAT      O33687   3.049   1.236   6.130
 8242WAT     H133688   3.004   1.196   6.067
 8242WAT     H233689   3.126   1.251   6.092
 8242WAT    EPW33690   3.054   1.232   6.115
 8243WAT      O33691   3.732   2.872   6.469
 8243WAT     H133692   3.686   2.943   6.489
 8243WAT     H233693   3.670   2.815   6.445
 8243WAT    EPW33694   3.716   2.874   6.468
 8244WAT      O33695   2.909   1.473   6.582
 8244WAT     H133696   2.916   1.529   6.516
 8244WAT     H233697   2.921   1.522   6.653
 8244WAT    EPW33698   2.912   1.488   6.583
 8245WAT      O33699   3.431   2.456   6.423
 8245WAT     H133700   3.501   2.408   6.442
 8245WAT     H233701   3.365   2.399   6.428
 8245WAT    EPW33702   3.432   2.441   6.427
 8246WAT      O33703   2.469   2.547   7.345
 8246WAT     H133704   2.553   2.553   7.322
 8246WAT     H233705   2.465   2.587   7.422
 8246WAT    EPW33706   2.481   2.554   7.353
 8247WAT      O33707   2.370   1.055   6.417
 8247WAT     H133708   2.423   1.124   6.416
 8247WAT     H233709   2.370   1.028   6.334
 8247WAT    EPW33710   2.378   1.061   6.405
 8248WAT      O33711   2.665   2.098   6.819
 8248WAT     H133712   2.682   2.077   6.902
 8248WAT     H233713   2.600   2.045   6.798
 8248WAT    EPW33714   2.658   2.087   6.829
 8249WAT      O33715   3.288   1.490   7.171
 8249WAT     H133716   3.279   1.522   7.252
 8249WAT     H233717   3.229   1.426   7.167
 8249WAT    EPW33718   3.278   1.485   7.182
 8250WAT      O33719   2.740   2.092   7.078
 8250WAT     H133720   2.746   2.177   7.099
 8250WAT     H233721   2.712   2.055   7.152
 8250WAT    EPW33722   2.737   2.099   7.092
 8251WAT      O33723   3.358   2.162   6.991
 8251WAT     H133724   3.307   2.120   7.049
 8251WAT     H233725   3.345   2.246   7.010
 8251WAT    EPW33726   3.349   2.168   7.003
 8252WAT      O33727   3.414   1.084   6.455
 8252WAT     H133728   3.419   1.052   6.536
 8252WAT     H233729   3.446   1.020   6.405
 8252WAT    EPW33730   3.419   1.070   6.459
 8253WAT      O33731   3.660   1.508   7.285
 8253WAT     H133732   3.737   1.485   7.319
 8253WAT     H233733   3.613   1.529   7.355
 8253WAT    EPW33734   3.664   1.508   7.301
 8254WAT      O33735   2.414   1.436   6.582
 8254WAT     H133736   2.442   1.393   6.512
 8254WAT     H233737   2.397   1.372   6.639
 8254WAT    EPW33738   2.416   1.420   6.580
 8255WAT      O33739   3.683   2.205   6.004
 8255WAT     H133740   3.695   2.177   6.086
 8255WAT     H233741   3.764   2.208   5.971
 8255WAT    EPW33742   3.697   2.202   6.011
 8256WAT      O33743   2.397   2.179   6.537
 8256WAT     H133744   2.482   2.171   6.520
 8256WAT     H233745   2.361   2.110   6.496
 8256WAT    EPW33746   2.404   2.167   6.529
 8257WAT      O33747   2.274   2.851   6.661
 8257WAT     H133748   2.206   2.801   6.636
 8257WAT     H233749   2.314   2.870   6.586
 8257WAT    EPW33750   2.270   2.847   6.646
 8258WAT      O33751   2.229   1.546   6.891
 8258WAT     H133752   2.313   1.568   6.886
 8258WAT     H233753   2.190   1.603   6.837
 8258WAT    EPW33754   2.235   1.558   6.882
 8259WAT      O33755   3.907   2.656   7.430
 8259WAT     H133756   3.838   2.687   7.385
 8259WAT     H233757   3.870   2.611   7.494
 8259WAT    EPW33758   3.891   2.654   7.432
 8260WAT      O33759   3.473   1.859   5.963
 8260WAT     H133760   3.451   1.932   5.920
 8260WAT     H233761   3.428   1.864   6.037
 8260WAT    EPW33762   3.463   1.871   5.967
 8261WAT      O33763   2.634   2.179   6.361
 8261WAT     H133764   2.705   2.229   6.370
 8261WAT     H233765   2.656   2.123   6.298
 8261WAT    EPW33766   2.647   2.178   6.353
 8262WAT      O33767   3.891   1.345   5.908
 8262WAT     H133768   3.825   1.288   5.910
 8262WAT     H233769   3.872   1.396   5.840
 8262WAT    EPW33770   3.879   1.344   5.898
 8263WAT      O33771   2.049   2.344   6.693
 8263WAT     H133772   1.983   2.392   6.720
 8263WAT     H233773   2.117   2.398   6.696
 8263WAT    EPW33774   2.049   2.359   6.697
 8264WAT      O33775   3.924   1.783   7.164
 8264WAT     H133776   3.945   1.703   7.136
 8264WAT     H233777   3.839   1.789   7.145
 8264WAT    EPW33778   3.914   1.772   7.157
 8265WAT      O33779   2.056   2.012   6.203
 8265WAT     H133780   2.037   1.928   6.218
 8265WAT     H233781   2.122   2.008   6.146
 8265WAT    EPW33782   2.063   1.999   6.197
 8266WAT      O33783   3.692   1.301   6.136
 8266WAT     H133784   3.766   1.260   6.156
 8266WAT     H233785   3.718   1.373   6.093
 8266WAT    EPW33786   3.707   1.306   6.133
 8267WAT      O33787   3.086   2.550   6.593
 8267WAT     H133788   3.034   2.613   6.564
 8267WAT     H233789   3.117   2.513   6.521
 8267WAT    EPW33790   3.083   2.554   6.578
 8268WAT      O33791   2.073   2.428   6.161
 8268WAT     H133792   2.128   2.485   6.197
 8268WAT     H233793   2.050   2.377   6.227
 8268WAT    EPW33794   2.078   2.429   6.176
 8269WAT      O33795   2.493   2.328   6.869
 8269WAT     H133796   2.540   2.357   6.937
 8269WAT     H233797   2.551   2.281   6.824
 8269WAT    EPW33798   2.509   2.326   6.873
 8270WAT      O33799   3.337   1.530   6.643
 8270WAT     H133800   3.371   1.545   6.722
 8270WAT     H233801   3.292   1.456   6.654
 8270WAT    EPW33802   3.335   1.521   6.656
 8271WAT      O33803   2.056   2.273   5.923
 8271WAT     H133804   2.132   2.230   5.929
 8271WAT     H233805   2.058   2.327   5.992
 8271WAT    EPW33806   2.067   2.275   5.934
 8272WAT      O33807   2.150   2.095   6.724
 8272WAT     H133808   2.193   2.083   6.649
 8272WAT     H233809   2.130   2.180   6.721
 8272WAT    EPW33810   2.153   2.106   6.712
 8273WAT      O33811   2.785   1.452   6.089
 8273WAT     H133812   2.784   1.440   6.002
 8273WAT     H233813   2.767   1.537   6.098
 8273WAT    EPW33814   2.782   1.463   6.077
 8274WAT      O33815   3.690   2.695   7.239
 8274WAT     H133816   3.623   2.746   7.260
 8274WAT     H233817   3.696   2.705   7.152
 8274WAT    EPW33818   3.681   2.704   7.229
 8275WAT      O33819   2.558   2.447   6.552
 8275WAT     H133820   2.571   2.531   6.571
 8275WAT     H233821   2.625   2.407   6.592
 8275WAT    EPW33822   2.570   2.454   6.561
 8276WAT      O33823   2.371   1.795   7.538
 8276WAT     H133824   2.318   1.745   7.585
 8276WAT     H233825   2.373   1.756   7.460
 8276WAT    EPW33826   2.364   1.782   7.534
 8277WAT      O33827   2.420   1.735   6.052
 8277WAT     H133828   2.407   1.690   6.126
 8277WAT     H233829   2.362   1.701   5.997
 8277WAT    EPW33830   2.409   1.723   6.055
 8278WAT      O33831   2.437   1.918   6.712
 8278WAT     H133832   2.359   1.912   6.674
 8278WAT     H233833   2.444   1.843   6.756
 8278WAT    EPW33834   2.426   1.906   6.713
 8279WAT      O33835   2.480   1.892   7.059
 8279WAT     H133836   2.482   1.824   7.004
 8279WAT     H233837   2.415   1.941   7.028
 8279WAT    EPW33838   2.471   1.889   7.046
 8280WAT      O33839   3.469   1.663   6.899
 8280WAT     H133840   3.403   1.696   6.945
 8280WAT     H233841   3.488   1.726   6.842
 8280WAT    EPW33842   3.462   1.677   6.897
 8281WAT      O33843   2.890   2.769   6.998
 8281WAT     H133844   2.862   2.705   6.946
 8281WAT     H233845   2.869   2.842   6.954
 8281WAT    EPW33846   2.883   2.771   6.984
 8282WAT      O33847   3.134   1.254   7.241
 8282WAT     H133848   3.149   1.171   7.217
 8282WAT     H233849   3.172   1.259   7.320
 8282WAT    EPW33850   3.141   1.242   7.249
 8283WAT      O33851   3.288   1.460   6.250
 8283WAT     H133852   3.337   1.532   6.242
 8283WAT     H233853   3.209   1.486   6.223
 8283WAT    EPW33854   3.284   1.474   6.245
 8284WAT      O33855   2.260   2.027   7.615
 8284WAT     H133856   2.256   2.077   7.543
 8284WAT     H233857   2.293   1.952   7.585
 8284WAT    EPW33858   2.264   2.023   7.600
 8285WAT      O33859   3.420   2.248   7.441
 8285WAT     H133860   3.468   2.320   7.450
 8285WAT     H233861   3.459   2.205   7.376
 8285WAT    EPW33862   3.433   2.252   7.432
 8286WAT      O33863   2.849   2.532   7.558
 8286WAT     H133864   2.885   2.514   7.636
 8286WAT     H233865   2.806   2.459   7.538
 8286WAT    EPW33866   2.848   2.519   7.567
 8287WAT      O33867   2.947   1.607   6.822
 8287WAT     H133868   2.995   1.677   6.843
 8287WAT     H233869   2.984   1.542   6.867
 8287WAT    EPW33870   2.959   1.608   6.832
 8288WAT      O33871   3.166   1.924   6.050
 8288WAT     H133872   3.165   1.996   6.001
 8288WAT     H233873   3.102   1.937   6.107
 8288WAT    EPW33874   3.156   1.937   6.051
 8289WAT      O33875   3.663   2.311   6.448
 8289WAT     H133876   3.698   2.276   6.519
 8289WAT     H233877   3.662   2.245   6.391
 8289WAT    EPW33878   3.668   2.296   6.450
 8290WAT      O33879   3.267   2.617   6.832
 8290WAT     H133880   3.207   2.588   6.776
 8290WAT     H233881   3.322   2.663   6.781
 8290WAT    EPW33882   3.266   2.620   6.816
 8291WAT      O33883   3.269   2.303   6.772
 8291WAT     H133884   3.189   2.325   6.799
 8291WAT     H233885   3.294   2.243   6.831
 8291WAT    EPW33886   3.261   2.297   6.785
 8292WAT      O33887   2.658   2.784   6.217
 8292WAT     H133888   2.643   2.706   6.254
 8292WAT     H233889   2.727   2.769   6.165
 8292WAT    EPW33890   2.666   2.770   6.215
 8293WAT      O33891   2.625   1.158   6.016
 8293WAT     H133892   2.635   1.147   6.102
 8293WAT     H233893   2.554   1.209   6.009
 8293WAT    EPW33894   2.616   1.164   6.027
 8294WAT      O33895   2.887   2.735   6.057
 8294WAT     H133896   2.949   2.752   6.116
 8294WAT     H233897   2.891   2.804   6.004
 8294WAT    EPW33898   2.897   2.748   6.058
 8295WAT      O33899   3.595   2.102   7.257
 8295WAT     H133900   3.600   2.115   7.170
 8295WAT     H233901   3.670   2.134   7.287
 8295WAT    EPW33902   3.606   2.109   7.248
 8296WAT      O33903   3.698   1.132   7.555
 8296WAT     H133904   3.634   1.092   7.511
 8296WAT     H233905   3.700   1.089   7.631
 8296WAT    EPW33906   3.689   1.120   7.560
 8297WAT      O33907   2.337   1.989   6.140
 8297WAT     H133908   2.369   1.911   6.118
 8297WAT     H233909   2.402   2.026   6.185
 8297WAT    EPW33910   2.351   1.983   6.143
 8298WAT      O33911   3.168   2.083   7.217
 8298WAT     H133912   3.152   2.144   7.277
 8298WAT     H233913   3.221   2.027   7.257
 8298WAT    EPW33914   3.173   2.084   7.232
 8299WAT      O33915   2.037   1.155   6.237
 8299WAT     H133916   2.050   1.084   6.188
 8299WAT     H233917   2.000   1.123   6.309
 8299WAT    EPW33918   2.033   1.140   6.240
 8300WAT      O33919   3.006   1.923   6.282
 8300WAT     H133920   3.012   1.988   6.340
 8300WAT     H233921   2.987   1.853   6.332
 8300WAT    EPW33922   3.004   1.922   6.298
 8301WAT      O33923   3.529   2.356   6.869
 8301WAT     H133924   3.481   2.386   6.803
 8301WAT     H233925   3.493   2.278   6.887
 8301WAT    EPW33926   3.516   2.349   6.862
 8302WAT      O33927   2.456   1.375   5.934
 8302WAT     H133928   2.405   1.380   5.863
 8302WAT     H233929   2.534   1.399   5.904
 8302WAT    EPW33930   2.460   1.379   5.919
 8303WAT      O33931   2.928   2.128   6.726
 8303WAT     H133932   2.844   2.108   6.734
 8303WAT     H233933   2.961   2.111   6.805
 8303WAT    EPW33934   2.921   2.122   6.738
 8304WAT      O33935   2.604   2.801   5.814
 8304WAT     H133936   2.647   2.731   5.843
 8304WAT     H233937   2.624   2.863   5.871
 8304WAT    EPW33938   2.613   2.800   5.827
 8305WAT      O33939   2.313   2.097   6.957
 8305WAT     H133940   2.385   2.146   6.953
 8305WAT     H233941   2.286   2.094   6.874
 8305WAT    EPW33942   2.320   2.104   6.944
 8306WAT      O33943   2.636   1.614   6.631
 8306WAT     H133944   2.721   1.595   6.640
 8306WAT     H233945   2.599   1.536   6.617
 8306WAT    EPW33946   2.643   1.600   6.630
 8307WAT      O33947   3.898   2.772   6.063
 8307WAT     H133948   3.967   2.726   6.039
 8307WAT     H233949   3.844   2.713   6.097
 8307WAT    EPW33950   3.900   2.757   6.065
 8308WAT      O33951   2.118   1.748   6.296
 8308WAT     H133952   2.167   1.719   6.362
 8308WAT     H233953   2.131   1.689   6.233
 8308WAT    EPW33954   2.127   1.735   6.297
 8309WAT      O33955   3.622   2.050   6.981
 8309WAT     H133956   3.621   1.972   7.021
 8309WAT     H233957   3.538   2.073   6.981
 8309WAT    EPW33958   3.609   2.042   6.987
 8310WAT      O33959   2.571   1.891   5.845
 8310WAT     H133960   2.510   1.851   5.892
 8310WAT     H233961   2.532   1.903   5.767
 8310WAT    EPW33962   2.556   1.887   5.840
 8311WAT      O33963   2.253   2.202   7.385
 8311WAT     H133964   2.211   2.150   7.329
 8311WAT     H233965   2.217   2.281   7.371
 8311WAT    EPW33966   2.241   2.206   7.375
 8312WAT      O33967   3.747   2.057   6.725
 8312WAT     H133968   3.719   2.097   6.797
 8312WAT     H233969   3.833   2.051   6.738
 8312WAT    EPW33970   3.756   2.062   6.737
 8313WAT      O33971   2.716   1.737   6.116
 8313WAT     H133972   2.743   1.820   6.122
 8313WAT     H233973   2.630   1.745   6.106
 8313WAT    EPW33974   2.708   1.751   6.115
 8314WAT      O33975   3.514   1.450   7.579
 8314WAT     H133976   3.461   1.495   7.631
 8314WAT     H233977   3.477   1.370   7.578
 8314WAT    EPW33978   3.500   1.445   7.587
 8315WAT      O33979   2.064   1.334   6.769
 8315WAT     H133980   2.069   1.369   6.689
 8315WAT     H233981   2.140   1.358   6.806
 8315WAT    EPW33982   2.076   1.343   6.763
 8316WAT      O33983   3.860   2.620   6.778
 8316WAT     H133984   3.889   2.646   6.700
 8316WAT     H233985   3.930   2.630   6.830
 8316WAT    EPW33986   3.875   2.626   6.774
 8317WAT      O33987   3.363   1.806   7.587
 8317WAT     H133988   3.370   1.817   7.673
 8317WAT     H233989   3.299   1.862   7.564
 8317WAT    EPW33990   3.354   1.816   7.596
 8318WAT      O33991   3.590   1.838   7.423
 8318WAT     H133992   3.621   1.917   7.443
 8318WAT     H233993   3.553   1.811   7.497
 8318WAT    EPW33994   3.589   1.846   7.437
 8319WAT      O33995   3.521   2.481   5.976
 8319WAT     H133996   3.554   2.400   5.980
 8319WAT     H233997   3.445   2.474   6.019
 8319WAT    EPW33998   3.515   2.468   5.983
 8320WAT      O33999   3.569   1.664   6.542
 8320WAT     H134000   3.495   1.632   6.574
 8320WAT     H234001   3.569   1.747   6.570
 8320WAT    EPW34002   3.558   1.672   6.551
 8321WAT      O34003   3.813   2.260   7.317
 8321WAT     H134004   3.876   2.205   7.292
 8321WAT     H234005   3.807   2.317   7.251
 8321WAT    EPW34006   3.822   2.260   7.304
 8322WAT      O34007   3.258   2.268   5.916
 8322WAT     H134008   3.327   2.217   5.899
 8322WAT     H234009   3.217   2.273   5.840
 8322WAT    EPW34010   3.262   2.261   5.903
 8323WAT      O34011   2.727   2.383   7.047
 8323WAT     H134012   2.697   2.442   7.103
 8323WAT     H234013   2.732   2.427   6.972
 8323WAT    EPW34014   2.723   2.399   7.044
 8324WAT      O34015   2.524   2.278   7.387
 8324WAT     H134016   2.444   2.249   7.403
 8324WAT     H234017   2.516   2.365   7.387
 8324WAT    EPW34018   2.511   2.287   7.389
 8325WAT      O34019   3.460   1.297   7.288
 8325WAT     H134020   3.535   1.342   7.282
 8325WAT     H234021   3.404   1.344   7.241
 8325WAT    EPW34022   3.463   1.311   7.280
 8326WAT      O34023   2.978   2.026   6.996
 8326WAT     H134024   3.026   2.063   7.059
 8326WAT     H234025   2.896   2.039   7.022
 8326WAT    EPW34026   2.973   2.033   7.009
 8327WAT      O34027   2.649   1.586   7.270
 8327WAT     H134028   2.665   1.511   7.313
 8327WAT     H234029   2.645   1.561   7.186
 8327WAT    EPW34030   2.651   1.571   7.264
 8328WAT      O34031   2.905   2.765   6.519
 8328WAT     H134032   2.959   2.833   6.524
 8328WAT     H234033   2.870   2.773   6.439
 8328WAT    EPW34034   2.907   2.776   6.508
 8329WAT      O34035   3.589   1.095   7.055
 8329WAT     H134036   3.561   1.178   7.051
 8329WAT     H234037   3.660   1.100   7.105
 8329WAT    EPW34038   3.595   1.108   7.062
 8330WAT      O34039   2.824   1.167   7.258
 8330WAT     H134040   2.895   1.199   7.218
 8330WAT     H234041   2.848   1.086   7.281
 8330WAT    EPW34042   2.838   1.159   7.255
 8331WAT      O34043   2.723   2.588   6.858
 8331WAT     H134044   2.660   2.646   6.839
 8331WAT     H234045   2.748   2.559   6.779
 8331WAT    EPW34046   2.717   2.592   6.843
 8332WAT      O34047   3.154   2.251   7.556
 8332WAT     H134048   3.229   2.280   7.524
 8332WAT     H234049   3.099   2.256   7.489
 8332WAT    EPW34050   3.157   2.256   7.542
 8333WAT      O34051   3.545   2.506   7.407
 8333WAT     H134052   3.579   2.533   7.482
 8333WAT     H234053   3.574   2.564   7.349
 8333WAT    EPW34054   3.554   2.519   7.409
 8334WAT      O34055   3.731   1.721   5.941
 8334WAT     H134056   3.769   1.788   5.901
 8334WAT     H234057   3.647   1.743   5.944
 8334WAT    EPW34058   3.724   1.734   5.935
 8335WAT      O34059   2.882   2.065   5.849
 8335WAT     H134060   2.802   2.048   5.821
 8335WAT     H234061   2.879   2.150   5.868
 8335WAT    EPW34062   2.870   2.075   5.848
 8336WAT      O34063   2.475   1.672   6.864
 8336WAT     H134064   2.519   1.662   6.789
 8336WAT     H234065   2.530   1.641   6.925
 8336WAT    EPW34066   2.490   1.666   6.862
 8337WAT      O34067   3.277   1.582   7.423
 8337WAT     H134068   3.212   1.629   7.458
 8337WAT     H234069   3.333   1.573   7.489
 8337WAT    EPW34070   3.276   1.588   7.438
 8338WAT      O34071   3.246   1.736   7.053
 8338WAT     H134072   3.276   1.778   7.123
 8338WAT     H234073   3.249   1.652   7.076
 8338WAT    EPW34074   3.251   1.730   7.067
 8339WAT      O34075   2.988   2.753   7.446
 8339WAT     H134076   3.036   2.693   7.404
 8339WAT     H234077   2.953   2.708   7.512
 8339WAT    EPW34078   2.990   2.737   7.449
 8340WAT      O34079   3.500   1.681   6.278
 8340WAT     H134080   3.521   1.660   6.361
 8340WAT     H234081   3.576   1.707   6.244
 8340WAT    EPW34082   3.515   1.682   6.285
 8341WAT      O34083   2.830   1.170   6.869
 8341WAT     H134084   2.747   1.156   6.892
 8341WAT     H234085   2.826   1.174   6.782
 8341WAT    EPW34086   2.817   1.169   6.859
 8342WAT      O34087   3.603   1.289   6.426
 8342WAT     H134088   3.531   1.242   6.443
 8342WAT     H234089   3.586   1.323   6.347
 8342WAT    EPW34090   3.590   1.287   6.417
 8343WAT      O34091   3.647   2.083   6.264
 8343WAT     H134092   3.695   2.010   6.259
 8343WAT     H234093   3.565   2.055   6.256
 8343WAT    EPW34094   3.642   2.068   6.262
 8344WAT      O34095   2.994   2.274   7.348
 8344WAT     H134096   2.915   2.268   7.383
 8344WAT     H234097   3.001   2.359   7.328
 8344WAT    EPW34098   2.983   2.286   7.350
 8345WAT      O34099   2.086   1.210   7.472
 8345WAT     H134100   2.072   1.290   7.439
 8345WAT     H234101   2.008   1.186   7.501
 8345WAT    EPW34102   2.073   1.218   7.472
 8346WAT      O34103   2.577   2.895   6.879
 8346WAT     H134104   2.578   2.901   6.966
 8346WAT     H234105   2.535   2.820   6.864
 8346WAT    EPW34106   2.571   2.885   6.890
 8347WAT      O34107   2.393   1.485   6.195
 8347WAT     H134108   2.405   1.452   6.115
 8347WAT     H234109   2.312   1.460   6.215
 8347WAT    EPW34110   2.383   1.476   6.186
 8348WAT      O34111   3.269   2.200   6.499
 8348WAT     H134112   3.276   2.234   6.579
 8348WAT     H234113   3.285   2.115   6.511
 8348WAT    EPW34114   3.272   2.192   6.513
 8349WAT      O34115   3.021   2.127   6.456
 8349WAT     H134116   2.991   2.096   6.531
 8349WAT     H234117   3.090   2.175   6.479
 8349WAT    EPW34118   3.027   2.130   6.470
 8350WAT      O34119   3.043   2.539   7.258
 8350WAT     H134120   3.112   2.528   7.311
 8350WAT     H234121   3.056   2.618   7.224
 8350WAT    EPW34122   3.055   2.549   7.261
 8351WAT      O34123   3.861   1.800   7.439
 8351WAT     H134124   3.775   1.788   7.452
 8351WAT     H234125   3.876   1.761   7.363
 8351WAT    EPW34126   3.850   1.792   7.430
 8352WAT      O34127   3.312   1.867   7.297
 8352WAT     H134128   3.286   1.795   7.339
 8352WAT     H234129   3.394   1.878   7.324
 8352WAT    EPW34130   3.320   1.858   7.307
 8353WAT      O34131   2.253   2.845   7.423
 8353WAT     H134132   2.188   2.788   7.433
 8353WAT     H234133   2.216   2.922   7.439
 8353WAT    EPW34134   2.238   2.848   7.427
 8354WAT      O34135   3.105   1.986   7.616
 8354WAT     H134136   3.138   2.054   7.573
 8354WAT     H234137   3.035   2.018   7.656
 8354WAT    EPW34138   3.100   2.000   7.615
 8355WAT      O34139   3.414   2.823   6.709
 8355WAT     H134140   3.369   2.887   6.747
 8355WAT     H234141   3.484   2.815   6.759
 8355WAT    EPW34142   3.417   2.831   6.722
 8356WAT      O34143   3.084   2.332   7.002
 8356WAT     H134144   3.014   2.372   7.036
 8356WAT     H234145   3.151   2.375   7.036
 8356WAT    EPW34146   3.083   2.344   7.012
 8357WAT      O34147   2.391   1.686   7.236
 8357WAT     H134148   2.428   1.748   7.188
 8357WAT     H234149   2.458   1.638   7.265
 8357WAT    EPW34150   2.406   1.688   7.233
 8358WAT      O34151   2.168   1.531   7.164
 8358WAT     H134152   2.176   1.514   7.079
 8358WAT     H234153   2.243   1.571   7.184
 8358WAT    EPW34154   2.180   1.534   7.154
 8359WAT      O34155   3.724   1.795   6.208
 8359WAT     H134156   3.734   1.789   6.121
 8359WAT     H234157   3.798   1.761   6.240
 8359WAT    EPW34158   3.736   1.789   6.200
 8360WAT      O34159   2.423   1.272   7.405
 8360WAT     H134160   2.415   1.187   7.426
 8360WAT     H234161   2.392   1.276   7.324
 8360WAT    EPW34162   2.418   1.260   7.396
 8361WAT      O34163   3.116   2.491   6.319
 8361WAT     H134164   3.095   2.574   6.303
 8361WAT     H234165   3.038   2.453   6.331
 8361WAT    EPW34166   3.101   2.498   6.318
 8362WAT      O34167   3.634   1.809   7.143
 8362WAT     H134168   3.634   1.723   7.156
 8362WAT     H234169   3.641   1.842   7.224
 8362WAT    EPW34170   3.635   1.801   7.157
 8363WAT      O34171   2.108   2.053   7.186
 8363WAT     H134172   2.140   2.075   7.108
 8363WAT     H234173   2.098   1.967   7.181
 8363WAT    EPW34174   2.111   2.044   7.174
 8364WAT      O34175   2.253   1.647   5.848
 8364WAT     H134176   2.186   1.648   5.904
 8364WAT     H234177   2.263   1.562   5.830
 8364WAT    EPW34178   2.245   1.634   5.854
 8365WAT      O34179   3.222   1.289   7.522
 8365WAT     H134180   3.231   1.360   7.571
 8365WAT     H234181   3.158   1.245   7.561
 8365WAT    EPW34182   3.214   1.293   7.535
 8366WAT      O34183   3.121   1.308   6.607
 8366WAT     H134184   3.051   1.360   6.601
 8366WAT     H234185   3.125   1.270   6.529
 8366WAT    EPW34186   3.112   1.310   6.595
 8367WAT      O34187   2.652   2.517   5.959
 8367WAT     H134188   2.696   2.525   6.034
 8367WAT     H234189   2.572   2.496   5.985
 8367WAT    EPW34190   2.647   2.515   5.974
 8368WAT      O34191   3.481   1.360   6.887
 8368WAT     H134192   3.567   1.370   6.902
 8368WAT     H234193   3.444   1.415   6.944
 8368WAT    EPW34194   3.488   1.369   6.898
 8369WAT      O34195   2.584   1.982   7.325
 8369WAT     H134196   2.544   2.060   7.332
 8369WAT     H234197   2.543   1.945   7.257
 8369WAT    EPW34198   2.572   1.988   7.316
 8370WAT      O34199   3.512   1.888   6.736
 8370WAT     H134200   3.578   1.942   6.752
 8370WAT     H234201   3.477   1.919   6.662
 8370WAT    EPW34202   3.516   1.900   6.728
 8371WAT      O34203   3.543   2.694   6.317
 8371WAT     H134204   3.526   2.629   6.372
 8371WAT     H234205   3.614   2.667   6.275
 8371WAT    EPW34206   3.551   2.681   6.319
 8372WAT      O34207   2.385   2.424   6.020
 8372WAT     H134208   2.361   2.394   6.098
 8372WAT     H234209   2.382   2.354   5.968
 8372WAT    EPW34210   2.381   2.409   6.023
 8373WAT      O34211   2.667   2.249   5.894
 8373WAT     H134212   2.585   2.222   5.908
 8373WAT     H234213   2.664   2.334   5.912
 8373WAT    EPW34214   2.654   2.257   5.899
 8374WAT      O34215   2.627   1.280   7.070
 8374WAT     H134216   2.541   1.288   7.078
 8374WAT     H234217   2.649   1.229   7.137
 8374WAT    EPW34218   2.617   1.274   7.081
 8375WAT      O34219   3.829   1.144   7.203
 8375WAT     H134220   3.824   1.139   7.290
 8375WAT     H234221   3.897   1.093   7.184
 8375WAT    EPW34222   3.838   1.136   7.213
 8376WAT      O34223   3.037   1.355   6.907
 8376WAT     H134224   2.964   1.309   6.918
 8376WAT     H234225   3.094   1.315   6.959
 8376WAT    EPW34226   3.035   1.342   6.917
 8377WAT      O34227   3.310   2.440   7.086
 8377WAT     H134228   3.331   2.470   7.165
 8377WAT     H234229   3.304   2.512   7.037
 8377WAT    EPW34230   3.313   2.455   7.090
 8378WAT      O34231   3.264   2.861   7.511
 8378WAT     H134232   3.189   2.859   7.466
 8378WAT     H234233   3.281   2.946   7.519
 8378WAT    EPW34234   3.255   2.873   7.505
 8379WAT      O34235   2.788   1.788   7.428
 8379WAT     H134236   2.755   1.730   7.371
 8379WAT     H234237   2.752   1.863   7.403
 8379WAT    EPW34238   2.778   1.790   7.416
 8380WAT      O34239   2.867   1.113   5.890
 8380WAT     H134240   2.875   1.138   5.807
 8380WAT     H234241   2.793   1.151   5.916
 8380WAT    EPW34242   2.857   1.122   5.882
 8381WAT      O34243   3.792   2.304   7.032
 8381WAT     H134244   3.788   2.217   7.018
 8381WAT     H234245   3.722   2.334   6.988
 8381WAT    EPW34246   3.781   2.295   7.023
 8382WAT      O34247   2.631   2.823   7.452
 8382WAT     H134248   2.635   2.836   7.539
 8382WAT     H234249   2.696   2.767   7.437
 8382WAT    EPW34250   2.641   2.817   7.463
 8383WAT      O34251   3.602   2.630   6.911
 8383WAT     H134252   3.655   2.621   6.842
 8383WAT     H234253   3.563   2.552   6.917
 8383WAT    EPW34254   3.604   2.617   6.902
 8384WAT      O34255   2.349   1.288   7.135
 8384WAT     H134256   2.315   1.212   7.111
 8384WAT     H234257   2.279   1.341   7.141
 8384WAT    EPW34258   2.334   1.285   7.132
 8385WAT      O34259   3.254   1.174   6.832
 8385WAT     H134260   3.321   1.228   6.845
 8385WAT     H234261   3.203   1.216   6.775
 8385WAT    EPW34262   3.256   1.188   6.826
 8386WAT      O34263   2.390   2.662   7.588
 8386WAT     H134264   2.450   2.705   7.636
 8386WAT     H234265   2.354   2.724   7.539
 8386WAT    EPW34266   2.394   2.677   7.588
 8387WAT      O34267   3.189   1.755   6.582
 8387WAT     H134268   3.245   1.694   6.612
 8387WAT     H234269   3.147   1.781   6.653
 8387WAT    EPW34270   3.191   1.750   6.596
 8388WAT      O34271   2.214   1.620   6.530
 8388WAT     H134272   2.177   1.650   6.603
 8388WAT     H234273   2.268   1.557   6.559
 8388WAT    EPW34274   2.217   1.615   6.545
 8389WAT      O34275   2.183   2.461   7.281
 8389WAT     H134276   2.126   2.502   7.332
 8389WAT     H234277   2.256   2.507   7.291
 8389WAT    EPW34278   2.185   2.474   7.290
 8390WAT      O34279   3.386   1.938   6.238
 8390WAT     H134280   3.393   1.853   6.256
 8390WAT     H234281   3.304   1.946   6.210
 8390WAT    EPW34282   3.375   1.927   6.236
 8391WAT      O34283   2.362   2.787   6.159
 8391WAT     H134284   2.347   2.803   6.074
 8391WAT     H234285   2.448   2.795   6.167
 8391WAT    EPW34286   2.372   2.791   6.147
 8392WAT      O34287   2.778   2.027   6.132
 8392WAT     H134288   2.788   2.041   6.046
 8392WAT     H234289   2.860   2.021   6.161
 8392WAT    EPW34290   2.792   2.028   6.123
 8393WAT      O34291   3.694   2.833   5.880
 8393WAT     H134292   3.758   2.820   5.938
 8393WAT     H234293   3.660   2.754   5.868
 8393WAT    EPW34294   3.699   2.820   5.886
 8394WAT      O34295   3.714   2.075   7.553
 8394WAT     H134296   3.777   2.058   7.610
 8394WAT     H234297   3.756   2.115   7.488
 8394WAT    EPW34298   3.729   2.079   7.552
 8395WAT      O34299   3.302   2.460   6.112
 8395WAT     H134300   3.277   2.447   6.194
 8395WAT     H234301   3.270   2.390   6.070
 8395WAT    EPW34302   3.293   2.448   6.118
 8396WAT      O34303   3.776   1.532   7.627
 8396WAT     H134304   3.757   1.596   7.682
 8396WAT     H234305   3.704   1.483   7.626
 8396WAT    EPW34306   3.763   1.534   7.635
 8397WAT      O34307   3.766   1.626   6.924
 8397WAT     H134308   3.683   1.651   6.917
 8397WAT     H234309   3.761   1.542   6.947
 8397WAT    EPW34310   3.753   1.617   6.926
 8398WAT      O34311   2.692   1.324   7.443
 8398WAT     H134312   2.716   1.267   7.382
 8398WAT     H234313   2.608   1.306   7.457
 8398WAT    EPW34314   2.683   1.313   7.436
 8399WAT      O34315   3.455   2.086   7.688
 8399WAT     H134316   3.542   2.083   7.685
 8399WAT     H234317   3.433   2.128   7.615
 8399WAT    EPW34318   3.465   2.092   7.677
 8400WAT      O34319   2.430   2.669   6.806
 8400WAT     H134320   2.422   2.588   6.775
 8400WAT     H234321   2.386   2.717   6.749
 8400WAT    EPW34322   2.423   2.664   6.793
 8401WAT      O34323   2.990   2.281   6.055
 8401WAT     H134324   3.062   2.246   6.019
 8401WAT     H234325   2.987   2.361   6.020
 8401WAT    EPW34326   3.001   2.287   6.044
 8402WAT      O34327   2.188   2.893   7.165
 8402WAT     H134328   2.237   2.888   7.236
 8402WAT     H234329   2.206   2.820   7.121
 8402WAT    EPW34330   2.198   2.881   7.169
 8403WAT      O34331   3.131   1.145   4.479
 8403WAT     H134332   3.107   1.194   4.411
 8403WAT     H234333   3.218   1.137   4.469
 8403WAT    EPW34334   3.140   1.151   4.467
 8404WAT      O34335   3.112   1.836   4.946
 8404WAT     H134336   3.060   1.896   4.982
 8404WAT     H234337   3.152   1.800   5.014
 8404WAT    EPW34338   3.110   1.840   4.961
 8405WAT      O34339   2.099   2.250   4.491
 8405WAT     H134340   2.055   2.262   4.566
 8405WAT     H234341   2.071   2.173   4.463
 8405WAT    EPW34342   2.088   2.241   4.498
 8406WAT      O34343   2.073   1.630   4.142
 8406WAT     H134344   1.996   1.646   4.106
 8406WAT     H234345   2.077   1.542   4.144
 8406WAT    EPW34346   2.063   1.619   4.137
 8407WAT      O34347   2.387   2.156   4.009
 8407WAT     H134348   2.348   2.119   3.941
 8407WAT     H234349   2.379   2.096   4.072
 8407WAT    EPW34350   2.380   2.142   4.008
 8408WAT      O34351   3.379   1.943   4.613
 8408WAT     H134352   3.387   1.943   4.526
 8408WAT     H234353   3.321   1.880   4.628
 8408WAT    EPW34354   3.372   1.934   4.603
 8409WAT      O34355   2.350   2.320   4.399
 8409WAT     H134356   2.411   2.303   4.460
 8409WAT     H234357   2.275   2.306   4.441
 8409WAT    EPW34358   2.348   2.315   4.414
 8410WAT      O34359   2.778   1.253   4.394
 8410WAT     H134360   2.771   1.321   4.340
 8410WAT     H234361   2.852   1.215   4.369
 8410WAT    EPW34362   2.788   1.258   4.382
 8411WAT      O34363   2.239   2.629   4.007
 8411WAT     H134364   2.286   2.637   3.934
 8411WAT     H234365   2.285   2.571   4.054
 8411WAT    EPW34366   2.253   2.622   4.003
 8412WAT      O34367   2.093   2.524   5.117
 8412WAT     H134368   2.106   2.496   5.198
 8412WAT     H234369   2.032   2.470   5.086
 8412WAT    EPW34370   2.086   2.512   5.124
 8413WAT      O34371   2.751   2.276   5.624
 8413WAT     H134372   2.727   2.276   5.708
 8413WAT     H234373   2.676   2.262   5.581
 8413WAT    EPW34374   2.736   2.274   5.630
 8414WAT      O34375   2.238   1.976   4.537
 8414WAT     H134376   2.192   1.937   4.474
 8414WAT     H234377   2.308   1.925   4.546
 8414WAT    EPW34378   2.241   1.963   4.529
 8415WAT      O34379   2.689   1.537   5.072
 8415WAT     H134380   2.756   1.539   5.017
 8415WAT     H234381   2.684   1.453   5.096
 8415WAT    EPW34382   2.698   1.525   5.067
 8416WAT      O34383   2.749   2.596   5.350
 8416WAT     H134384   2.763   2.672   5.309
 8416WAT     H234385   2.828   2.559   5.353
 8416WAT    EPW34386   2.762   2.601   5.344
 8417WAT      O34387   2.438   1.786   4.539
 8417WAT     H134388   2.520   1.767   4.564
 8417WAT     H234389   2.390   1.725   4.579
 8417WAT    EPW34390   2.443   1.774   4.549
 8418WAT      O34391   2.858   2.384   4.800
 8418WAT     H134392   2.893   2.304   4.803
 8418WAT     H234393   2.925   2.434   4.775
 8418WAT    EPW34394   2.873   2.380   4.797
 8419WAT      O34395   2.864   2.329   4.421
 8419WAT     H134396   2.897   2.265   4.470
 8419WAT     H234397   2.888   2.308   4.340
 8419WAT    EPW34398   2.872   2.316   4.417
 8420WAT      O34399   3.061   1.742   5.555
 8420WAT     H134400   2.976   1.732   5.538
 8420WAT     H234401   3.064   1.817   5.601
 8420WAT    EPW34402   3.049   1.752   5.559
 8421WAT      O34403   2.498   1.295   4.466
 8421WAT     H134404   2.468   1.345   4.401
 8421WAT     H234405   2.584   1.303   4.460
 8421WAT    EPW34406   2.506   1.304   4.456
 8422WAT      O34407   3.517   1.038   5.467
 8422WAT     H134408   3.501   1.115   5.429
 8422WAT     H234409   3.439   1.016   5.501
 8422WAT    EPW34410   3.503   1.046   5.466
 8423WAT      O34411   2.795   1.210   4.688
 8423WAT     H134412   2.803   1.296   4.701
 8423WAT     H234413   2.792   1.202   4.601
 8423WAT    EPW34414   2.796   1.221   4.677
 8424WAT      O34415   3.263   1.502   3.918
 8424WAT     H134416   3.218   1.570   3.949
 8424WAT     H234417   3.274   1.452   3.988
 8424WAT    EPW34418   3.258   1.505   3.933
 8425WAT      O34419   2.083   1.752   4.838
 8425WAT     H134420   2.058   1.835   4.831
 8425WAT     H234421   2.017   1.714   4.880
 8425WAT    EPW34422   2.070   1.759   4.843
 8426WAT      O34423   2.074   2.723   4.628
 8426WAT     H134424   2.015   2.779   4.597
 8426WAT     H234425   2.117   2.696   4.557
 8426WAT    EPW34426   2.072   2.727   4.613
 8427WAT      O34427   2.658   2.507   4.376
 8427WAT     H134428   2.600   2.480   4.436
 8427WAT     H234429   2.721   2.447   4.379
 8427WAT    EPW34430   2.659   2.494   4.385
 8428WAT      O34431   2.386   1.234   4.887
 8428WAT     H134432   2.334   1.171   4.857
 8428WAT     H234433   2.445   1.190   4.935
 8428WAT    EPW34434   2.387   1.218   4.890
 8429WAT      O34435   2.717   1.447   5.817
 8429WAT     H134436   2.729   1.402   5.744
 8429WAT     H234437   2.746   1.527   5.797
 8429WAT    EPW34438   2.723   1.452   5.803
 8430WAT      O34439   2.229   2.590   4.421
 8430WAT     H134440   2.294   2.533   4.423
 8430WAT     H234441   2.268   2.665   4.399
 8430WAT    EPW34442   2.244   2.593   4.418
 8431WAT      O34443   3.802   1.499   4.548
 8431WAT     H134444   3.768   1.567   4.590
 8431WAT     H234445   3.739   1.440   4.549
 8431WAT    EPW34446   3.788   1.501   4.554
 8432WAT      O34447   2.290   1.407   5.716
 8432WAT     H134448   2.212   1.368   5.708
 8432WAT     H234449   2.339   1.366   5.657
 8432WAT    EPW34450   2.286   1.395   5.706
 8433WAT      O34451   2.311   2.439   4.771
 8433WAT     H134452   2.353   2.403   4.704
 8433WAT     H234453   2.343   2.397   4.841
 8433WAT    EPW34454   2.322   2.427   4.772
 8434WAT      O34455   2.634   2.724   4.701
 8434WAT     H134456   2.718   2.734   4.682
 8434WAT     H234457   2.604   2.806   4.708
 8434WAT    EPW34458   2.642   2.738   4.699
 8435WAT      O34459   2.955   1.171   5.632
 8435WAT     H134460   2.973   1.090   5.605
 8435WAT     H234461   2.941   1.215   5.559
 8435WAT    EPW34462   2.956   1.166   5.617
 8436WAT      O34463   3.014   1.664   4.510
 8436WAT     H134464   3.043   1.640   4.431
 8436WAT     H234465   3.088   1.672   4.557
 8436WAT    EPW34466   3.029   1.661   4.505
 8437WAT      O34467   3.087   1.698   4.022
 8437WAT     H134468   3.115   1.776   4.047
 8437WAT     H234469   3.009   1.714   3.986
 8437WAT    EPW34470   3.079   1.712   4.020
 8438WAT      O34471   2.534   2.846   5.275
 8438WAT     H134472   2.563   2.839   5.357
 8438WAT     H234473   2.471   2.785   5.271
 8438WAT    EPW34474   2.529   2.836   5.287
 8439WAT      O34475   3.770   1.332   5.085
 8439WAT     H134476   3.845   1.339   5.042
 8439WAT     H234477   3.776   1.254   5.124
 8439WAT    EPW34478   3.782   1.321   5.084
 8440WAT      O34479   2.025   1.462   5.474
 8440WAT     H134480   2.025   1.520   5.539
 8440WAT     H234481   2.084   1.493   5.419
 8440WAT    EPW34482   2.034   1.475   5.476
 8441WAT      O34483   3.259   2.495   5.528
 8441WAT     H134484   3.255   2.533   5.607
 8441WAT     H234485   3.344   2.491   5.511
 8441WAT    EPW34486   3.271   2.500   5.538
 8442WAT      O34487   3.323   1.304   4.109
 8442WAT     H134488   3.377   1.236   4.116
 8442WAT     H234489   3.329   1.344   4.186
 8442WAT    EPW34490   3.332   1.300   4.121
 8443WAT      O34491   2.119   1.421   4.366
 8443WAT     H134492   2.107   1.335   4.369
 8443WAT     H234493   2.071   1.450   4.433
 8443WAT    EPW34494   2.110   1.413   4.376
 8444WAT      O34495   2.333   2.662   5.187
 8444WAT     H134496   2.263   2.611   5.200
 8444WAT     H234497   2.359   2.642   5.106
 8444WAT    EPW34498   2.326   2.652   5.177
 8445WAT      O34499   3.049   1.542   4.240
 8445WAT     H134500   2.998   1.476   4.215
 8445WAT     H234501   3.054   1.592   4.169
 8445WAT    EPW34502   3.042   1.540   4.226
 8446WAT      O34503   3.104   2.811   5.278
 8446WAT     H134504   3.181   2.803   5.238
 8446WAT     H234505   3.046   2.799   5.214
 8446WAT    EPW34506   3.107   2.808   5.263
 8447WAT      O34507   3.049   1.236   4.229
 8447WAT     H134508   3.004   1.196   4.167
 8447WAT     H234509   3.126   1.251   4.192
 8447WAT    EPW34510   3.054   1.232   4.215
 8448WAT      O34511   2.909   1.473   4.682
 8448WAT     H134512   2.916   1.529   4.616
 8448WAT     H234513   2.921   1.522   4.753
 8448WAT    EPW34514   2.912   1.488   4.682
 8449WAT      O34515   2.370   1.055   4.516
 8449WAT     H134516   2.423   1.124   4.515
 8449WAT     H234517   2.370   1.028   4.434
 8449WAT    EPW34518   2.378   1.061   4.504
 8450WAT      O34519   2.665   2.098   4.919
 8450WAT     H134520   2.682   2.077   5.002
 8450WAT     H234521   2.600   2.045   4.897
 8450WAT    EPW34522   2.658   2.087   4.928
 8451WAT      O34523   3.288   1.490   5.270
 8451WAT     H134524   3.279   1.522   5.351
 8451WAT     H234525   3.229   1.426   5.267
 8451WAT    EPW34526   3.278   1.485   5.282
 8452WAT      O34527   2.740   2.092   5.178
 8452WAT     H134528   2.746   2.177   5.198
 8452WAT     H234529   2.712   2.055   5.252
 8452WAT    EPW34530   2.737   2.099   5.192
 8453WAT      O34531   3.358   2.162   5.091
 8453WAT     H134532   3.307   2.120   5.148
 8453WAT     H234533   3.345   2.246   5.109
 8453WAT    EPW34534   3.349   2.168   5.102
 8454WAT      O34535   3.414   1.084   4.554
 8454WAT     H134536   3.419   1.052   4.635
 8454WAT     H234537   3.446   1.020   4.505
 8454WAT    EPW34538   3.419   1.070   4.559
 8455WAT      O34539   2.022   2.529   5.799
 8455WAT     H134540   2.098   2.564   5.825
 8455WAT     H234541   2.040   2.444   5.793
 8455WAT    EPW34542   2.036   2.522   5.802
 8456WAT      O34543   2.414   1.436   4.682
 8456WAT     H134544   2.442   1.393   4.611
 8456WAT     H234545   2.397   1.372   4.739
 8456WAT    EPW34546   2.416   1.420   4.680
 8457WAT      O34547   3.683   2.205   4.104
 8457WAT     H134548   3.695   2.177   4.185
 8457WAT     H234549   3.764   2.208   4.071
 8457WAT    EPW34550   3.697   2.202   4.111
 8458WAT      O34551   2.397   2.179   4.637
 8458WAT     H134552   2.482   2.171   4.619
 8458WAT     H234553   2.361   2.110   4.595
 8458WAT    EPW34554   2.404   2.167   4.628
 8459WAT      O34555   2.274   2.851   4.760
 8459WAT     H134556   2.206   2.801   4.736
 8459WAT     H234557   2.314   2.870   4.685
 8459WAT    EPW34558   2.270   2.847   4.746
 8460WAT      O34559   2.229   1.546   4.990
 8460WAT     H134560   2.313   1.568   4.986
 8460WAT     H234561   2.190   1.603   4.937
 8460WAT    EPW34562   2.235   1.558   4.981
 8461WAT      O34563   3.907   2.656   5.529
 8461WAT     H134564   3.838   2.687   5.484
 8461WAT     H234565   3.870   2.611   5.593
 8461WAT    EPW34566   3.891   2.654   5.532
 8462WAT      O34567   3.473   1.859   4.062
 8462WAT     H134568   3.451   1.932   4.020
 8462WAT     H234569   3.428   1.864   4.137
 8462WAT    EPW34570   3.463   1.871   4.067
 8463WAT      O34571   2.634   2.179   4.460
 8463WAT     H134572   2.705   2.229   4.469
 8463WAT     H234573   2.656   2.123   4.398
 8463WAT    EPW34574   2.647   2.178   4.452
 8464WAT      O34575   3.891   1.345   4.007
 8464WAT     H134576   3.825   1.288   4.010
 8464WAT     H234577   3.872   1.396   3.939
 8464WAT    EPW34578   3.879   1.344   3.998
 8465WAT      O34579   2.049   2.344   4.792
 8465WAT     H134580   1.983   2.392   4.820
 8465WAT     H234581   2.117   2.398   4.795
 8465WAT    EPW34582   2.049   2.359   4.797
 8466WAT      O34583   2.814   1.715   5.802
 8466WAT     H134584   2.766   1.772   5.846
 8466WAT     H234585   2.811   1.744   5.720
 8466WAT    EPW34586   2.806   1.728   5.796
 8467WAT      O34587   3.924   1.783   5.263
 8467WAT     H134588   3.945   1.703   5.235
 8467WAT     H234589   3.839   1.789   5.244
 8467WAT    EPW34590   3.914   1.772   5.256
 8468WAT      O34591   2.056   2.012   4.302
 8468WAT     H134592   2.037   1.928   4.318
 8468WAT     H234593   2.122   2.008   4.245
 8468WAT    EPW34594   2.063   1.999   4.296
 8469WAT      O34595   3.692   1.301   4.235
 8469WAT     H134596   3.766   1.260   4.255
 8469WAT     H234597   3.718   1.373   4.193
 8469WAT    EPW34598   3.707   1.306   4.232
 8470WAT      O34599   2.073   2.428   4.260
 8470WAT     H134600   2.128   2.485   4.296
 8470WAT     H234601   2.050   2.377   4.326
 8470WAT    EPW34602   2.078   2.429   4.275
 8471WAT      O34603   2.493   2.328   4.969
 8471WAT     H134604   2.540   2.357   5.037
 8471WAT     H234605   2.551   2.281   4.923
 8471WAT    EPW34606   2.509   2.326   4.972
 8472WAT      O34607   3.337   1.530   4.743
 8472WAT     H134608   3.371   1.545   4.821
 8472WAT     H234609   3.292   1.456   4.754
 8472WAT    EPW34610   3.335   1.521   4.756
 8473WAT      O34611   2.056   2.273   4.023
 8473WAT     H134612   2.132   2.230   4.029
 8473WAT     H234613   2.058   2.327   4.092
 8473WAT    EPW34614   2.067   2.275   4.034
 8474WAT      O34615   2.150   2.095   4.823
 8474WAT     H134616   2.193   2.083   4.749
 8474WAT     H234617   2.130   2.180   4.821
 8474WAT    EPW34618   2.153   2.106   4.812
 8475WAT      O34619   2.785   1.452   4.188
 8475WAT     H134620   2.784   1.440   4.102
 8475WAT     H234621   2.767   1.537   4.197
 8475WAT    EPW34622   2.782   1.463   4.177
 8476WAT      O34623   3.690   2.695   5.338
 8476WAT     H134624   3.623   2.746   5.360
 8476WAT     H234625   3.696   2.705   5.252
 8476WAT    EPW34626   3.681   2.704   5.328
 8477WAT      O34627   2.558   2.447   4.651
 8477WAT     H134628   2.571   2.531   4.670
 8477WAT     H234629   2.625   2.407   4.691
 8477WAT    EPW34630   2.570   2.454   4.660
 8478WAT      O34631   2.371   1.795   5.638
 8478WAT     H134632   2.318   1.745   5.684
 8478WAT     H234633   2.373   1.756   5.560
 8478WAT    EPW34634   2.364   1.782   5.633
 8479WAT      O34635   2.420   1.735   4.152
 8479WAT     H134636   2.407   1.690   4.225
 8479WAT     H234637   2.362   1.701   4.096
 8479WAT    EPW34638   2.409   1.723   4.154
 8480WAT      O34639   2.437   1.918   4.812
 8480WAT     H134640   2.359   1.912   4.773
 8480WAT     H234641   2.444   1.843   4.855
 8480WAT    EPW34642   2.426   1.906   4.812
 8481WAT      O34643   2.480   1.892   5.158
 8481WAT     H134644   2.482   1.824   5.103
 8481WAT     H234645   2.415   1.941   5.127
 8481WAT    EPW34646   2.471   1.889   5.146
 8482WAT      O34647   3.469   1.663   4.998
 8482WAT     H134648   3.403   1.696   5.044
 8482WAT     H234649   3.488   1.726   4.941
 8482WAT    EPW34650   3.462   1.677   4.996
 8483WAT      O34651   2.890   2.769   5.098
 8483WAT     H134652   2.862   2.705   5.045
 8483WAT     H234653   2.869   2.842   5.054
 8483WAT    EPW34654   2.883   2.771   5.083
 8484WAT      O34655   3.134   1.254   5.341
 8484WAT     H134656   3.149   1.171   5.317
 8484WAT     H234657   3.172   1.259   5.419
 8484WAT    EPW34658   3.141   1.242   5.349
 8485WAT      O34659   3.288   1.460   4.349
 8485WAT     H134660   3.337   1.532   4.341
 8485WAT     H234661   3.209   1.486   4.323
 8485WAT    EPW34662   3.284   1.474   4.344
 8486WAT      O34663   2.260   2.027   5.714
 8486WAT     H134664   2.256   2.077   5.643
 8486WAT     H234665   2.293   1.952   5.685
 8486WAT    EPW34666   2.264   2.023   5.699
 8487WAT      O34667   3.420   2.248   5.540
 8487WAT     H134668   3.468   2.320   5.550
 8487WAT     H234669   3.459   2.205   5.475
 8487WAT    EPW34670   3.433   2.252   5.532
 8488WAT      O34671   2.849   2.532   5.658
 8488WAT     H134672   2.885   2.514   5.735
 8488WAT     H234673   2.806   2.459   5.638
 8488WAT    EPW34674   2.848   2.519   5.666
 8489WAT      O34675   2.947   1.607   4.922
 8489WAT     H134676   2.995   1.677   4.942
 8489WAT     H234677   2.984   1.542   4.967
 8489WAT    EPW34678   2.959   1.608   4.931
 8490WAT      O34679   3.166   1.924   4.149
 8490WAT     H134680   3.165   1.996   4.100
 8490WAT     H234681   3.102   1.937   4.207
 8490WAT    EPW34682   3.156   1.937   4.150
 8491WAT      O34683   3.269   2.303   4.871
 8491WAT     H134684   3.189   2.325   4.899
 8491WAT     H234685   3.294   2.243   4.930
 8491WAT    EPW34686   3.261   2.297   4.884
 8492WAT      O34687   2.658   2.784   4.316
 8492WAT     H134688   2.643   2.706   4.353
 8492WAT     H234689   2.727   2.769   4.265
 8492WAT    EPW34690   2.666   2.770   4.314
 8493WAT      O34691   2.625   1.158   4.115
 8493WAT     H134692   2.635   1.147   4.201
 8493WAT     H234693   2.554   1.209   4.109
 8493WAT    EPW34694   2.616   1.164   4.127
 8494WAT      O34695   3.595   2.102   5.356
 8494WAT     H134696   3.600   2.115   5.270
 8494WAT     H234697   3.670   2.134   5.386
 8494WAT    EPW34698   3.606   2.109   5.348
 8495WAT      O34699   3.698   1.132   5.655
 8495WAT     H134700   3.634   1.092   5.611
 8495WAT     H234701   3.700   1.089   5.731
 8495WAT    EPW34702   3.689   1.120   5.659
 8496WAT      O34703   2.337   1.989   4.239
 8496WAT     H134704   2.369   1.911   4.217
 8496WAT     H234705   2.402   2.026   4.285
 8496WAT    EPW34706   2.351   1.983   4.243
 8497WAT      O34707   3.168   2.083   5.316
 8497WAT     H134708   3.152   2.144   5.376
 8497WAT     H234709   3.221   2.027   5.357
 8497WAT    EPW34710   3.173   2.084   5.331
 8498WAT      O34711   2.037   1.155   4.336
 8498WAT     H134712   2.050   1.084   4.287
 8498WAT     H234713   2.000   1.123   4.409
 8498WAT    EPW34714   2.033   1.140   4.340
 8499WAT      O34715   3.006   1.923   4.382
 8499WAT     H134716   3.012   1.988   4.440
 8499WAT     H234717   2.987   1.853   4.431
 8499WAT    EPW34718   3.004   1.922   4.398
 8500WAT      O34719   2.456   1.375   4.033
 8500WAT     H134720   2.405   1.380   3.962
 8500WAT     H234721   2.534   1.399   4.003
 8500WAT    EPW34722   2.460   1.379   4.018
 8501WAT      O34723   2.928   2.128   4.825
 8501WAT     H134724   2.844   2.108   4.833
 8501WAT     H234725   2.961   2.111   4.904
 8501WAT    EPW34726   2.921   2.122   4.838
 8502WAT      O34727   2.604   2.801   3.914
 8502WAT     H134728   2.647   2.731   3.942
 8502WAT     H234729   2.624   2.863   3.971
 8502WAT    EPW34730   2.613   2.800   3.926
 8503WAT      O34731   2.313   2.097   5.057
 8503WAT     H134732   2.385   2.146   5.053
 8503WAT     H234733   2.286   2.094   4.974
 8503WAT    EPW34734   2.320   2.104   5.044
 8504WAT      O34735   2.636   1.614   4.730
 8504WAT     H134736   2.721   1.595   4.740
 8504WAT     H234737   2.599   1.536   4.716
 8504WAT    EPW34738   2.643   1.600   4.729
 8505WAT      O34739   2.118   1.748   4.396
 8505WAT     H134740   2.167   1.719   4.462
 8505WAT     H234741   2.131   1.689   4.333
 8505WAT    EPW34742   2.127   1.735   4.396
 8506WAT      O34743   3.622   2.050   5.081
 8506WAT     H134744   3.621   1.972   5.120
 8506WAT     H234745   3.538   2.073   5.080
 8506WAT    EPW34746   3.609   2.042   5.086
 8507WAT      O34747   2.571   1.891   3.944
 8507WAT     H134748   2.510   1.851   3.992
 8507WAT     H234749   2.532   1.903   3.867
 8507WAT    EPW34750   2.556   1.887   3.940
 8508WAT      O34751   2.253   2.202   5.484
 8508WAT     H134752   2.211   2.150   5.428
 8508WAT     H234753   2.217   2.281   5.470
 8508WAT    EPW34754   2.241   2.206   5.474
 8509WAT      O34755   3.747   2.057   4.824
 8509WAT     H134756   3.719   2.097   4.896
 8509WAT     H234757   3.833   2.051   4.837
 8509WAT    EPW34758   3.756   2.062   4.837
 8510WAT      O34759   3.514   1.450   5.678
 8510WAT     H134760   3.461   1.495   5.731
 8510WAT     H234761   3.477   1.370   5.678
 8510WAT    EPW34762   3.500   1.445   5.686
 8511WAT      O34763   2.064   1.334   4.869
 8511WAT     H134764   2.069   1.369   4.789
 8511WAT     H234765   2.140   1.358   4.905
 8511WAT    EPW34766   2.076   1.343   4.862
 8512WAT      O34767   3.363   1.806   5.686
 8512WAT     H134768   3.370   1.817   5.772
 8512WAT     H234769   3.299   1.862   5.664
 8512WAT    EPW34770   3.354   1.816   5.695
 8513WAT      O34771   3.590   1.838   5.522
 8513WAT     H134772   3.621   1.917   5.543
 8513WAT     H234773   3.553   1.811   5.597
 8513WAT    EPW34774   3.589   1.846   5.536
 8514WAT      O34775   3.569   1.664   4.641
 8514WAT     H134776   3.495   1.632   4.673
 8514WAT     H234777   3.569   1.747   4.669
 8514WAT    EPW34778   3.558   1.672   4.650
 8515WAT      O34779   3.859   1.893   5.796
 8515WAT     H134780   3.854   1.858   5.716
 8515WAT     H234781   3.933   1.939   5.794
 8515WAT    EPW34782   3.869   1.894   5.784
 8516WAT      O34783   3.813   2.260   5.417
 8516WAT     H134784   3.876   2.205   5.391
 8516WAT     H234785   3.807   2.317   5.350
 8516WAT    EPW34786   3.822   2.260   5.403
 8517WAT      O34787   2.727   2.383   5.146
 8517WAT     H134788   2.697   2.442   5.203
 8517WAT     H234789   2.732   2.427   5.071
 8517WAT    EPW34790   2.723   2.399   5.143
 8518WAT      O34791   2.524   2.278   5.486
 8518WAT     H134792   2.444   2.249   5.503
 8518WAT     H234793   2.516   2.365   5.487
 8518WAT    EPW34794   2.511   2.287   5.488
 8519WAT      O34795   3.460   1.297   5.387
 8519WAT     H134796   3.535   1.342   5.381
 8519WAT     H234797   3.404   1.344   5.341
 8519WAT    EPW34798   3.463   1.311   5.380
 8520WAT      O34799   2.649   1.586   5.369
 8520WAT     H134800   2.665   1.511   5.412
 8520WAT     H234801   2.645   1.561   5.286
 8520WAT    EPW34802   2.651   1.571   5.363
 8521WAT      O34803   3.589   1.095   5.154
 8521WAT     H134804   3.561   1.178   5.150
 8521WAT     H234805   3.660   1.100   5.204
 8521WAT    EPW34806   3.595   1.108   5.161
 8522WAT      O34807   2.824   1.167   5.357
 8522WAT     H134808   2.895   1.199   5.317
 8522WAT     H234809   2.848   1.086   5.380
 8522WAT    EPW34810   2.838   1.159   5.355
 8523WAT      O34811   2.723   2.588   4.957
 8523WAT     H134812   2.660   2.646   4.939
 8523WAT     H234813   2.748   2.559   4.878
 8523WAT    EPW34814   2.717   2.592   4.943
 8524WAT      O34815   3.154   2.251   5.656
 8524WAT     H134816   3.229   2.280   5.623
 8524WAT     H234817   3.099   2.256   5.588
 8524WAT    EPW34818   3.157   2.256   5.641
 8525WAT      O34819   3.545   2.506   5.506
 8525WAT     H134820   3.579   2.533   5.582
 8525WAT     H234821   3.574   2.564   5.448
 8525WAT    EPW34822   3.554   2.519   5.509
 8526WAT      O34823   3.731   1.721   4.040
 8526WAT     H134824   3.769   1.788   4.000
 8526WAT     H234825   3.647   1.743   4.043
 8526WAT    EPW34826   3.724   1.734   4.035
 8527WAT      O34827   2.882   2.065   3.948
 8527WAT     H134828   2.802   2.048   3.920
 8527WAT     H234829   2.879   2.150   3.968
 8527WAT    EPW34830   2.870   2.075   3.947
 8528WAT      O34831   2.475   1.672   4.963
 8528WAT     H134832   2.519   1.662   4.889
 8528WAT     H234833   2.530   1.641   5.024
 8528WAT    EPW34834   2.490   1.666   4.961
 8529WAT      O34835   3.277   1.582   5.523
 8529WAT     H134836   3.212   1.629   5.557
 8529WAT     H234837   3.333   1.573   5.589
 8529WAT    EPW34838   3.276   1.588   5.538
 8530WAT      O34839   3.246   1.736   5.152
 8530WAT     H134840   3.276   1.778   5.223
 8530WAT     H234841   3.249   1.652   5.176
 8530WAT    EPW34842   3.251   1.730   5.166
 8531WAT      O34843   2.988   2.753   5.545
 8531WAT     H134844   3.036   2.693   5.503
 8531WAT     H234845   2.953   2.708   5.611
 8531WAT    EPW34846   2.990   2.737   5.549
 8532WAT      O34847   3.500   1.681   4.378
 8532WAT     H134848   3.521   1.660   4.460
 8532WAT     H234849   3.576   1.707   4.343
 8532WAT    EPW34850   3.515   1.682   4.385
 8533WAT      O34851   2.830   1.170   4.968
 8533WAT     H134852   2.747   1.156   4.992
 8533WAT     H234853   2.826   1.174   4.881
 8533WAT    EPW34854   2.817   1.169   4.959
 8534WAT      O34855   3.603   1.289   4.525
 8534WAT     H134856   3.531   1.242   4.542
 8534WAT     H234857   3.586   1.323   4.446
 8534WAT    EPW34858   3.590   1.287   4.516
 8535WAT      O34859   3.647   2.083   4.363
 8535WAT     H134860   3.695   2.010   4.358
 8535WAT     H234861   3.565   2.055   4.355
 8535WAT    EPW34862   3.642   2.068   4.361
 8536WAT      O34863   2.994   2.274   5.447
 8536WAT     H134864   2.915   2.268   5.482
 8536WAT     H234865   3.001   2.359   5.427
 8536WAT    EPW34866   2.983   2.286   5.449
 8537WAT      O34867   2.086   1.210   5.572
 8537WAT     H134868   2.072   1.290   5.539
 8537WAT     H234869   2.008   1.186   5.601
 8537WAT    EPW34870   2.073   1.218   5.571
 8538WAT      O34871   2.577   2.895   4.979
 8538WAT     H134872   2.578   2.901   5.066
 8538WAT     H234873   2.535   2.820   4.964
 8538WAT    EPW34874   2.571   2.885   4.989
 8539WAT      O34875   2.393   1.485   4.294
 8539WAT     H134876   2.405   1.452   4.214
 8539WAT     H234877   2.312   1.460   4.314
 8539WAT    EPW34878   2.383   1.476   4.285
 8540WAT      O34879   3.021   2.127   4.555
 8540WAT     H134880   2.991   2.096   4.631
 8540WAT     H234881   3.090   2.175   4.579
 8540WAT    EPW34882   3.027   2.130   4.570
 8541WAT      O34883   3.043   2.539   5.358
 8541WAT     H134884   3.112   2.528   5.410
 8541WAT     H234885   3.056   2.618   5.323
 8541WAT    EPW34886   3.055   2.549   5.360
 8542WAT      O34887   3.861   1.800   5.539
 8542WAT     H134888   3.775   1.788   5.551
 8542WAT     H234889   3.876   1.761   5.463
 8542WAT    EPW34890   3.850   1.792   5.529
 8543WAT      O34891   3.312   1.867   5.396
 8543WAT     H134892   3.286   1.795   5.439
 8543WAT     H234893   3.394   1.878   5.423
 8543WAT    EPW34894   3.320   1.858   5.407
 8544WAT      O34895   2.253   2.845   5.523
 8544WAT     H134896   2.188   2.788   5.533
 8544WAT     H234897   2.216   2.922   5.538
 8544WAT    EPW34898   2.238   2.848   5.527
 8545WAT      O34899   3.105   1.986   5.715
 8545WAT     H134900   3.138   2.054   5.672
 8545WAT     H234901   3.035   2.018   5.755
 8545WAT    EPW34902   3.100   2.000   5.715
 8546WAT      O34903   3.084   2.332   5.101
 8546WAT     H134904   3.014   2.372   5.135
 8546WAT     H234905   3.151   2.375   5.135
 8546WAT    EPW34906   3.083   2.344   5.111
 8547WAT      O34907   3.621   2.591   5.759
 8547WAT     H134908   3.699   2.552   5.767
 8547WAT     H234909   3.575   2.558   5.825
 8547WAT    EPW34910   3.626   2.581   5.770
 8548WAT      O34911   2.391   1.686   5.336
 8548WAT     H134912   2.428   1.748   5.287
 8548WAT     H234913   2.458   1.638   5.364
 8548WAT    EPW34914   2.406   1.688   5.333
 8549WAT      O34915   2.168   1.531   5.263
 8549WAT     H134916   2.176   1.514   5.178
 8549WAT     H234917   2.243   1.571   5.283
 8549WAT    EPW34918   2.180   1.534   5.254
 8550WAT      O34919   3.724   1.795   4.307
 8550WAT     H134920   3.734   1.789   4.221
 8550WAT     H234921   3.798   1.761   4.339
 8550WAT    EPW34922   3.736   1.789   4.299
 8551WAT      O34923   2.423   1.272   5.504
 8551WAT     H134924   2.415   1.187   5.525
 8551WAT     H234925   2.392   1.276   5.423
 8551WAT    EPW34926   2.418   1.260   5.495
 8552WAT      O34927   3.634   1.809   5.243
 8552WAT     H134928   3.634   1.723   5.255
 8552WAT     H234929   3.641   1.842   5.324
 8552WAT    EPW34930   3.635   1.801   5.257
 8553WAT      O34931   2.108   2.053   5.286
 8553WAT     H134932   2.140   2.075   5.208
 8553WAT     H234933   2.098   1.967   5.280
 8553WAT    EPW34934   2.111   2.044   5.273
 8554WAT      O34935   2.253   1.647   3.947
 8554WAT     H134936   2.186   1.648   4.003
 8554WAT     H234937   2.263   1.562   3.929
 8554WAT    EPW34938   2.245   1.634   3.953
 8555WAT      O34939   3.222   1.289   5.621
 8555WAT     H134940   3.231   1.360   5.670
 8555WAT     H234941   3.158   1.245   5.661
 8555WAT    EPW34942   3.214   1.293   5.634
 8556WAT      O34943   3.121   1.308   4.706
 8556WAT     H134944   3.051   1.360   4.701
 8556WAT     H234945   3.125   1.270   4.628
 8556WAT    EPW34946   3.112   1.310   4.694
 8557WAT      O34947   2.652   2.517   4.059
 8557WAT     H134948   2.696   2.525   4.134
 8557WAT     H234949   2.572   2.496   4.085
 8557WAT    EPW34950   2.647   2.515   4.074
 8558WAT      O34951   3.481   1.360   4.986
 8558WAT     H134952   3.567   1.370   5.001
 8558WAT     H234953   3.444   1.415   5.043
 8558WAT    EPW34954   3.488   1.369   4.997
 8559WAT      O34955   2.584   1.982   5.424
 8559WAT     H134956   2.544   2.060   5.432
 8559WAT     H234957   2.543   1.945   5.357
 8559WAT    EPW34958   2.572   1.988   5.415
 8560WAT      O34959   3.512   1.888   4.836
 8560WAT     H134960   3.578   1.942   4.852
 8560WAT     H234961   3.477   1.919   4.762
 8560WAT    EPW34962   3.516   1.900   4.827
 8561WAT      O34963   2.385   2.424   4.119
 8561WAT     H134964   2.361   2.394   4.197
 8561WAT     H234965   2.382   2.354   4.067
 8561WAT    EPW34966   2.381   2.409   4.123
 8562WAT      O34967   2.667   2.249   3.993
 8562WAT     H134968   2.585   2.222   4.007
 8562WAT     H234969   2.664   2.334   4.012
 8562WAT    EPW34970   2.654   2.257   3.998
 8563WAT      O34971   2.627   1.280   5.169
 8563WAT     H134972   2.541   1.288   5.177
 8563WAT     H234973   2.649   1.229   5.236
 8563WAT    EPW34974   2.617   1.274   5.180
 8564WAT      O34975   3.829   1.144   5.302
 8564WAT     H134976   3.824   1.139   5.389
 8564WAT     H234977   3.897   1.093   5.283
 8564WAT    EPW34978   3.838   1.136   5.312
 8565WAT      O34979   3.037   1.355   5.007
 8565WAT     H134980   2.964   1.309   5.018
 8565WAT     H234981   3.094   1.315   5.059
 8565WAT    EPW34982   3.035   1.342   5.016
 8566WAT      O34983   3.310   2.440   5.185
 8566WAT     H134984   3.331   2.470   5.265
 8566WAT     H234985   3.304   2.512   5.137
 8566WAT    EPW34986   3.313   2.455   5.190
 8567WAT      O34987   3.264   2.861   5.610
 8567WAT     H134988   3.189   2.859   5.566
 8567WAT     H234989   3.281   2.946   5.618
 8567WAT    EPW34990   3.255   2.873   5.605
 8568WAT      O34991   2.788   1.788   5.527
 8568WAT     H134992   2.755   1.730   5.470
 8568WAT     H234993   2.752   1.863   5.502
 8568WAT    EPW34994   2.778   1.790   5.515
 8569WAT      O34995   2.867   1.113   3.990
 8569WAT     H134996   2.875   1.138   3.906
 8569WAT     H234997   2.793   1.151   4.015
 8569WAT    EPW34998   2.857   1.122   3.981
 8570WAT      O34999   3.792   2.304   5.131
 8570WAT     H135000   3.788   2.217   5.118
 8570WAT     H235001   3.722   2.334   5.088
 8570WAT    EPW35002   3.781   2.295   5.123
 8571WAT      O35003   2.631   2.823   5.552
 8571WAT     H135004   2.635   2.836   5.638
 8571WAT     H235005   2.696   2.767   5.536
 8571WAT    EPW35006   2.641   2.817   5.562
 8572WAT      O35007   2.349   1.288   5.234
 8572WAT     H135008   2.315   1.212   5.211
 8572WAT     H235009   2.279   1.341   5.240
 8572WAT    EPW35010   2.334   1.285   5.231
 8573WAT      O35011   3.254   1.174   4.932
 8573WAT     H135012   3.321   1.228   4.944
 8573WAT     H235013   3.203   1.216   4.874
 8573WAT    EPW35014   3.256   1.188   4.925
 8574WAT      O35015   2.390   2.662   5.688
 8574WAT     H135016   2.450   2.705   5.735
 8574WAT     H235017   2.354   2.724   5.639
 8574WAT    EPW35018   2.394   2.677   5.687
 8575WAT      O35019   3.189   1.755   4.681
 8575WAT     H135020   3.245   1.694   4.711
 8575WAT     H235021   3.147   1.781   4.752
 8575WAT    EPW35022   3.191   1.750   4.696
 8576WAT      O35023   2.214   1.620   4.630
 8576WAT     H135024   2.177   1.650   4.703
 8576WAT     H235025   2.268   1.557   4.658
 8576WAT    EPW35026   2.217   1.615   4.645
 8577WAT      O35027   2.183   2.461   5.381
 8577WAT     H135028   2.126   2.502   5.432
 8577WAT     H235029   2.256   2.507   5.390
 8577WAT    EPW35030   2.185   2.474   5.390
 8578WAT      O35031   3.386   1.938   4.337
 8578WAT     H135032   3.393   1.853   4.355
 8578WAT     H235033   3.304   1.946   4.309
 8578WAT    EPW35034   3.375   1.927   4.336
 8579WAT      O35035   2.362   2.787   4.258
 8579WAT     H135036   2.347   2.803   4.174
 8579WAT     H235037   2.448   2.795   4.266
 8579WAT    EPW35038   2.372   2.791   4.247
 8580WAT      O35039   2.778   2.027   4.231
 8580WAT     H135040   2.788   2.041   4.145
 8580WAT     H235041   2.860   2.021   4.261
 8580WAT    EPW35042   2.792   2.028   4.223
 8581WAT      O35043   3.714   2.075   5.652
 8581WAT     H135044   3.777   2.058   5.710
 8581WAT     H235045   3.756   2.115   5.587
 8581WAT    EPW35046   3.729   2.079   5.651
 8582WAT      O35047   3.776   1.532   5.726
 8582WAT     H135048   3.757   1.596   5.782
 8582WAT     H235049   3.704   1.483   5.725
 8582WAT    EPW35050   3.763   1.534   5.734
 8583WAT      O35051   3.766   1.626   5.023
 8583WAT     H135052   3.683   1.651   5.016
 8583WAT     H235053   3.761   1.542   5.046
 8583WAT    EPW35054   3.753   1.617   5.025
 8584WAT      O35055   2.692   1.324   5.543
 8584WAT     H135056   2.716   1.267   5.481
 8584WAT     H235057   2.608   1.306   5.557
 8584WAT    EPW35058   2.683   1.313   5.536
 8585WAT      O35059   3.455   2.086   5.788
 8585WAT     H135060   3.542   2.083   5.784
 8585WAT     H235061   3.433   2.128   5.715
 8585WAT    EPW35062   3.465   2.092   5.776
 8586WAT      O35063   2.430   2.669   4.906
 8586WAT     H135064   2.422   2.588   4.874
 8586WAT     H235065   2.386   2.717   4.849
 8586WAT    EPW35066   2.423   2.664   4.893
 8587WAT      O35067   2.188   2.893   5.264
 8587WAT     H135068   2.237   2.888   5.336
 8587WAT     H235069   2.206   2.820   5.220
 8587WAT    EPW35070   2.198   2.881   5.268
 8588WAT      O35071   3.131   1.145   2.578
 8588WAT     H135072   3.107   1.194   2.510
 8588WAT     H235073   3.218   1.137   2.568
 8588WAT    EPW35074   3.140   1.151   2.567
 8589WAT      O35075   3.112   1.836   3.045
 8589WAT     H135076   3.060   1.896   3.081
 8589WAT     H235077   3.152   1.800   3.114
 8589WAT    EPW35078   3.110   1.840   3.061
 8590WAT      O35079   2.099   2.250   2.591
 8590WAT     H135080   2.055   2.262   2.665
 8590WAT     H235081   2.071   2.173   2.562
 8590WAT    EPW35082   2.088   2.241   2.598
 8591WAT      O35083   3.727   2.580   2.342
 8591WAT     H135084   3.797   2.529   2.342
 8591WAT     H235085   3.668   2.536   2.295
 8591WAT    EPW35086   3.728   2.566   2.335
 8592WAT      O35087   2.073   1.630   2.241
 8592WAT     H135088   1.996   1.646   2.205
 8592WAT     H235089   2.077   1.542   2.244
 8592WAT    EPW35090   2.063   1.619   2.236
 8593WAT      O35091   2.387   2.156   2.109
 8593WAT     H135092   2.348   2.119   2.040
 8593WAT     H235093   2.379   2.096   2.172
 8593WAT    EPW35094   2.380   2.142   2.108
 8594WAT      O35095   3.379   1.943   2.713
 8594WAT     H135096   3.387   1.943   2.626
 8594WAT     H235097   3.321   1.880   2.728
 8594WAT    EPW35098   3.372   1.934   2.702
 8595WAT      O35099   2.350   2.320   2.499
 8595WAT     H135100   2.411   2.303   2.559
 8595WAT     H235101   2.275   2.306   2.541
 8595WAT    EPW35102   2.348   2.315   2.514
 8596WAT      O35103   2.778   1.253   2.494
 8596WAT     H135104   2.771   1.321   2.439
 8596WAT     H235105   2.852   1.215   2.469
 8596WAT    EPW35106   2.788   1.258   2.482
 8597WAT      O35107   2.239   2.629   2.106
 8597WAT     H135108   2.286   2.637   2.033
 8597WAT     H235109   2.285   2.571   2.153
 8597WAT    EPW35110   2.253   2.622   2.102
 8598WAT      O35111   2.093   2.524   3.216
 8598WAT     H135112   2.106   2.496   3.298
 8598WAT     H235113   2.032   2.470   3.185
 8598WAT    EPW35114   2.086   2.512   3.224
 8599WAT      O35115   2.751   2.276   3.723
 8599WAT     H135116   2.727   2.276   3.807
 8599WAT     H235117   2.676   2.262   3.681
 8599WAT    EPW35118   2.736   2.274   3.729
 8600WAT      O35119   2.238   1.976   2.636
 8600WAT     H135120   2.192   1.937   2.574
 8600WAT     H235121   2.308   1.925   2.646
 8600WAT    EPW35122   2.241   1.963   2.629
 8601WAT      O35123   2.438   1.786   2.639
 8601WAT     H135124   2.520   1.767   2.663
 8601WAT     H235125   2.390   1.725   2.678
 8601WAT    EPW35126   2.443   1.774   2.648
 8602WAT      O35127   2.858   2.384   2.900
 8602WAT     H135128   2.893   2.304   2.903
 8602WAT     H235129   2.925   2.434   2.874
 8602WAT    EPW35130   2.873   2.380   2.896
 8603WAT      O35131   3.061   1.742   3.655
 8603WAT     H135132   2.976   1.732   3.637
 8603WAT     H235133   3.064   1.817   3.700
 8603WAT    EPW35134   3.049   1.752   3.659
 8604WAT      O35135   2.498   1.295   2.565
 8604WAT     H135136   2.468   1.345   2.500
 8604WAT     H235137   2.584   1.303   2.560
 8604WAT    EPW35138   2.506   1.304   2.555
 8605WAT      O35139   3.517   1.038   3.566
 8605WAT     H135140   3.501   1.115   3.528
 8605WAT     H235141   3.439   1.016   3.601
 8605WAT    EPW35142   3.503   1.046   3.566
 8606WAT      O35143   2.795   1.210   2.788
 8606WAT     H135144   2.803   1.296   2.801
 8606WAT     H235145   2.792   1.202   2.701
 8606WAT    EPW35146   2.796   1.221   2.777
 8607WAT      O35147   3.263   1.502   2.018
 8607WAT     H135148   3.218   1.570   2.048
 8607WAT     H235149   3.274   1.452   2.088
 8607WAT    EPW35150   3.258   1.505   2.032
 8608WAT      O35151   2.083   1.752   2.938
 8608WAT     H135152   2.058   1.835   2.930
 8608WAT     H235153   2.017   1.714   2.979
 8608WAT    EPW35154   2.070   1.759   2.943
 8609WAT      O35155   2.074   2.723   2.728
 8609WAT     H135156   2.015   2.779   2.696
 8609WAT     H235157   2.117   2.696   2.657
 8609WAT    EPW35158   2.072   2.727   2.713
 8610WAT      O35159   2.658   2.507   2.476
 8610WAT     H135160   2.600   2.480   2.535
 8610WAT     H235161   2.721   2.447   2.478
 8610WAT    EPW35162   2.659   2.494   2.485
 8611WAT      O35163   3.273   2.736   2.228
 8611WAT     H135164   3.345   2.783   2.238
 8611WAT     H235165   3.296   2.657   2.256
 8611WAT    EPW35166   3.287   2.732   2.234
 8612WAT      O35167   3.089   2.775   2.427
 8612WAT     H135168   3.111   2.828   2.493
 8612WAT     H235169   3.166   2.758   2.389
 8612WAT    EPW35170   3.104   2.781   2.431
 8613WAT      O35171   2.386   1.234   2.987
 8613WAT     H135172   2.334   1.171   2.956
 8613WAT     H235173   2.445   1.190   3.034
 8613WAT    EPW35174   2.387   1.218   2.989
 8614WAT      O35175   2.717   1.447   3.917
 8614WAT     H135176   2.729   1.402   3.843
 8614WAT     H235177   2.746   1.527   3.896
 8614WAT    EPW35178   2.723   1.452   3.903
 8615WAT      O35179   2.229   2.590   2.521
 8615WAT     H135180   2.294   2.533   2.522
 8615WAT     H235181   2.268   2.665   2.499
 8615WAT    EPW35182   2.244   2.593   2.518
 8616WAT      O35183   3.802   1.499   2.647
 8616WAT     H135184   3.768   1.567   2.690
 8616WAT     H235185   3.739   1.440   2.649
 8616WAT    EPW35186   3.788   1.501   2.654
 8617WAT      O35187   2.290   1.407   3.815
 8617WAT     H135188   2.212   1.368   3.808
 8617WAT     H235189   2.339   1.366   3.756
 8617WAT    EPW35190   2.286   1.395   3.805
 8618WAT      O35191   2.311   2.439   2.871
 8618WAT     H135192   2.353   2.403   2.803
 8618WAT     H235193   2.343   2.397   2.940
 8618WAT    EPW35194   2.322   2.427   2.871
 8619WAT      O35195   2.634   2.724   2.800
 8619WAT     H135196   2.718   2.734   2.781
 8619WAT     H235197   2.604   2.806   2.807
 8619WAT    EPW35198   2.642   2.738   2.799
 8620WAT      O35199   2.955   1.171   3.732
 8620WAT     H135200   2.973   1.090   3.704
 8620WAT     H235201   2.941   1.215   3.658
 8620WAT    EPW35202   2.956   1.166   3.717
 8621WAT      O35203   3.014   1.664   2.609
 8621WAT     H135204   3.043   1.640   2.530
 8621WAT     H235205   3.088   1.672   2.656
 8621WAT    EPW35206   3.029   1.661   2.604
 8622WAT      O35207   3.087   1.698   2.121
 8622WAT     H135208   3.115   1.776   2.146
 8622WAT     H235209   3.009   1.714   2.085
 8622WAT    EPW35210   3.079   1.712   2.120
 8623WAT      O35211   2.534   2.846   3.374
 8623WAT     H135212   2.563   2.839   3.456
 8623WAT     H235213   2.471   2.785   3.370
 8623WAT    EPW35214   2.529   2.836   3.386
 8624WAT      O35215   3.770   1.332   3.184
 8624WAT     H135216   3.845   1.339   3.141
 8624WAT     H235217   3.776   1.254   3.224
 8624WAT    EPW35218   3.782   1.321   3.183
 8625WAT      O35219   2.025   1.462   3.574
 8625WAT     H135220   2.025   1.520   3.638
 8625WAT     H235221   2.084   1.493   3.518
 8625WAT    EPW35222   2.034   1.475   3.575
 8626WAT      O35223   2.973   2.515   2.103
 8626WAT     H135224   2.954   2.569   2.169
 8626WAT     H235225   3.049   2.544   2.073
 8626WAT    EPW35226   2.981   2.527   2.108
 8627WAT      O35227   3.323   1.304   2.208
 8627WAT     H135228   3.377   1.236   2.216
 8627WAT     H235229   3.329   1.344   2.286
 8627WAT    EPW35230   3.332   1.300   2.221
 8628WAT      O35231   2.119   1.421   2.465
 8628WAT     H135232   2.107   1.335   2.468
 8628WAT     H235233   2.071   1.450   2.532
 8628WAT    EPW35234   2.110   1.413   2.475
 8629WAT      O35235   2.333   2.662   3.287
 8629WAT     H135236   2.263   2.611   3.299
 8629WAT     H235237   2.359   2.642   3.206
 8629WAT    EPW35238   2.326   2.652   3.277
 8630WAT      O35239   3.049   1.542   2.340
 8630WAT     H135240   2.998   1.476   2.314
 8630WAT     H235241   3.054   1.592   2.269
 8630WAT    EPW35242   3.042   1.540   2.325
 8631WAT      O35243   3.049   1.236   2.329
 8631WAT     H135244   3.004   1.196   2.266
 8631WAT     H235245   3.126   1.251   2.291
 8631WAT    EPW35246   3.054   1.232   2.314
 8632WAT      O35247   2.909   1.473   2.781
 8632WAT     H135248   2.916   1.529   2.715
 8632WAT     H235249   2.921   1.522   2.852
 8632WAT    EPW35250   2.912   1.488   2.782
 8633WAT      O35251   3.431   2.456   2.622
 8633WAT     H135252   3.501   2.408   2.641
 8633WAT     H235253   3.365   2.399   2.627
 8633WAT    EPW35254   3.432   2.441   2.626
 8634WAT      O35255   2.469   2.547   3.543
 8634WAT     H135256   2.553   2.553   3.521
 8634WAT     H235257   2.465   2.587   3.621
 8634WAT    EPW35258   2.481   2.554   3.552
 8635WAT      O35259   2.370   1.055   2.616
 8635WAT     H135260   2.423   1.124   2.615
 8635WAT     H235261   2.370   1.028   2.533
 8635WAT    EPW35262   2.378   1.061   2.603
 8636WAT      O35263   2.665   2.098   3.018
 8636WAT     H135264   2.682   2.077   3.101
 8636WAT     H235265   2.600   2.045   2.997
 8636WAT    EPW35266   2.658   2.087   3.027
 8637WAT      O35267   3.288   1.490   3.370
 8637WAT     H135268   3.279   1.522   3.450
 8637WAT     H235269   3.229   1.426   3.366
 8637WAT    EPW35270   3.278   1.485   3.381
 8638WAT      O35271   2.740   2.092   3.277
 8638WAT     H135272   2.746   2.177   3.297
 8638WAT     H235273   2.712   2.055   3.351
 8638WAT    EPW35274   2.737   2.099   3.291
 8639WAT      O35275   3.414   1.084   2.653
 8639WAT     H135276   3.419   1.052   2.734
 8639WAT     H235277   3.446   1.020   2.604
 8639WAT    EPW35278   3.419   1.070   2.658
 8640WAT      O35279   2.022   2.529   3.898
 8640WAT     H135280   2.098   2.564   3.924
 8640WAT     H235281   2.040   2.444   3.893
 8640WAT    EPW35282   2.036   2.522   3.901
 8641WAT      O35283   3.660   1.508   3.484
 8641WAT     H135284   3.737   1.485   3.518
 8641WAT     H235285   3.613   1.529   3.554
 8641WAT    EPW35286   3.664   1.508   3.499
 8642WAT      O35287   2.414   1.436   2.781
 8642WAT     H135288   2.442   1.393   2.710
 8642WAT     H235289   2.397   1.372   2.838
 8642WAT    EPW35290   2.416   1.420   2.779
 8643WAT      O35291   3.683   2.205   2.203
 8643WAT     H135292   3.695   2.177   2.284
 8643WAT     H235293   3.764   2.208   2.170
 8643WAT    EPW35294   3.697   2.202   2.210
 8644WAT      O35295   2.397   2.179   2.736
 8644WAT     H135296   2.482   2.171   2.719
 8644WAT     H235297   2.361   2.110   2.695
 8644WAT    EPW35298   2.404   2.167   2.727
 8645WAT      O35299   2.274   2.851   2.860
 8645WAT     H135300   2.206   2.801   2.835
 8645WAT     H235301   2.314   2.870   2.785
 8645WAT    EPW35302   2.270   2.847   2.845
 8646WAT      O35303   2.229   1.546   3.089
 8646WAT     H135304   2.313   1.568   3.085
 8646WAT     H235305   2.190   1.603   3.036
 8646WAT    EPW35306   2.235   1.558   3.081
 8647WAT      O35307   3.473   1.859   2.161
 8647WAT     H135308   3.451   1.932   2.119
 8647WAT     H235309   3.428   1.864   2.236
 8647WAT    EPW35310   3.463   1.871   2.166
 8648WAT      O35311   2.634   2.179   2.560
 8648WAT     H135312   2.705   2.229   2.569
 8648WAT     H235313   2.656   2.123   2.497
 8648WAT    EPW35314   2.647   2.178   2.552
 8649WAT      O35315   3.891   1.345   2.107
 8649WAT     H135316   3.825   1.288   2.109
 8649WAT     H235317   3.872   1.396   2.039
 8649WAT    EPW35318   3.879   1.344   2.097
 8650WAT      O35319   2.049   2.344   2.892
 8650WAT     H135320   1.983   2.392   2.919
 8650WAT     H235321   2.117   2.398   2.894
 8650WAT    EPW35322   2.049   2.359   2.896
 8651WAT      O35323   2.814   1.715   3.901
 8651WAT     H135324   2.766   1.772   3.945
 8651WAT     H235325   2.811   1.744   3.819
 8651WAT    EPW35326   2.806   1.728   3.896
 8652WAT      O35327   3.924   1.783   3.362
 8652WAT     H135328   3.945   1.703   3.335
 8652WAT     H235329   3.839   1.789   3.343
 8652WAT    EPW35330   3.914   1.772   3.355
 8653WAT      O35331   2.056   2.012   2.402
 8653WAT     H135332   2.037   1.928   2.417
 8653WAT     H235333   2.122   2.008   2.345
 8653WAT    EPW35334   2.063   1.999   2.396
 8654WAT      O35335   3.692   1.301   2.335
 8654WAT     H135336   3.766   1.260   2.355
 8654WAT     H235337   3.718   1.373   2.292
 8654WAT    EPW35338   3.707   1.306   2.331
 8655WAT      O35339   2.073   2.428   2.359
 8655WAT     H135340   2.128   2.485   2.396
 8655WAT     H235341   2.050   2.377   2.426
 8655WAT    EPW35342   2.078   2.429   2.375
 8656WAT      O35343   2.493   2.328   3.068
 8656WAT     H135344   2.540   2.357   3.136
 8656WAT     H235345   2.551   2.281   3.023
 8656WAT    EPW35346   2.509   2.326   3.072
 8657WAT      O35347   3.337   1.530   2.842
 8657WAT     H135348   3.371   1.545   2.921
 8657WAT     H235349   3.292   1.456   2.853
 8657WAT    EPW35350   3.335   1.521   2.855
 8658WAT      O35351   2.056   2.273   2.122
 8658WAT     H135352   2.132   2.230   2.128
 8658WAT     H235353   2.058   2.327   2.191
 8658WAT    EPW35354   2.067   2.275   2.133
 8659WAT      O35355   2.150   2.095   2.923
 8659WAT     H135356   2.193   2.083   2.848
 8659WAT     H235357   2.130   2.180   2.920
 8659WAT    EPW35358   2.153   2.106   2.911
 8660WAT      O35359   2.785   1.452   2.288
 8660WAT     H135360   2.784   1.440   2.201
 8660WAT     H235361   2.767   1.537   2.297
 8660WAT    EPW35362   2.782   1.463   2.276
 8661WAT      O35363   2.558   2.447   2.751
 8661WAT     H135364   2.571   2.531   2.770
 8661WAT     H235365   2.625   2.407   2.790
 8661WAT    EPW35366   2.570   2.454   2.759
 8662WAT      O35367   2.371   1.795   3.737
 8662WAT     H135368   2.318   1.745   3.784
 8662WAT     H235369   2.373   1.756   3.659
 8662WAT    EPW35370   2.364   1.782   3.732
 8663WAT      O35371   2.420   1.735   2.251
 8663WAT     H135372   2.407   1.690   2.325
 8663WAT     H235373   2.362   1.701   2.196
 8663WAT    EPW35374   2.409   1.723   2.254
 8664WAT      O35375   2.437   1.918   2.911
 8664WAT     H135376   2.359   1.912   2.873
 8664WAT     H235377   2.444   1.843   2.955
 8664WAT    EPW35378   2.426   1.906   2.912
 8665WAT      O35379   2.480   1.892   3.258
 8665WAT     H135380   2.482   1.824   3.203
 8665WAT     H235381   2.415   1.941   3.227
 8665WAT    EPW35382   2.471   1.889   3.245
 8666WAT      O35383   3.469   1.663   3.097
 8666WAT     H135384   3.403   1.696   3.144
 8666WAT     H235385   3.488   1.726   3.040
 8666WAT    EPW35386   3.462   1.677   3.096
 8667WAT      O35387   3.134   1.254   3.440
 8667WAT     H135388   3.149   1.171   3.416
 8667WAT     H235389   3.172   1.259   3.519
 8667WAT    EPW35390   3.141   1.242   3.448
 8668WAT      O35391   3.288   1.460   2.448
 8668WAT     H135392   3.337   1.532   2.441
 8668WAT     H235393   3.209   1.486   2.422
 8668WAT    EPW35394   3.284   1.474   2.443
 8669WAT      O35395   2.260   2.027   3.814
 8669WAT     H135396   2.256   2.077   3.742
 8669WAT     H235397   2.293   1.952   3.784
 8669WAT    EPW35398   2.264   2.023   3.799
 8670WAT      O35399   2.947   1.607   3.021
 8670WAT     H135400   2.995   1.677   3.042
 8670WAT     H235401   2.984   1.542   3.066
 8670WAT    EPW35402   2.959   1.608   3.031
 8671WAT      O35403   3.166   1.924   2.248
 8671WAT     H135404   3.165   1.996   2.199
 8671WAT     H235405   3.102   1.937   2.306
 8671WAT    EPW35406   3.156   1.937   2.250
 8672WAT      O35407   3.663   2.311   2.646
 8672WAT     H135408   3.698   2.276   2.718
 8672WAT     H235409   3.662   2.245   2.589
 8672WAT    EPW35410   3.668   2.296   2.649
 8673WAT      O35411   2.658   2.784   2.416
 8673WAT     H135412   2.643   2.706   2.453
 8673WAT     H235413   2.727   2.769   2.364
 8673WAT    EPW35414   2.666   2.770   2.414
 8674WAT      O35415   2.625   1.158   2.214
 8674WAT     H135416   2.635   1.147   2.301
 8674WAT     H235417   2.554   1.209   2.208
 8674WAT    EPW35418   2.616   1.164   2.226
 8675WAT      O35419   2.887   2.735   2.256
 8675WAT     H135420   2.949   2.752   2.315
 8675WAT     H235421   2.891   2.804   2.203
 8675WAT    EPW35422   2.897   2.748   2.257
 8676WAT      O35423   3.595   2.102   3.455
 8676WAT     H135424   3.600   2.115   3.369
 8676WAT     H235425   3.670   2.134   3.486
 8676WAT    EPW35426   3.606   2.109   3.447
 8677WAT      O35427   3.698   1.132   3.754
 8677WAT     H135428   3.634   1.092   3.710
 8677WAT     H235429   3.700   1.089   3.830
 8677WAT    EPW35430   3.689   1.120   3.759
 8678WAT      O35431   2.337   1.989   2.339
 8678WAT     H135432   2.369   1.911   2.317
 8678WAT     H235433   2.402   2.026   2.384
 8678WAT    EPW35434   2.351   1.983   2.342
 8679WAT      O35435   3.168   2.083   3.415
 8679WAT     H135436   3.152   2.144   3.476
 8679WAT     H235437   3.221   2.027   3.456
 8679WAT    EPW35438   3.173   2.084   3.430
 8680WAT      O35439   2.037   1.155   2.436
 8680WAT     H135440   2.050   1.084   2.386
 8680WAT     H235441   2.000   1.123   2.508
 8680WAT    EPW35442   2.033   1.140   2.439
 8681WAT      O35443   3.006   1.923   2.481
 8681WAT     H135444   3.012   1.988   2.539
 8681WAT     H235445   2.987   1.853   2.530
 8681WAT    EPW35446   3.004   1.922   2.497
 8682WAT      O35447   2.456   1.375   2.132
 8682WAT     H135448   2.405   1.380   2.062
 8682WAT     H235449   2.534   1.399   2.103
 8682WAT    EPW35450   2.460   1.379   2.118
 8683WAT      O35451   2.928   2.128   2.924
 8683WAT     H135452   2.844   2.108   2.932
 8683WAT     H235453   2.961   2.111   3.004
 8683WAT    EPW35454   2.921   2.122   2.937
 8684WAT      O35455   2.604   2.801   2.013
 8684WAT     H135456   2.647   2.731   2.042
 8684WAT     H235457   2.624   2.863   2.070
 8684WAT    EPW35458   2.613   2.800   2.026
 8685WAT      O35459   2.313   2.097   3.156
 8685WAT     H135460   2.385   2.146   3.152
 8685WAT     H235461   2.286   2.094   3.073
 8685WAT    EPW35462   2.320   2.104   3.143
 8686WAT      O35463   2.636   1.614   2.829
 8686WAT     H135464   2.721   1.595   2.839
 8686WAT     H235465   2.599   1.536   2.816
 8686WAT    EPW35466   2.643   1.600   2.829
 8687WAT      O35467   3.898   2.772   2.262
 8687WAT     H135468   3.967   2.726   2.237
 8687WAT     H235469   3.844   2.713   2.296
 8687WAT    EPW35470   3.900   2.757   2.263
 8688WAT      O35471   2.118   1.748   2.495
 8688WAT     H135472   2.167   1.719   2.561
 8688WAT     H235473   2.131   1.689   2.432
 8688WAT    EPW35474   2.127   1.735   2.495
 8689WAT      O35475   3.622   2.050   3.180
 8689WAT     H135476   3.621   1.972   3.220
 8689WAT     H235477   3.538   2.073   3.179
 8689WAT    EPW35478   3.609   2.042   3.186
 8690WAT      O35479   2.571   1.891   2.044
 8690WAT     H135480   2.510   1.851   2.091
 8690WAT     H235481   2.532   1.903   1.966
 8690WAT    EPW35482   2.556   1.887   2.039
 8691WAT      O35483   2.253   2.202   3.584
 8691WAT     H135484   2.211   2.150   3.528
 8691WAT     H235485   2.217   2.281   3.569
 8691WAT    EPW35486   2.241   2.206   3.573
 8692WAT      O35487   3.747   2.057   2.924
 8692WAT     H135488   3.719   2.097   2.996
 8692WAT     H235489   3.833   2.051   2.936
 8692WAT    EPW35490   3.756   2.062   2.936
 8693WAT      O35491   2.716   1.737   2.315
 8693WAT     H135492   2.743   1.820   2.321
 8693WAT     H235493   2.630   1.745   2.305
 8693WAT    EPW35494   2.708   1.751   2.314
 8694WAT      O35495   3.514   1.450   3.778
 8694WAT     H135496   3.461   1.495   3.830
 8694WAT     H235497   3.477   1.370   3.777
 8694WAT    EPW35498   3.500   1.445   3.785
 8695WAT      O35499   2.064   1.334   2.968
 8695WAT     H135500   2.069   1.369   2.888
 8695WAT     H235501   2.140   1.358   3.005
 8695WAT    EPW35502   2.076   1.343   2.962
 8696WAT      O35503   3.363   1.806   3.785
 8696WAT     H135504   3.370   1.817   3.872
 8696WAT     H235505   3.299   1.862   3.763
 8696WAT    EPW35506   3.354   1.816   3.795
 8697WAT      O35507   3.590   1.838   3.622
 8697WAT     H135508   3.621   1.917   3.642
 8697WAT     H235509   3.553   1.811   3.696
 8697WAT    EPW35510   3.589   1.846   3.636
 8698WAT      O35511   3.521   2.481   2.175
 8698WAT     H135512   3.554   2.400   2.178
 8698WAT     H235513   3.445   2.474   2.218
 8698WAT    EPW35514   3.515   2.468   2.182
 8699WAT      O35515   3.569   1.664   2.741
 8699WAT     H135516   3.495   1.632   2.773
 8699WAT     H235517   3.569   1.747   2.769
 8699WAT    EPW35518   3.558   1.672   2.750
 8700WAT      O35519   3.859   1.893   3.895
 8700WAT     H135520   3.854   1.858   3.815
 8700WAT     H235521   3.933   1.939   3.893
 8700WAT    EPW35522   3.869   1.894   3.883
 8701WAT      O35523   3.813   2.260   3.516
 8701WAT     H135524   3.876   2.205   3.490
 8701WAT     H235525   3.807   2.317   3.450
 8701WAT    EPW35526   3.822   2.260   3.502
 8702WAT      O35527   3.258   2.268   2.115
 8702WAT     H135528   3.327   2.217   2.098
 8702WAT     H235529   3.217   2.273   2.039
 8702WAT    EPW35530   3.262   2.261   2.101
 8703WAT      O35531   2.727   2.383   3.246
 8703WAT     H135532   2.697   2.442   3.302
 8703WAT     H235533   2.732   2.427   3.171
 8703WAT    EPW35534   2.723   2.399   3.243
 8704WAT      O35535   2.524   2.278   3.585
 8704WAT     H135536   2.444   2.249   3.602
 8704WAT     H235537   2.516   2.365   3.586
 8704WAT    EPW35538   2.511   2.287   3.588
 8705WAT      O35539   3.460   1.297   3.487
 8705WAT     H135540   3.535   1.342   3.481
 8705WAT     H235541   3.404   1.344   3.440
 8705WAT    EPW35542   3.463   1.311   3.479
 8706WAT      O35543   2.978   2.026   3.195
 8706WAT     H135544   3.026   2.063   3.257
 8706WAT     H235545   2.896   2.039   3.221
 8706WAT    EPW35546   2.973   2.033   3.208
 8707WAT      O35547   2.649   1.586   3.469
 8707WAT     H135548   2.665   1.511   3.511
 8707WAT     H235549   2.645   1.561   3.385
 8707WAT    EPW35550   2.651   1.571   3.463
 8708WAT      O35551   2.905   2.765   2.717
 8708WAT     H135552   2.959   2.833   2.723
 8708WAT     H235553   2.870   2.773   2.638
 8708WAT    EPW35554   2.907   2.776   2.706
 8709WAT      O35555   3.589   1.095   3.254
 8709WAT     H135556   3.561   1.178   3.249
 8709WAT     H235557   3.660   1.100   3.303
 8709WAT    EPW35558   3.595   1.108   3.261
 8710WAT      O35559   2.824   1.167   3.457
 8710WAT     H135560   2.895   1.199   3.417
 8710WAT     H235561   2.848   1.086   3.479
 8710WAT    EPW35562   2.838   1.159   3.454
 8711WAT      O35563   2.723   2.588   3.056
 8711WAT     H135564   2.660   2.646   3.038
 8711WAT     H235565   2.748   2.559   2.978
 8711WAT    EPW35566   2.717   2.592   3.042
 8712WAT      O35567   3.731   1.721   2.140
 8712WAT     H135568   3.769   1.788   2.100
 8712WAT     H235569   3.647   1.743   2.143
 8712WAT    EPW35570   3.724   1.734   2.134
 8713WAT      O35571   2.882   2.065   2.048
 8713WAT     H135572   2.802   2.048   2.019
 8713WAT     H235573   2.879   2.150   2.067
 8713WAT    EPW35574   2.870   2.075   2.047
 8714WAT      O35575   2.475   1.672   3.063
 8714WAT     H135576   2.519   1.662   2.988
 8714WAT     H235577   2.530   1.641   3.123
 8714WAT    EPW35578   2.490   1.666   3.061
 8715WAT      O35579   3.277   1.582   3.622
 8715WAT     H135580   3.212   1.629   3.657
 8715WAT     H235581   3.333   1.573   3.688
 8715WAT    EPW35582   3.276   1.588   3.637
 8716WAT      O35583   3.246   1.736   3.252
 8716WAT     H135584   3.276   1.778   3.322
 8716WAT     H235585   3.249   1.652   3.275
 8716WAT    EPW35586   3.251   1.730   3.266
 8717WAT      O35587   2.830   1.170   3.068
 8717WAT     H135588   2.747   1.156   3.091
 8717WAT     H235589   2.826   1.174   2.980
 8717WAT    EPW35590   2.817   1.169   3.058
 8718WAT      O35591   3.603   1.289   2.624
 8718WAT     H135592   3.531   1.242   2.642
 8718WAT     H235593   3.586   1.323   2.546
 8718WAT    EPW35594   3.590   1.287   2.615
 8719WAT      O35595   3.647   2.083   2.462
 8719WAT     H135596   3.695   2.010   2.458
 8719WAT     H235597   3.565   2.055   2.455
 8719WAT    EPW35598   3.642   2.068   2.461
 8720WAT      O35599   2.086   1.210   3.671
 8720WAT     H135600   2.072   1.290   3.638
 8720WAT     H235601   2.008   1.186   3.700
 8720WAT    EPW35602   2.073   1.218   3.670
 8721WAT      O35603   2.577   2.895   3.078
 8721WAT     H135604   2.578   2.901   3.165
 8721WAT     H235605   2.535   2.820   3.063
 8721WAT    EPW35606   2.571   2.885   3.089
 8722WAT      O35607   2.393   1.485   2.394
 8722WAT     H135608   2.405   1.452   2.314
 8722WAT     H235609   2.312   1.460   2.413
 8722WAT    EPW35610   2.383   1.476   2.385
 8723WAT      O35611   3.269   2.200   2.698
 8723WAT     H135612   3.276   2.234   2.778
 8723WAT     H235613   3.285   2.115   2.710
 8723WAT    EPW35614   3.272   2.192   2.712
 8724WAT      O35615   3.021   2.127   2.654
 8724WAT     H135616   2.991   2.096   2.730
 8724WAT     H235617   3.090   2.175   2.678
 8724WAT    EPW35618   3.027   2.130   2.669
 8725WAT      O35619   3.861   1.800   3.638
 8725WAT     H135620   3.775   1.788   3.651
 8725WAT     H235621   3.876   1.761   3.562
 8725WAT    EPW35622   3.850   1.792   3.629
 8726WAT      O35623   3.312   1.867   3.496
 8726WAT     H135624   3.286   1.795   3.538
 8726WAT     H235625   3.394   1.878   3.523
 8726WAT    EPW35626   3.320   1.858   3.506
 8727WAT      O35627   2.253   2.845   3.622
 8727WAT     H135628   2.188   2.788   3.632
 8727WAT     H235629   2.216   2.922   3.637
 8727WAT    EPW35630   2.238   2.848   3.626
 8728WAT      O35631   2.391   1.686   3.435
 8728WAT     H135632   2.428   1.748   3.386
 8728WAT     H235633   2.458   1.638   3.464
 8728WAT    EPW35634   2.406   1.688   3.432
 8729WAT      O35635   2.168   1.531   3.363
 8729WAT     H135636   2.176   1.514   3.277
 8729WAT     H235637   2.243   1.571   3.382
 8729WAT    EPW35638   2.180   1.534   3.353
 8730WAT      O35639   3.724   1.795   2.407
 8730WAT     H135640   3.734   1.789   2.320
 8730WAT     H235641   3.798   1.761   2.438
 8730WAT    EPW35642   3.736   1.789   2.399
 8731WAT      O35643   2.423   1.272   3.604
 8731WAT     H135644   2.415   1.187   3.624
 8731WAT     H235645   2.392   1.276   3.522
 8731WAT    EPW35646   2.418   1.260   3.595
 8732WAT      O35647   3.116   2.491   2.517
 8732WAT     H135648   3.095   2.574   2.501
 8732WAT     H235649   3.038   2.453   2.530
 8732WAT    EPW35650   3.101   2.498   2.517
 8733WAT      O35651   3.634   1.809   3.342
 8733WAT     H135652   3.634   1.723   3.355
 8733WAT     H235653   3.641   1.842   3.423
 8733WAT    EPW35654   3.635   1.801   3.356
 8734WAT      O35655   2.108   2.053   3.385
 8734WAT     H135656   2.140   2.075   3.307
 8734WAT     H235657   2.098   1.967   3.380
 8734WAT    EPW35658   2.111   2.044   3.373
 8735WAT      O35659   2.253   1.647   2.047
 8735WAT     H135660   2.186   1.648   2.102
 8735WAT     H235661   2.263   1.562   2.028
 8735WAT    EPW35662   2.245   1.634   2.052
 8736WAT      O35663   3.121   1.308   2.806
 8736WAT     H135664   3.051   1.360   2.800
 8736WAT     H235665   3.125   1.270   2.727
 8736WAT    EPW35666   3.112   1.310   2.793
 8737WAT      O35667   2.652   2.517   2.158
 8737WAT     H135668   2.696   2.525   2.233
 8737WAT     H235669   2.572   2.496   2.184
 8737WAT    EPW35670   2.647   2.515   2.173
 8738WAT      O35671   3.481   1.360   3.086
 8738WAT     H135672   3.567   1.370   3.100
 8738WAT     H235673   3.444   1.415   3.142
 8738WAT    EPW35674   3.488   1.369   3.096
 8739WAT      O35675   2.584   1.982   3.524
 8739WAT     H135676   2.544   2.060   3.531
 8739WAT     H235677   2.543   1.945   3.456
 8739WAT    EPW35678   2.572   1.988   3.515
 8740WAT      O35679   3.512   1.888   2.935
 8740WAT     H135680   3.578   1.942   2.951
 8740WAT     H235681   3.477   1.919   2.861
 8740WAT    EPW35682   3.516   1.900   2.926
 8741WAT      O35683   2.385   2.424   2.218
 8741WAT     H135684   2.361   2.394   2.296
 8741WAT     H235685   2.382   2.354   2.167
 8741WAT    EPW35686   2.381   2.409   2.222
 8742WAT      O35687   2.667   2.249   2.093
 8742WAT     H135688   2.585   2.222   2.107
 8742WAT     H235689   2.664   2.334   2.111
 8742WAT    EPW35690   2.654   2.257   2.097
 8743WAT      O35691   2.627   1.280   3.269
 8743WAT     H135692   2.541   1.288   3.277
 8743WAT     H235693   2.649   1.229   3.335
 8743WAT    EPW35694   2.617   1.274   3.280
 8744WAT      O35695   3.829   1.144   3.401
 8744WAT     H135696   3.824   1.139   3.488
 8744WAT     H235697   3.897   1.093   3.382
 8744WAT    EPW35698   3.838   1.136   3.411
 8745WAT      O35699   3.037   1.355   3.106
 8745WAT     H135700   2.964   1.309   3.117
 8745WAT     H235701   3.094   1.315   3.158
 8745WAT    EPW35702   3.035   1.342   3.115
 8746WAT      O35703   2.788   1.788   3.626
 8746WAT     H135704   2.755   1.730   3.569
 8746WAT     H235705   2.752   1.863   3.602
 8746WAT    EPW35706   2.778   1.790   3.614
 8747WAT      O35707   2.867   1.113   2.089
 8747WAT     H135708   2.875   1.138   2.006
 8747WAT     H235709   2.793   1.151   2.115
 8747WAT    EPW35710   2.857   1.122   2.081
 8748WAT      O35711   3.792   2.304   3.231
 8748WAT     H135712   3.788   2.217   3.217
 8748WAT     H235713   3.722   2.334   3.187
 8748WAT    EPW35714   3.781   2.295   3.222
 8749WAT      O35715   2.631   2.823   3.651
 8749WAT     H135716   2.635   2.836   3.737
 8749WAT     H235717   2.696   2.767   3.636
 8749WAT    EPW35718   2.641   2.817   3.662
 8750WAT      O35719   2.349   1.288   3.333
 8750WAT     H135720   2.315   1.212   3.310
 8750WAT     H235721   2.279   1.341   3.340
 8750WAT    EPW35722   2.334   1.285   3.331
 8751WAT      O35723   3.254   1.174   3.031
 8751WAT     H135724   3.321   1.228   3.044
 8751WAT     H235725   3.203   1.216   2.974
 8751WAT    EPW35726   3.256   1.188   3.024
 8752WAT      O35727   2.390   2.662   3.787
 8752WAT     H135728   2.450   2.705   3.834
 8752WAT     H235729   2.354   2.724   3.738
 8752WAT    EPW35730   2.394   2.677   3.787
 8753WAT      O35731   3.189   1.755   2.780
 8753WAT     H135732   3.245   1.694   2.810
 8753WAT     H235733   3.147   1.781   2.852
 8753WAT    EPW35734   3.191   1.750   2.795
 8754WAT      O35735   2.214   1.620   2.729
 8754WAT     H135736   2.177   1.650   2.802
 8754WAT     H235737   2.268   1.557   2.757
 8754WAT    EPW35738   2.217   1.615   2.744
 8755WAT      O35739   2.183   2.461   3.480
 8755WAT     H135740   2.126   2.502   3.531
 8755WAT     H235741   2.256   2.507   3.490
 8755WAT    EPW35742   2.185   2.474   3.489
 8756WAT      O35743   3.386   1.938   2.437
 8756WAT     H135744   3.393   1.853   2.455
 8756WAT     H235745   3.304   1.946   2.409
 8756WAT    EPW35746   3.375   1.927   2.435
 8757WAT      O35747   2.362   2.787   2.358
 8757WAT     H135748   2.347   2.803   2.273
 8757WAT     H235749   2.448   2.795   2.365
 8757WAT    EPW35750   2.372   2.791   2.346
 8758WAT      O35751   2.778   2.027   2.330
 8758WAT     H135752   2.788   2.041   2.245
 8758WAT     H235753   2.860   2.021   2.360
 8758WAT    EPW35754   2.792   2.028   2.322
 8759WAT      O35755   3.714   2.075   3.752
 8759WAT     H135756   3.777   2.058   3.809
 8759WAT     H235757   3.756   2.115   3.686
 8759WAT    EPW35758   3.729   2.079   3.751
 8760WAT      O35759   3.302   2.460   2.311
 8760WAT     H135760   3.277   2.447   2.393
 8760WAT     H235761   3.270   2.390   2.268
 8760WAT    EPW35762   3.293   2.448   2.317
 8761WAT      O35763   3.776   1.532   3.825
 8761WAT     H135764   3.757   1.596   3.881
 8761WAT     H235765   3.704   1.483   3.825
 8761WAT    EPW35766   3.763   1.534   3.834
 8762WAT      O35767   2.692   1.324   3.642
 8762WAT     H135768   2.716   1.267   3.581
 8762WAT     H235769   2.608   1.306   3.656
 8762WAT    EPW35770   2.683   1.313   3.635
 8763WAT      O35771   2.430   2.669   3.005
 8763WAT     H135772   2.422   2.588   2.974
 8763WAT     H235773   2.386   2.717   2.948
 8763WAT    EPW35774   2.423   2.664   2.992
 8764WAT      O35775   2.990   2.281   2.254
 8764WAT     H135776   3.062   2.246   2.218
 8764WAT     H235777   2.987   2.361   2.219
 8764WAT    EPW35778   3.001   2.287   2.243
 8765WAT      O35779   2.188   2.893   3.363
 8765WAT     H135780   2.237   2.888   3.435
 8765WAT     H235781   2.206   2.820   3.320
 8765WAT    EPW35782   2.198   2.881   3.368
 8766WAT      O35783   3.131   1.145   0.677
 8766WAT     H135784   3.107   1.194   0.609
 8766WAT     H235785   3.218   1.137   0.667
 8766WAT    EPW35786   3.140   1.151   0.666
 8767WAT      O35787   3.112   1.836   1.145
 8767WAT     H135788   3.060   1.896   1.181
 8767WAT     H235789   3.152   1.800   1.213
 8767WAT    EPW35790   3.110   1.840   1.160
 8768WAT      O35791   2.099   2.250   0.690
 8768WAT     H135792   2.055   2.262   0.764
 8768WAT     H235793   2.071   2.173   0.662
 8768WAT    EPW35794   2.088   2.241   0.697
 8769WAT      O35795   3.727   2.580   0.442
 8769WAT     H135796   3.797   2.529   0.441
 8769WAT     H235797   3.668   2.536   0.395
 8769WAT    EPW35798   3.728   2.566   0.435
 8770WAT      O35799   2.073   1.630   0.341
 8770WAT     H135800   1.996   1.646   0.305
 8770WAT     H235801   2.077   1.542   0.343
 8770WAT    EPW35802   2.063   1.619   0.336
 8771WAT      O35803   2.387   2.156   0.208
 8771WAT     H135804   2.348   2.119   0.139
 8771WAT     H235805   2.379   2.096   0.271
 8771WAT    EPW35806   2.380   2.142   0.207
 8772WAT      O35807   3.379   1.943   0.812
 8772WAT     H135808   3.387   1.943   0.725
 8772WAT     H235809   3.321   1.880   0.827
 8772WAT    EPW35810   3.372   1.934   0.802
 8773WAT      O35811   2.350   2.320   0.598
 8773WAT     H135812   2.411   2.303   0.658
 8773WAT     H235813   2.275   2.306   0.640
 8773WAT    EPW35814   2.348   2.315   0.613
 8774WAT      O35815   2.778   1.253   0.593
 8774WAT     H135816   2.771   1.321   0.538
 8774WAT     H235817   2.852   1.215   0.568
 8774WAT    EPW35818   2.788   1.258   0.581
 8775WAT      O35819   2.239   2.629   0.206
 8775WAT     H135820   2.286   2.637   0.133
 8775WAT     H235821   2.285   2.571   0.253
 8775WAT    EPW35822   2.253   2.622   0.202
 8776WAT      O35823   2.093   2.524   1.316
 8776WAT     H135824   2.106   2.496   1.397
 8776WAT     H235825   2.032   2.470   1.285
 8776WAT    EPW35826   2.086   2.512   1.323
 8777WAT      O35827   2.751   2.276   1.822
 8777WAT     H135828   2.727   2.276   1.906
 8777WAT     H235829   2.676   2.262   1.780
 8777WAT    EPW35830   2.736   2.274   1.828
 8778WAT      O35831   2.238   1.976   0.736
 8778WAT     H135832   2.192   1.937   0.673
 8778WAT     H235833   2.308   1.925   0.745
 8778WAT    EPW35834   2.241   1.963   0.728
 8779WAT      O35835   2.689   1.537   1.271
 8779WAT     H135836   2.756   1.539   1.216
 8779WAT     H235837   2.684   1.453   1.295
 8779WAT    EPW35838   2.698   1.525   1.266
 8780WAT      O35839   2.749   2.596   1.549
 8780WAT     H135840   2.763   2.672   1.508
 8780WAT     H235841   2.828   2.559   1.551
 8780WAT    EPW35842   2.762   2.601   1.543
 8781WAT      O35843   2.438   1.786   0.738
 8781WAT     H135844   2.520   1.767   0.762
 8781WAT     H235845   2.390   1.725   0.778
 8781WAT    EPW35846   2.443   1.774   0.748
 8782WAT      O35847   2.858   2.384   0.999
 8782WAT     H135848   2.893   2.304   1.002
 8782WAT     H235849   2.925   2.434   0.974
 8782WAT    EPW35850   2.873   2.380   0.996
 8783WAT      O35851   2.864   2.329   0.620
 8783WAT     H135852   2.897   2.265   0.669
 8783WAT     H235853   2.888   2.308   0.539
 8783WAT    EPW35854   2.872   2.316   0.615
 8784WAT      O35855   3.061   1.742   1.754
 8784WAT     H135856   2.976   1.732   1.736
 8784WAT     H235857   3.064   1.817   1.800
 8784WAT    EPW35858   3.049   1.752   1.758
 8785WAT      O35859   2.498   1.295   0.665
 8785WAT     H135860   2.468   1.345   0.600
 8785WAT     H235861   2.584   1.303   0.659
 8785WAT    EPW35862   2.506   1.304   0.654
 8786WAT      O35863   3.517   1.038   1.666
 8786WAT     H135864   3.501   1.115   1.627
 8786WAT     H235865   3.439   1.016   1.700
 8786WAT    EPW35866   3.503   1.046   1.665
 8787WAT      O35867   2.795   1.210   0.887
 8787WAT     H135868   2.803   1.296   0.900
 8787WAT     H235869   2.792   1.202   0.800
 8787WAT    EPW35870   2.796   1.221   0.876
 8788WAT      O35871   2.083   1.752   1.037
 8788WAT     H135872   2.058   1.835   1.030
 8788WAT     H235873   2.017   1.714   1.079
 8788WAT    EPW35874   2.070   1.759   1.042
 8789WAT      O35875   2.074   2.723   0.827
 8789WAT     H135876   2.015   2.779   0.796
 8789WAT     H235877   2.117   2.696   0.756
 8789WAT    EPW35878   2.072   2.727   0.812
 8790WAT      O35879   2.658   2.507   0.575
 8790WAT     H135880   2.600   2.480   0.634
 8790WAT     H235881   2.721   2.447   0.578
 8790WAT    EPW35882   2.659   2.494   0.584
 8791WAT      O35883   3.273   2.736   0.327
 8791WAT     H135884   3.345   2.783   0.338
 8791WAT     H235885   3.296   2.657   0.355
 8791WAT    EPW35886   3.287   2.732   0.333
 8792WAT      O35887   3.089   2.775   0.526
 8792WAT     H135888   3.111   2.828   0.593
 8792WAT     H235889   3.166   2.758   0.488
 8792WAT    EPW35890   3.104   2.781   0.531
 8793WAT      O35891   2.386   1.234   1.086
 8793WAT     H135892   2.334   1.171   1.055
 8793WAT     H235893   2.445   1.190   1.133
 8793WAT    EPW35894   2.387   1.218   1.089
 8794WAT      O35895   2.717   1.447   2.016
 8794WAT     H135896   2.729   1.402   1.942
 8794WAT     H235897   2.746   1.527   1.996
 8794WAT    EPW35898   2.723   1.452   2.002
 8795WAT      O35899   2.229   2.590   0.620
 8795WAT     H135900   2.294   2.533   0.622
 8795WAT     H235901   2.268   2.665   0.598
 8795WAT    EPW35902   2.244   2.593   0.617
 8796WAT      O35903   3.802   1.499   0.746
 8796WAT     H135904   3.768   1.567   0.789
 8796WAT     H235905   3.739   1.440   0.748
 8796WAT    EPW35906   3.788   1.501   0.753
 8797WAT      O35907   3.333   2.776   1.357
 8797WAT     H135908   3.408   2.822   1.356
 8797WAT     H235909   3.321   2.755   1.273
 8797WAT    EPW35910   3.343   2.780   1.344
 8798WAT      O35911   2.290   1.407   1.914
 8798WAT     H135912   2.212   1.368   1.907
 8798WAT     H235913   2.339   1.366   1.855
 8798WAT    EPW35914   2.286   1.395   1.905
 8799WAT      O35915   2.311   2.439   0.970
 8799WAT     H135916   2.353   2.403   0.903
 8799WAT     H235917   2.343   2.397   1.039
 8799WAT    EPW35918   2.322   2.427   0.971
 8800WAT      O35919   2.634   2.724   0.900
 8800WAT     H135920   2.718   2.734   0.880
 8800WAT     H235921   2.604   2.806   0.907
 8800WAT    EPW35922   2.642   2.738   0.898
 8801WAT      O35923   2.955   1.171   1.831
 8801WAT     H135924   2.973   1.090   1.804
 8801WAT     H235925   2.941   1.215   1.757
 8801WAT    EPW35926   2.956   1.166   1.816
 8802WAT      O35927   3.014   1.664   0.709
 8802WAT     H135928   3.043   1.640   0.630
 8802WAT     H235929   3.088   1.672   0.755
 8802WAT    EPW35930   3.029   1.661   0.704
 8803WAT      O35931   3.087   1.698   0.221
 8803WAT     H135932   3.115   1.776   0.246
 8803WAT     H235933   3.009   1.714   0.184
 8803WAT    EPW35934   3.079   1.712   0.219
 8804WAT      O35935   3.491   2.895   0.367
 8804WAT     H135936   3.557   2.880   0.313
 8804WAT     H235937   3.527   2.887   0.446
 8804WAT    EPW35938   3.506   2.892   0.371
 8805WAT      O35939   2.534   2.846   1.474
 8805WAT     H135940   2.563   2.839   1.556
 8805WAT     H235941   2.471   2.785   1.469
 8805WAT    EPW35942   2.529   2.836   1.485
 8806WAT      O35943   3.770   1.332   1.283
 8806WAT     H135944   3.845   1.339   1.241
 8806WAT     H235945   3.776   1.254   1.323
 8806WAT    EPW35946   3.782   1.321   1.283
 8807WAT      O35947   2.025   1.462   1.673
 8807WAT     H135948   2.025   1.520   1.738
 8807WAT     H235949   2.084   1.493   1.617
 8807WAT    EPW35950   2.034   1.475   1.674
 8808WAT      O35951   3.259   2.495   1.727
 8808WAT     H135952   3.255   2.533   1.806
 8808WAT     H235953   3.344   2.491   1.710
 8808WAT    EPW35954   3.271   2.500   1.736
 8809WAT      O35955   2.973   2.515   0.202
 8809WAT     H135956   2.954   2.569   0.268
 8809WAT     H235957   3.049   2.544   0.172
 8809WAT    EPW35958   2.981   2.527   0.208
 8810WAT      O35959   3.323   1.304   0.308
 8810WAT     H135960   3.377   1.236   0.315
 8810WAT     H235961   3.329   1.344   0.385
 8810WAT    EPW35962   3.332   1.300   0.320
 8811WAT      O35963   2.119   1.421   0.565
 8811WAT     H135964   2.107   1.335   0.568
 8811WAT     H235965   2.071   1.450   0.632
 8811WAT    EPW35966   2.110   1.413   0.575
 8812WAT      O35967   2.333   2.662   1.386
 8812WAT     H135968   2.263   2.611   1.399
 8812WAT     H235969   2.359   2.642   1.305
 8812WAT    EPW35970   2.326   2.652   1.376
 8813WAT      O35971   3.049   1.542   0.439
 8813WAT     H135972   2.998   1.476   0.414
 8813WAT     H235973   3.054   1.592   0.368
 8813WAT    EPW35974   3.042   1.540   0.425
 8814WAT      O35975   3.104   2.811   1.477
 8814WAT     H135976   3.181   2.803   1.436
 8814WAT     H235977   3.046   2.799   1.413
 8814WAT    EPW35978   3.107   2.808   1.462
 8815WAT      O35979   3.049   1.236   0.428
 8815WAT     H135980   3.004   1.196   0.366
 8815WAT     H235981   3.126   1.251   0.391
 8815WAT    EPW35982   3.054   1.232   0.413
 8816WAT      O35983   3.732   2.872   0.767
 8816WAT     H135984   3.686   2.943   0.787
 8816WAT     H235985   3.670   2.815   0.743
 8816WAT    EPW35986   3.716   2.874   0.767
 8817WAT      O35987   2.909   1.473   0.880
 8817WAT     H135988   2.916   1.529   0.815
 8817WAT     H235989   2.921   1.522   0.951
 8817WAT    EPW35990   2.912   1.488   0.881
 8818WAT      O35991   3.431   2.456   0.722
 8818WAT     H135992   3.501   2.408   0.740
 8818WAT     H235993   3.365   2.399   0.726
 8818WAT    EPW35994   3.432   2.441   0.725
 8819WAT      O35995   2.469   2.547   1.643
 8819WAT     H135996   2.553   2.553   1.621
 8819WAT     H235997   2.465   2.587   1.720
 8819WAT    EPW35998   2.481   2.554   1.651
 8820WAT      O35999   2.370   1.055   0.715
 8820WAT     H136000   2.423   1.124   0.714
 8820WAT     H236001   2.370   1.028   0.632
 8820WAT    EPW36002   2.378   1.061   0.703
 8821WAT      O36003   2.665   2.098   1.118
 8821WAT     H136004   2.682   2.077   1.201
 8821WAT     H236005   2.600   2.045   1.096
 8821WAT    EPW36006   2.658   2.087   1.127
 8822WAT      O36007   3.288   1.490   1.469
 8822WAT     H136008   3.279   1.522   1.550
 8822WAT     H236009   3.229   1.426   1.465
 8822WAT    EPW36010   3.278   1.485   1.481
 8823WAT      O36011   2.740   2.092   1.377
 8823WAT     H136012   2.746   2.177   1.397
 8823WAT     H236013   2.712   2.055   1.450
 8823WAT    EPW36014   2.737   2.099   1.390
 8824WAT      O36015   3.358   2.162   1.290
 8824WAT     H136016   3.307   2.120   1.347
 8824WAT     H236017   3.345   2.246   1.308
 8824WAT    EPW36018   3.349   2.168   1.301
 8825WAT      O36019   3.414   1.084   0.753
 8825WAT     H136020   3.419   1.052   0.834
 8825WAT     H236021   3.446   1.020   0.703
 8825WAT    EPW36022   3.419   1.070   0.757
 8826WAT      O36023   2.022   2.529   1.998
 8826WAT     H136024   2.098   2.564   2.024
 8826WAT     H236025   2.040   2.444   1.992
 8826WAT    EPW36026   2.036   2.522   2.001
 8827WAT      O36027   3.660   1.508   1.584
 8827WAT     H136028   3.737   1.485   1.617
 8827WAT     H236029   3.613   1.529   1.654
 8827WAT    EPW36030   3.664   1.508   1.599
 8828WAT      O36031   2.414   1.436   0.881
 8828WAT     H136032   2.442   1.393   0.810
 8828WAT     H236033   2.397   1.372   0.938
 8828WAT    EPW36034   2.416   1.420   0.879
 8829WAT      O36035   3.683   2.205   0.302
 8829WAT     H136036   3.695   2.177   0.384
 8829WAT     H236037   3.764   2.208   0.269
 8829WAT    EPW36038   3.697   2.202   0.310
 8830WAT      O36039   2.397   2.179   0.835
 8830WAT     H136040   2.482   2.171   0.818
 8830WAT     H236041   2.361   2.110   0.794
 8830WAT    EPW36042   2.404   2.167   0.827
 8831WAT      O36043   2.274   2.851   0.959
 8831WAT     H136044   2.206   2.801   0.935
 8831WAT     H236045   2.314   2.870   0.884
 8831WAT    EPW36046   2.270   2.847   0.944
 8832WAT      O36047   2.229   1.546   1.189
 8832WAT     H136048   2.313   1.568   1.184
 8832WAT     H236049   2.190   1.603   1.136
 8832WAT    EPW36050   2.235   1.558   1.180
 8833WAT      O36051   3.907   2.656   1.728
 8833WAT     H136052   3.838   2.687   1.683
 8833WAT     H236053   3.870   2.611   1.792
 8833WAT    EPW36054   3.891   2.654   1.731
 8834WAT      O36055   3.473   1.859   0.261
 8834WAT     H136056   3.451   1.932   0.219
 8834WAT     H236057   3.428   1.864   0.336
 8834WAT    EPW36058   3.463   1.871   0.266
 8835WAT      O36059   2.634   2.179   0.659
 8835WAT     H136060   2.705   2.229   0.668
 8835WAT     H236061   2.656   2.123   0.596
 8835WAT    EPW36062   2.647   2.178   0.651
 8836WAT      O36063   3.891   1.345   0.206
 8836WAT     H136064   3.825   1.288   0.208
 8836WAT     H236065   3.872   1.396   0.138
 8836WAT    EPW36066   3.879   1.344   0.196
 8837WAT      O36067   2.049   2.344   0.991
 8837WAT     H136068   1.983   2.392   1.019
 8837WAT     H236069   2.117   2.398   0.994
 8837WAT    EPW36070   2.049   2.359   0.995
 8838WAT      O36071   2.814   1.715   2.001
 8838WAT     H136072   2.766   1.772   2.045
 8838WAT     H236073   2.811   1.744   1.918
 8838WAT    EPW36074   2.806   1.728   1.995
 8839WAT      O36075   3.924   1.783   1.462
 8839WAT     H136076   3.945   1.703   1.434
 8839WAT     H236077   3.839   1.789   1.443
 8839WAT    EPW36078   3.914   1.772   1.455
 8840WAT      O36079   2.056   2.012   0.501
 8840WAT     H136080   2.037   1.928   0.516
 8840WAT     H236081   2.122   2.008   0.444
 8840WAT    EPW36082   2.063   1.999   0.495
 8841WAT      O36083   3.692   1.301   0.434
 8841WAT     H136084   3.766   1.260   0.454
 8841WAT     H236085   3.718   1.373   0.392
 8841WAT    EPW36086   3.707   1.306   0.431
 8842WAT      O36087   3.086   2.550   0.892
 8842WAT     H136088   3.034   2.613   0.862
 8842WAT     H236089   3.117   2.513   0.819
 8842WAT    EPW36090   3.083   2.554   0.877
 8843WAT      O36091   2.073   2.428   0.459
 8843WAT     H136092   2.128   2.485   0.495
 8843WAT     H236093   2.050   2.377   0.525
 8843WAT    EPW36094   2.078   2.429   0.474
 8844WAT      O36095   2.493   2.328   1.168
 8844WAT     H136096   2.540   2.357   1.235
 8844WAT     H236097   2.551   2.281   1.122
 8844WAT    EPW36098   2.509   2.326   1.171
 8845WAT      O36099   3.337   1.530   0.941
 8845WAT     H136100   3.371   1.545   1.020
 8845WAT     H236101   3.292   1.456   0.953
 8845WAT    EPW36102   3.335   1.521   0.955
 8846WAT      O36103   2.056   2.273   0.222
 8846WAT     H136104   2.132   2.230   0.227
 8846WAT     H236105   2.058   2.327   0.291
 8846WAT    EPW36106   2.067   2.275   0.233
 8847WAT      O36107   2.150   2.095   1.022
 8847WAT     H136108   2.193   2.083   0.947
 8847WAT     H236109   2.130   2.180   1.019
 8847WAT    EPW36110   2.153   2.106   1.011
 8848WAT      O36111   2.785   1.452   0.387
 8848WAT     H136112   2.784   1.440   0.301
 8848WAT     H236113   2.767   1.537   0.396
 8848WAT    EPW36114   2.782   1.463   0.376
 8849WAT      O36115   3.690   2.695   1.537
 8849WAT     H136116   3.623   2.746   1.559
 8849WAT     H236117   3.696   2.705   1.450
 8849WAT    EPW36118   3.681   2.704   1.527
 8850WAT      O36119   2.558   2.447   0.850
 8850WAT     H136120   2.571   2.531   0.869
 8850WAT     H236121   2.625   2.407   0.890
 8850WAT    EPW36122   2.570   2.454   0.859
 8851WAT      O36123   2.371   1.795   1.836
 8851WAT     H136124   2.318   1.745   1.883
 8851WAT     H236125   2.373   1.756   1.758
 8851WAT    EPW36126   2.364   1.782   1.832
 8852WAT      O36127   2.420   1.735   0.350
 8852WAT     H136128   2.407   1.690   0.424
 8852WAT     H236129   2.362   1.701   0.295
 8852WAT    EPW36130   2.409   1.723   0.353
 8853WAT      O36131   2.437   1.918   1.010
 8853WAT     H136132   2.359   1.912   0.972
 8853WAT     H236133   2.444   1.843   1.054
 8853WAT    EPW36134   2.426   1.906   1.011
 8854WAT      O36135   2.480   1.892   1.357
 8854WAT     H136136   2.482   1.824   1.302
 8854WAT     H236137   2.415   1.941   1.326
 8854WAT    EPW36138   2.471   1.889   1.344
 8855WAT      O36139   3.469   1.663   1.197
 8855WAT     H136140   3.403   1.696   1.243
 8855WAT     H236141   3.488   1.726   1.140
 8855WAT    EPW36142   3.462   1.677   1.195
 8856WAT      O36143   2.890   2.769   1.296
 8856WAT     H136144   2.862   2.705   1.244
 8856WAT     H236145   2.869   2.842   1.253
 8856WAT    EPW36146   2.883   2.771   1.282
 8857WAT      O36147   3.134   1.254   1.540
 8857WAT     H136148   3.149   1.171   1.515
 8857WAT     H236149   3.172   1.259   1.618
 8857WAT    EPW36150   3.141   1.242   1.548
 8858WAT      O36151   3.288   1.460   0.548
 8858WAT     H136152   3.337   1.532   0.540
 8858WAT     H236153   3.209   1.486   0.522
 8858WAT    EPW36154   3.284   1.474   0.543
 8859WAT      O36155   2.260   2.027   1.913
 8859WAT     H136156   2.256   2.077   1.842
 8859WAT     H236157   2.293   1.952   1.884
 8859WAT    EPW36158   2.264   2.023   1.898
 8860WAT      O36159   3.420   2.248   1.739
 8860WAT     H136160   3.468   2.320   1.749
 8860WAT     H236161   3.459   2.205   1.674
 8860WAT    EPW36162   3.433   2.252   1.731
 8861WAT      O36163   2.849   2.532   1.857
 8861WAT     H136164   2.885   2.514   1.934
 8861WAT     H236165   2.806   2.459   1.837
 8861WAT    EPW36166   2.848   2.519   1.865
 8862WAT      O36167   2.947   1.607   1.120
 8862WAT     H136168   2.995   1.677   1.141
 8862WAT     H236169   2.984   1.542   1.165
 8862WAT    EPW36170   2.959   1.608   1.130
 8863WAT      O36171   3.166   1.924   0.348
 8863WAT     H136172   3.165   1.996   0.299
 8863WAT     H236173   3.102   1.937   0.405
 8863WAT    EPW36174   3.156   1.937   0.349
 8864WAT      O36175   3.663   2.311   0.746
 8864WAT     H136176   3.698   2.276   0.817
 8864WAT     H236177   3.662   2.245   0.689
 8864WAT    EPW36178   3.668   2.296   0.748
 8865WAT      O36179   3.267   2.617   1.130
 8865WAT     H136180   3.207   2.588   1.075
 8865WAT     H236181   3.322   2.663   1.079
 8865WAT    EPW36182   3.266   2.620   1.114
 8866WAT      O36183   3.269   2.303   1.070
 8866WAT     H136184   3.189   2.325   1.098
 8866WAT     H236185   3.294   2.243   1.129
 8866WAT    EPW36186   3.261   2.297   1.083
 8867WAT      O36187   2.658   2.784   0.515
 8867WAT     H136188   2.643   2.706   0.552
 8867WAT     H236189   2.727   2.769   0.464
 8867WAT    EPW36190   2.666   2.770   0.513
 8868WAT      O36191   2.625   1.158   0.314
 8868WAT     H136192   2.635   1.147   0.400
 8868WAT     H236193   2.554   1.209   0.307
 8868WAT    EPW36194   2.616   1.164   0.326
 8869WAT      O36195   2.887   2.735   0.355
 8869WAT     H136196   2.949   2.752   0.414
 8869WAT     H236197   2.891   2.804   0.302
 8869WAT    EPW36198   2.897   2.748   0.356
 8870WAT      O36199   3.595   2.102   1.555
 8870WAT     H136200   3.600   2.115   1.469
 8870WAT     H236201   3.670   2.134   1.585
 8870WAT    EPW36202   3.606   2.109   1.547
 8871WAT      O36203   3.214   2.637   1.983
 8871WAT     H136204   3.230   2.666   2.063
 8871WAT     H236205   3.240   2.703   1.932
 8871WAT    EPW36206   3.220   2.651   1.987
 8872WAT      O36207   3.698   1.132   1.854
 8872WAT     H136208   3.634   1.092   1.809
 8872WAT     H236209   3.700   1.089   1.929
 8872WAT    EPW36210   3.689   1.120   1.858
 8873WAT      O36211   2.337   1.989   0.438
 8873WAT     H136212   2.369   1.911   0.416
 8873WAT     H236213   2.402   2.026   0.484
 8873WAT    EPW36214   2.351   1.983   0.442
 8874WAT      O36215   3.168   2.083   1.515
 8874WAT     H136216   3.152   2.144   1.575
 8874WAT     H236217   3.221   2.027   1.555
 8874WAT    EPW36218   3.173   2.084   1.530
 8875WAT      O36219   2.037   1.155   0.535
 8875WAT     H136220   2.050   1.084   0.486
 8875WAT     H236221   2.000   1.123   0.607
 8875WAT    EPW36222   2.033   1.140   0.538
 8876WAT      O36223   3.006   1.923   0.581
 8876WAT     H136224   3.012   1.988   0.639
 8876WAT     H236225   2.987   1.853   0.630
 8876WAT    EPW36226   3.004   1.922   0.596
 8877WAT      O36227   3.529   2.356   1.168
 8877WAT     H136228   3.481   2.386   1.101
 8877WAT     H236229   3.493   2.278   1.185
 8877WAT    EPW36230   3.516   2.349   1.160
 8878WAT      O36231   2.456   1.375   0.232
 8878WAT     H136232   2.405   1.380   0.161
 8878WAT     H236233   2.534   1.399   0.202
 8878WAT    EPW36234   2.460   1.379   0.217
 8879WAT      O36235   2.928   2.128   1.024
 8879WAT     H136236   2.844   2.108   1.032
 8879WAT     H236237   2.961   2.111   1.103
 8879WAT    EPW36238   2.921   2.122   1.037
 8880WAT      O36239   2.313   2.097   1.255
 8880WAT     H136240   2.385   2.146   1.252
 8880WAT     H236241   2.286   2.094   1.172
 8880WAT    EPW36242   2.320   2.104   1.243
 8881WAT      O36243   2.636   1.614   0.929
 8881WAT     H136244   2.721   1.595   0.939
 8881WAT     H236245   2.599   1.536   0.915
 8881WAT    EPW36246   2.643   1.600   0.928
 8882WAT      O36247   3.898   2.772   0.362
 8882WAT     H136248   3.967   2.726   0.337
 8882WAT     H236249   3.844   2.713   0.395
 8882WAT    EPW36250   3.900   2.757   0.363
 8883WAT      O36251   2.118   1.748   0.594
 8883WAT     H136252   2.167   1.719   0.660
 8883WAT     H236253   2.131   1.689   0.532
 8883WAT    EPW36254   2.127   1.735   0.595
 8884WAT      O36255   3.622   2.050   1.279
 8884WAT     H136256   3.621   1.972   1.319
 8884WAT     H236257   3.538   2.073   1.279
 8884WAT    EPW36258   3.609   2.042   1.285
 8885WAT      O36259   2.253   2.202   1.683
 8885WAT     H136260   2.211   2.150   1.627
 8885WAT     H236261   2.217   2.281   1.669
 8885WAT    EPW36262   2.241   2.206   1.673
 8886WAT      O36263   3.747   2.057   1.023
 8886WAT     H136264   3.719   2.097   1.095
 8886WAT     H236265   3.833   2.051   1.036
 8886WAT    EPW36266   3.756   2.062   1.036
 8887WAT      O36267   2.716   1.737   0.414
 8887WAT     H136268   2.743   1.820   0.421
 8887WAT     H236269   2.630   1.745   0.404
 8887WAT    EPW36270   2.708   1.751   0.413
 8888WAT      O36271   3.514   1.450   1.877
 8888WAT     H136272   3.461   1.495   1.930
 8888WAT     H236273   3.477   1.370   1.877
 8888WAT    EPW36274   3.500   1.445   1.885
 8889WAT      O36275   2.064   1.334   1.068
 8889WAT     H136276   2.069   1.369   0.987
 8889WAT     H236277   2.140   1.358   1.104
 8889WAT    EPW36278   2.076   1.343   1.061
 8890WAT      O36279   3.860   2.620   1.076
 8890WAT     H136280   3.889   2.646   0.998
 8890WAT     H236281   3.930   2.630   1.128
 8890WAT    EPW36282   3.875   2.626   1.072
 8891WAT      O36283   3.363   1.806   1.885
 8891WAT     H136284   3.370   1.817   1.971
 8891WAT     H236285   3.299   1.862   1.863
 8891WAT    EPW36286   3.354   1.816   1.894
 8892WAT      O36287   3.590   1.838   1.721
 8892WAT     H136288   3.621   1.917   1.742
 8892WAT     H236289   3.553   1.811   1.796
 8892WAT    EPW36290   3.589   1.846   1.735
 8893WAT      O36291   3.521   2.481   0.274
 8893WAT     H136292   3.554   2.400   0.278
 8893WAT     H236293   3.445   2.474   0.317
 8893WAT    EPW36294   3.515   2.468   0.281
 8894WAT      O36295   3.569   1.664   0.840
 8894WAT     H136296   3.495   1.632   0.872
 8894WAT     H236297   3.569   1.747   0.868
 8894WAT    EPW36298   3.558   1.672   0.849
 8895WAT      O36299   3.859   1.893   1.995
 8895WAT     H136300   3.854   1.858   1.915
 8895WAT     H236301   3.933   1.939   1.993
 8895WAT    EPW36302   3.869   1.894   1.983
 8896WAT      O36303   3.813   2.260   1.615
 8896WAT     H136304   3.876   2.205   1.590
 8896WAT     H236305   3.807   2.317   1.549
 8896WAT    EPW36306   3.822   2.260   1.602
 8897WAT      O36307   3.258   2.268   0.215
 8897WAT     H136308   3.327   2.217   0.198
 8897WAT     H236309   3.217   2.273   0.138
 8897WAT    EPW36310   3.262   2.261   0.201
 8898WAT      O36311   2.727   2.383   1.345
 8898WAT     H136312   2.697   2.442   1.402
 8898WAT     H236313   2.732   2.427   1.270
 8898WAT    EPW36314   2.723   2.399   1.342
 8899WAT      O36315   2.524   2.278   1.685
 8899WAT     H136316   2.444   2.249   1.701
 8899WAT     H236317   2.516   2.365   1.685
 8899WAT    EPW36318   2.511   2.287   1.687
 8900WAT      O36319   3.460   1.297   1.586
 8900WAT     H136320   3.535   1.342   1.580
 8900WAT     H236321   3.404   1.344   1.539
 8900WAT    EPW36322   3.463   1.311   1.578
 8901WAT      O36323   2.978   2.026   1.294
 8901WAT     H136324   3.026   2.063   1.357
 8901WAT     H236325   2.896   2.039   1.320
 8901WAT    EPW36326   2.973   2.033   1.307
 8902WAT      O36327   2.649   1.586   1.568
 8902WAT     H136328   2.665   1.511   1.611
 8902WAT     H236329   2.645   1.561   1.485
 8902WAT    EPW36330   2.651   1.571   1.562
 8903WAT      O36331   2.905   2.765   0.817
 8903WAT     H136332   2.959   2.833   0.822
 8903WAT     H236333   2.870   2.773   0.737
 8903WAT    EPW36334   2.907   2.776   0.806
 8904WAT      O36335   3.589   1.095   1.353
 8904WAT     H136336   3.561   1.178   1.349
 8904WAT     H236337   3.660   1.100   1.403
 8904WAT    EPW36338   3.595   1.108   1.360
 8905WAT      O36339   2.824   1.167   1.556
 8905WAT     H136340   2.895   1.199   1.516
 8905WAT     H236341   2.848   1.086   1.579
 8905WAT    EPW36342   2.838   1.159   1.554
 8906WAT      O36343   2.723   2.588   1.156
 8906WAT     H136344   2.660   2.646   1.138
 8906WAT     H236345   2.748   2.559   1.077
 8906WAT    EPW36346   2.717   2.592   1.141
 8907WAT      O36347   3.154   2.251   1.855
 8907WAT     H136348   3.229   2.280   1.822
 8907WAT     H236349   3.099   2.256   1.787
 8907WAT    EPW36350   3.157   2.256   1.840
 8908WAT      O36351   3.545   2.506   1.705
 8908WAT     H136352   3.579   2.533   1.780
 8908WAT     H236353   3.574   2.564   1.647
 8908WAT    EPW36354   3.554   2.519   1.708
 8909WAT      O36355   3.731   1.721   0.239
 8909WAT     H136356   3.769   1.788   0.199
 8909WAT     H236357   3.647   1.743   0.242
 8909WAT    EPW36358   3.724   1.734   0.233
 8910WAT      O36359   2.475   1.672   1.162
 8910WAT     H136360   2.519   1.662   1.088
 8910WAT     H236361   2.530   1.641   1.223
 8910WAT    EPW36362   2.490   1.666   1.160
 8911WAT      O36363   3.277   1.582   1.721
 8911WAT     H136364   3.212   1.629   1.756
 8911WAT     H236365   3.333   1.573   1.787
 8911WAT    EPW36366   3.276   1.588   1.736
 8912WAT      O36367   3.246   1.736   1.351
 8912WAT     H136368   3.276   1.778   1.422
 8912WAT     H236369   3.249   1.652   1.374
 8912WAT    EPW36370   3.251   1.730   1.365
 8913WAT      O36371   2.988   2.753   1.744
 8913WAT     H136372   3.036   2.693   1.702
 8913WAT     H236373   2.953   2.708   1.810
 8913WAT    EPW36374   2.990   2.737   1.747
 8914WAT      O36375   3.500   1.681   0.576
 8914WAT     H136376   3.521   1.660   0.659
 8914WAT     H236377   3.576   1.707   0.542
 8914WAT    EPW36378   3.515   1.682   0.584
 8915WAT      O36379   2.830   1.170   1.167
 8915WAT     H136380   2.747   1.156   1.191
 8915WAT     H236381   2.826   1.174   1.080
 8915WAT    EPW36382   2.817   1.169   1.158
 8916WAT      O36383   3.603   1.289   0.724
 8916WAT     H136384   3.531   1.242   0.741
 8916WAT     H236385   3.586   1.323   0.645
 8916WAT    EPW36386   3.590   1.287   0.715
 8917WAT      O36387   3.647   2.083   0.562
 8917WAT     H136388   3.695   2.010   0.557
 8917WAT     H236389   3.565   2.055   0.554
 8917WAT    EPW36390   3.642   2.068   0.560
 8918WAT      O36391   2.994   2.274   1.646
 8918WAT     H136392   2.915   2.268   1.681
 8918WAT     H236393   3.001   2.359   1.626
 8918WAT    EPW36394   2.983   2.286   1.648
 8919WAT      O36395   2.086   1.210   1.770
 8919WAT     H136396   2.072   1.290   1.737
 8919WAT     H236397   2.008   1.186   1.799
 8919WAT    EPW36398   2.073   1.218   1.770
 8920WAT      O36399   2.577   2.895   1.177
 8920WAT     H136400   2.578   2.901   1.264
 8920WAT     H236401   2.535   2.820   1.162
 8920WAT    EPW36402   2.571   2.885   1.188
 8921WAT      O36403   2.393   1.485   0.493
 8921WAT     H136404   2.405   1.452   0.413
 8921WAT     H236405   2.312   1.460   0.513
 8921WAT    EPW36406   2.383   1.476   0.484
 8922WAT      O36407   3.269   2.200   0.797
 8922WAT     H136408   3.276   2.234   0.877
 8922WAT     H236409   3.285   2.115   0.809
 8922WAT    EPW36410   3.272   2.192   0.811
 8923WAT      O36411   3.021   2.127   0.754
 8923WAT     H136412   2.991   2.096   0.830
 8923WAT     H236413   3.090   2.175   0.777
 8923WAT    EPW36414   3.027   2.130   0.769
 8924WAT      O36415   3.043   2.539   1.557
 8924WAT     H136416   3.112   2.528   1.609
 8924WAT     H236417   3.056   2.618   1.522
 8924WAT    EPW36418   3.055   2.549   1.559
 8925WAT      O36419   3.861   1.800   1.738
 8925WAT     H136420   3.775   1.788   1.750
 8925WAT     H236421   3.876   1.761   1.661
 8925WAT    EPW36422   3.850   1.792   1.728
 8926WAT      O36423   3.312   1.867   1.595
 8926WAT     H136424   3.286   1.795   1.637
 8926WAT     H236425   3.394   1.878   1.622
 8926WAT    EPW36426   3.320   1.858   1.605
 8927WAT      O36427   2.253   2.845   1.722
 8927WAT     H136428   2.188   2.788   1.731
 8927WAT     H236429   2.216   2.922   1.737
 8927WAT    EPW36430   2.238   2.848   1.725
 8928WAT      O36431   3.105   1.986   1.914
 8928WAT     H136432   3.138   2.054   1.871
 8928WAT     H236433   3.035   2.018   1.954
 8928WAT    EPW36434   3.100   2.000   1.913
 8929WAT      O36435   3.414   2.823   1.007
 8929WAT     H136436   3.369   2.887   1.045
 8929WAT     H236437   3.484   2.815   1.057
 8929WAT    EPW36438   3.417   2.831   1.020
 8930WAT      O36439   3.084   2.332   1.300
 8930WAT     H136440   3.014   2.372   1.334
 8930WAT     H236441   3.151   2.375   1.334
 8930WAT    EPW36442   3.083   2.344   1.310
 8931WAT      O36443   3.621   2.591   1.958
 8931WAT     H136444   3.699   2.552   1.966
 8931WAT     H236445   3.575   2.558   2.023
 8931WAT    EPW36446   3.626   2.581   1.969
 8932WAT      O36447   2.391   1.686   1.535
 8932WAT     H136448   2.428   1.748   1.486
 8932WAT     H236449   2.458   1.638   1.563
 8932WAT    EPW36450   2.406   1.688   1.532
 8933WAT      O36451   2.168   1.531   1.462
 8933WAT     H136452   2.176   1.514   1.377
 8933WAT     H236453   2.243   1.571   1.482
 8933WAT    EPW36454   2.180   1.534   1.452
 8934WAT      O36455   3.724   1.795   0.506
 8934WAT     H136456   3.734   1.789   0.420
 8934WAT     H236457   3.798   1.761   0.538
 8934WAT    EPW36458   3.736   1.789   0.498
 8935WAT      O36459   2.423   1.272   1.703
 8935WAT     H136460   2.415   1.187   1.724
 8935WAT     H236461   2.392   1.276   1.622
 8935WAT    EPW36462   2.418   1.260   1.694
 8936WAT      O36463   3.116   2.491   0.617
 8936WAT     H136464   3.095   2.574   0.601
 8936WAT     H236465   3.038   2.453   0.629
 8936WAT    EPW36466   3.101   2.498   0.616
 8937WAT      O36467   3.634   1.809   1.442
 8937WAT     H136468   3.634   1.723   1.454
 8937WAT     H236469   3.641   1.842   1.522
 8937WAT    EPW36470   3.635   1.801   1.455
 8938WAT      O36471   2.108   2.053   1.484
 8938WAT     H136472   2.140   2.075   1.406
 8938WAT     H236473   2.098   1.967   1.479
 8938WAT    EPW36474   2.111   2.044   1.472
 8939WAT      O36475   3.222   1.289   1.820
 8939WAT     H136476   3.231   1.360   1.869
 8939WAT     H236477   3.158   1.245   1.860
 8939WAT    EPW36478   3.214   1.293   1.833
 8940WAT      O36479   3.121   1.308   0.905
 8940WAT     H136480   3.051   1.360   0.900
 8940WAT     H236481   3.125   1.270   0.827
 8940WAT    EPW36482   3.112   1.310   0.893
 8941WAT      O36483   2.652   2.517   0.258
 8941WAT     H136484   2.696   2.525   0.332
 8941WAT     H236485   2.572   2.496   0.283
 8941WAT    EPW36486   2.647   2.515   0.273
 8942WAT      O36487   3.481   1.360   1.185
 8942WAT     H136488   3.567   1.370   1.200
 8942WAT     H236489   3.444   1.415   1.242
 8942WAT    EPW36490   3.488   1.369   1.196
 8943WAT      O36491   2.584   1.982   1.623
 8943WAT     H136492   2.544   2.060   1.630
 8943WAT     H236493   2.543   1.945   1.555
 8943WAT    EPW36494   2.572   1.988   1.614
 8944WAT      O36495   3.512   1.888   1.034
 8944WAT     H136496   3.578   1.942   1.050
 8944WAT     H236497   3.477   1.919   0.960
 8944WAT    EPW36498   3.516   1.900   1.026
 8945WAT      O36499   3.543   2.694   0.615
 8945WAT     H136500   3.526   2.629   0.670
 8945WAT     H236501   3.614   2.667   0.573
 8945WAT    EPW36502   3.551   2.681   0.617
 8946WAT      O36503   2.385   2.424   0.318
 8946WAT     H136504   2.361   2.394   0.396
 8946WAT     H236505   2.382   2.354   0.266
 8946WAT    EPW36506   2.381   2.409   0.322
 8947WAT      O36507   2.667   2.249   0.192
 8947WAT     H136508   2.585   2.222   0.206
 8947WAT     H236509   2.664   2.334   0.211
 8947WAT    EPW36510   2.654   2.257   0.197
 8948WAT      O36511   2.627   1.280   1.368
 8948WAT     H136512   2.541   1.288   1.376
 8948WAT     H236513   2.649   1.229   1.435
 8948WAT    EPW36514   2.617   1.274   1.379
 8949WAT      O36515   3.829   1.144   1.501
 8949WAT     H136516   3.824   1.139   1.588
 8949WAT     H236517   3.897   1.093   1.482
 8949WAT    EPW36518   3.838   1.136   1.511
 8950WAT      O36519   3.037   1.355   1.205
 8950WAT     H136520   2.964   1.309   1.217
 8950WAT     H236521   3.094   1.315   1.258
 8950WAT    EPW36522   3.035   1.342   1.215
 8951WAT      O36523   3.310   2.440   1.384
 8951WAT     H136524   3.331   2.470   1.463
 8951WAT     H236525   3.304   2.512   1.336
 8951WAT    EPW36526   3.313   2.455   1.389
 8952WAT      O36527   3.264   2.861   1.809
 8952WAT     H136528   3.189   2.859   1.765
 8952WAT     H236529   3.281   2.946   1.817
 8952WAT    EPW36530   3.255   2.873   1.803
 8953WAT      O36531   2.788   1.788   1.726
 8953WAT     H136532   2.755   1.730   1.669
 8953WAT     H236533   2.752   1.863   1.701
 8953WAT    EPW36534   2.778   1.790   1.714
 8954WAT      O36535   3.792   2.304   1.330
 8954WAT     H136536   3.788   2.217   1.316
 8954WAT     H236537   3.722   2.334   1.287
 8954WAT    EPW36538   3.781   2.295   1.322
 8955WAT      O36539   2.631   2.823   1.751
 8955WAT     H136540   2.635   2.836   1.837
 8955WAT     H236541   2.696   2.767   1.735
 8955WAT    EPW36542   2.641   2.817   1.761
 8956WAT      O36543   3.602   2.630   1.210
 8956WAT     H136544   3.655   2.621   1.141
 8956WAT     H236545   3.563   2.552   1.215
 8956WAT    EPW36546   3.604   2.617   1.200
 8957WAT      O36547   2.349   1.288   1.433
 8957WAT     H136548   2.315   1.212   1.409
 8957WAT     H236549   2.279   1.341   1.439
 8957WAT    EPW36550   2.334   1.285   1.430
 8958WAT      O36551   3.254   1.174   1.130
 8958WAT     H136552   3.321   1.228   1.143
 8958WAT     H236553   3.203   1.216   1.073
 8958WAT    EPW36554   3.256   1.188   1.124
 8959WAT      O36555   2.390   2.662   1.887
 8959WAT     H136556   2.450   2.705   1.934
 8959WAT     H236557   2.354   2.724   1.838
 8959WAT    EPW36558   2.394   2.677   1.886
 8960WAT      O36559   3.189   1.755   0.880
 8960WAT     H136560   3.245   1.694   0.910
 8960WAT     H236561   3.147   1.781   0.951
 8960WAT    EPW36562   3.191   1.750   0.895
 8961WAT      O36563   2.214   1.620   0.828
 8961WAT     H136564   2.177   1.650   0.901
 8961WAT     H236565   2.268   1.557   0.857
 8961WAT    EPW36566   2.217   1.615   0.843
 8962WAT      O36567   2.183   2.461   1.579
 8962WAT     H136568   2.126   2.502   1.630
 8962WAT     H236569   2.256   2.507   1.589
 8962WAT    EPW36570   2.185   2.474   1.588
 8963WAT      O36571   3.386   1.938   0.536
 8963WAT     H136572   3.393   1.853   0.554
 8963WAT     H236573   3.304   1.946   0.508
 8963WAT    EPW36574   3.375   1.927   0.535
 8964WAT      O36575   2.362   2.787   0.457
 8964WAT     H136576   2.347   2.803   0.372
 8964WAT     H236577   2.448   2.795   0.465
 8964WAT    EPW36578   2.372   2.791   0.446
 8965WAT      O36579   2.778   2.027   0.430
 8965WAT     H136580   2.788   2.041   0.344
 8965WAT     H236581   2.860   2.021   0.459
 8965WAT    EPW36582   2.792   2.028   0.421
 8966WAT      O36583   3.694   2.833   0.178
 8966WAT     H136584   3.758   2.820   0.236
 8966WAT     H236585   3.660   2.754   0.166
 8966WAT    EPW36586   3.699   2.820   0.185
 8967WAT      O36587   3.714   2.075   1.851
 8967WAT     H136588   3.777   2.058   1.908
 8967WAT     H236589   3.756   2.115   1.786
 8967WAT    EPW36590   3.729   2.079   1.850
 8968WAT      O36591   3.302   2.460   0.410
 8968WAT     H136592   3.277   2.447   0.493
 8968WAT     H236593   3.270   2.390   0.368
 8968WAT    EPW36594   3.293   2.448   0.416
 8969WAT      O36595   3.776   1.532   1.925
 8969WAT     H136596   3.757   1.596   1.980
 8969WAT     H236597   3.704   1.483   1.924
 8969WAT    EPW36598   3.763   1.534   1.933
 8970WAT      O36599   3.766   1.626   1.222
 8970WAT     H136600   3.683   1.651   1.215
 8970WAT     H236601   3.761   1.542   1.245
 8970WAT    EPW36602   3.753   1.617   1.224
 8971WAT      O36603   2.692   1.324   1.741
 8971WAT     H136604   2.716   1.267   1.680
 8971WAT     H236605   2.608   1.306   1.755
 8971WAT    EPW36606   2.683   1.313   1.734
 8972WAT      O36607   3.455   2.086   1.987
 8972WAT     H136608   3.542   2.083   1.983
 8972WAT     H236609   3.433   2.128   1.913
 8972WAT    EPW36610   3.465   2.092   1.975
 8973WAT      O36611   2.430   2.669   1.105
 8973WAT     H136612   2.422   2.588   1.073
 8973WAT     H236613   2.386   2.717   1.047
 8973WAT    EPW36614   2.423   2.664   1.092
 8974WAT      O36615   2.990   2.281   0.353
 8974WAT     H136616   3.062   2.246   0.317
 8974WAT     H236617   2.987   2.361   0.318
 8974WAT    EPW36618   3.001   2.287   0.343
 8975WAT      O36619   2.188   2.893   1.463
 8975WAT     H136620   2.237   2.888   1.535
 8975WAT     H236621   2.206   2.820   1.419
 8975WAT    EPW36622   2.198   2.881   1.467
 8976WAT      O36623   2.099   0.403   6.392
 8976WAT     H136624   2.055   0.414   6.466
 8976WAT     H236625   2.071   0.325   6.363
 8976WAT    EPW36626   2.088   0.393   6.399
 8977WAT      O36627   3.727   0.733   6.143
 8977WAT     H136628   3.797   0.681   6.143
 8977WAT     H236629   3.668   0.688   6.097
 8977WAT    EPW36630   3.728   0.718   6.136
 8978WAT      O36631   2.387   0.308   5.910
 8978WAT     H136632   2.348   0.271   5.841
 8978WAT     H236633   2.379   0.248   5.973
 8978WAT    EPW36634   2.380   0.294   5.909
 8979WAT      O36635   2.350   0.472   6.300
 8979WAT     H136636   2.411   0.455   6.360
 8979WAT     H236637   2.275   0.458   6.342
 8979WAT    EPW36638   2.348   0.468   6.315
 8980WAT      O36639   2.239   0.781   5.908
 8980WAT     H136640   2.286   0.790   5.834
 8980WAT     H236641   2.285   0.723   5.954
 8980WAT    EPW36642   2.253   0.774   5.904
 8981WAT      O36643   2.093   0.676   7.017
 8981WAT     H136644   2.106   0.648   7.099
 8981WAT     H236645   2.032   0.622   6.987
 8981WAT    EPW36646   2.086   0.664   7.025
 8982WAT      O36647   2.751   0.429   7.524
 8982WAT     H136648   2.727   0.428   7.608
 8982WAT     H236649   2.676   0.414   7.482
 8982WAT    EPW36650   2.736   0.426   7.530
 8983WAT      O36651   2.749   0.748   7.250
 8983WAT     H136652   2.763   0.824   7.210
 8983WAT     H236653   2.828   0.711   7.253
 8983WAT    EPW36654   2.762   0.754   7.245
 8984WAT      O36655   2.858   0.536   6.701
 8984WAT     H136656   2.893   0.456   6.704
 8984WAT     H236657   2.925   0.587   6.675
 8984WAT    EPW36658   2.873   0.532   6.698
 8985WAT      O36659   2.864   0.481   6.322
 8985WAT     H136660   2.897   0.417   6.371
 8985WAT     H236661   2.888   0.460   6.241
 8985WAT    EPW36662   2.872   0.469   6.317
 8986WAT      O36663   2.074   0.875   6.529
 8986WAT     H136664   2.015   0.931   6.498
 8986WAT     H236665   2.117   0.848   6.458
 8986WAT    EPW36666   2.072   0.879   6.514
 8987WAT      O36667   2.658   0.660   6.277
 8987WAT     H136668   2.600   0.632   6.336
 8987WAT     H236669   2.721   0.599   6.279
 8987WAT    EPW36670   2.659   0.647   6.286
 8988WAT      O36671   3.273   0.888   6.029
 8988WAT     H136672   3.345   0.936   6.039
 8988WAT     H236673   3.296   0.809   6.057
 8988WAT    EPW36674   3.287   0.884   6.035
 8989WAT      O36675   3.089   0.928   6.228
 8989WAT     H136676   3.111   0.980   6.294
 8989WAT     H236677   3.166   0.910   6.190
 8989WAT    EPW36678   3.104   0.933   6.232
 8990WAT      O36679   2.229   0.742   6.322
 8990WAT     H136680   2.294   0.685   6.324
 8990WAT     H236681   2.268   0.817   6.300
 8990WAT    EPW36682   2.244   0.745   6.319
 8991WAT      O36683   3.333   0.929   7.059
 8991WAT     H136684   3.408   0.974   7.058
 8991WAT     H236685   3.321   0.907   6.975
 8991WAT    EPW36686   3.343   0.932   7.046
 8992WAT      O36687   2.311   0.591   6.672
 8992WAT     H136688   2.353   0.555   6.605
 8992WAT     H236689   2.343   0.549   6.741
 8992WAT    EPW36690   2.322   0.579   6.672
 8993WAT      O36691   2.634   0.876   6.602
 8993WAT     H136692   2.718   0.887   6.582
 8993WAT     H236693   2.604   0.958   6.608
 8993WAT    EPW36694   2.642   0.890   6.600
 8994WAT      O36695   3.491   1.047   6.069
 8994WAT     H136696   3.557   1.032   6.015
 8994WAT     H236697   3.527   1.039   6.148
 8994WAT    EPW36698   3.506   1.044   6.073
 8995WAT      O36699   2.534   0.998   7.176
 8995WAT     H136700   2.563   0.991   7.258
 8995WAT     H236701   2.471   0.938   7.171
 8995WAT    EPW36702   2.529   0.988   7.187
 8996WAT      O36703   3.259   0.647   7.429
 8996WAT     H136704   3.255   0.685   7.507
 8996WAT     H236705   3.344   0.643   7.412
 8996WAT    EPW36706   3.271   0.652   7.438
 8997WAT      O36707   2.973   0.667   5.904
 8997WAT     H136708   2.954   0.721   5.970
 8997WAT     H236709   3.049   0.696   5.874
 8997WAT    EPW36710   2.981   0.679   5.909
 8998WAT      O36711   2.333   0.814   7.088
 8998WAT     H136712   2.263   0.763   7.100
 8998WAT     H236713   2.359   0.794   7.007
 8998WAT    EPW36714   2.326   0.804   7.078
 8999WAT      O36715   3.104   0.964   7.179
 8999WAT     H136716   3.181   0.956   7.138
 8999WAT     H236717   3.046   0.951   7.115
 8999WAT    EPW36718   3.107   0.961   7.163
 9000WAT      O36719   3.732   1.024   6.469
 9000WAT     H136720   3.686   1.096   6.489
 9000WAT     H236721   3.670   0.967   6.445
 9000WAT    EPW36722   3.716   1.026   6.468
 9001WAT      O36723   3.431   0.608   6.423
 9001WAT     H136724   3.501   0.560   6.442
 9001WAT     H236725   3.365   0.551   6.428
 9001WAT    EPW36726   3.432   0.593   6.427
 9002WAT      O36727   2.469   0.699   7.345
 9002WAT     H136728   2.553   0.706   7.322
 9002WAT     H236729   2.465   0.739   7.422
 9002WAT    EPW36730   2.481   0.706   7.353
 9003WAT      O36731   2.665   0.250   6.819
 9003WAT     H136732   2.682   0.229   6.902
 9003WAT     H236733   2.600   0.197   6.798
 9003WAT    EPW36734   2.658   0.239   6.829
 9004WAT      O36735   2.740   0.244   7.078
 9004WAT     H136736   2.746   0.329   7.099
 9004WAT     H236737   2.712   0.207   7.152
 9004WAT    EPW36738   2.737   0.251   7.092
 9005WAT      O36739   3.358   0.314   6.991
 9005WAT     H136740   3.307   0.273   7.049
 9005WAT     H236741   3.345   0.398   7.010
 9005WAT    EPW36742   3.349   0.320   7.003
 9006WAT      O36743   3.683   0.358   6.004
 9006WAT     H136744   3.695   0.329   6.086
 9006WAT     H236745   3.764   0.360   5.971
 9006WAT    EPW36746   3.697   0.354   6.011
 9007WAT      O36747   2.397   0.331   6.537
 9007WAT     H136748   2.482   0.323   6.520
 9007WAT     H236749   2.361   0.263   6.496
 9007WAT    EPW36750   2.404   0.320   6.529
 9008WAT      O36751   2.274   1.003   6.661
 9008WAT     H136752   2.206   0.954   6.636
 9008WAT     H236753   2.314   1.022   6.586
 9008WAT    EPW36754   2.270   0.999   6.646
 9009WAT      O36755   3.907   0.809   7.430
 9009WAT     H136756   3.838   0.840   7.385
 9009WAT     H236757   3.870   0.763   7.494
 9009WAT    EPW36758   3.891   0.806   7.432
 9010WAT      O36759   2.634   0.332   6.361
 9010WAT     H136760   2.705   0.381   6.370
 9010WAT     H236761   2.656   0.275   6.298
 9010WAT    EPW36762   2.647   0.330   6.353
 9011WAT      O36763   2.049   0.496   6.693
 9011WAT     H136764   1.983   0.545   6.720
 9011WAT     H236765   2.117   0.550   6.696
 9011WAT    EPW36766   2.049   0.511   6.697
 9012WAT      O36767   3.086   0.702   6.593
 9012WAT     H136768   3.034   0.765   6.564
 9012WAT     H236769   3.117   0.665   6.521
 9012WAT    EPW36770   3.083   0.706   6.578
 9013WAT      O36771   2.073   0.581   6.161
 9013WAT     H136772   2.128   0.638   6.197
 9013WAT     H236773   2.050   0.529   6.227
 9013WAT    EPW36774   2.078   0.581   6.176
 9014WAT      O36775   2.493   0.481   6.869
 9014WAT     H136776   2.540   0.510   6.937
 9014WAT     H236777   2.551   0.433   6.824
 9014WAT    EPW36778   2.509   0.478   6.873
 9015WAT      O36779   2.056   0.426   5.923
 9015WAT     H136780   2.132   0.382   5.929
 9015WAT     H236781   2.058   0.479   5.992
 9015WAT    EPW36782   2.067   0.427   5.934
 9016WAT      O36783   2.150   0.248   6.724
 9016WAT     H136784   2.193   0.235   6.649
 9016WAT     H236785   2.130   0.332   6.721
 9016WAT    EPW36786   2.153   0.258   6.712
 9017WAT      O36787   3.690   0.847   7.239
 9017WAT     H136788   3.623   0.898   7.260
 9017WAT     H236789   3.696   0.857   7.152
 9017WAT    EPW36790   3.681   0.856   7.229
 9018WAT      O36791   2.558   0.599   6.552
 9018WAT     H136792   2.571   0.684   6.571
 9018WAT     H236793   2.625   0.559   6.592
 9018WAT    EPW36794   2.570   0.606   6.561
 9019WAT      O36795   2.890   0.922   6.998
 9019WAT     H136796   2.862   0.858   6.946
 9019WAT     H236797   2.869   0.994   6.954
 9019WAT    EPW36798   2.883   0.923   6.984
 9020WAT      O36799   3.420   0.400   7.441
 9020WAT     H136800   3.468   0.472   7.450
 9020WAT     H236801   3.459   0.357   7.376
 9020WAT    EPW36802   3.433   0.404   7.432
 9021WAT      O36803   2.849   0.684   7.558
 9021WAT     H136804   2.885   0.667   7.636
 9021WAT     H236805   2.806   0.612   7.538
 9021WAT    EPW36806   2.848   0.671   7.567
 9022WAT      O36807   3.663   0.463   6.448
 9022WAT     H136808   3.698   0.428   6.519
 9022WAT     H236809   3.662   0.397   6.391
 9022WAT    EPW36810   3.668   0.448   6.450
 9023WAT      O36811   3.267   0.770   6.832
 9023WAT     H136812   3.207   0.740   6.776
 9023WAT     H236813   3.322   0.815   6.781
 9023WAT    EPW36814   3.266   0.772   6.816
 9024WAT      O36815   3.269   0.455   6.772
 9024WAT     H136816   3.189   0.477   6.799
 9024WAT     H236817   3.294   0.395   6.831
 9024WAT    EPW36818   3.261   0.449   6.785
 9025WAT      O36819   2.658   0.936   6.217
 9025WAT     H136820   2.643   0.858   6.254
 9025WAT     H236821   2.727   0.921   6.165
 9025WAT    EPW36822   2.666   0.922   6.215
 9026WAT      O36823   2.887   0.888   6.057
 9026WAT     H136824   2.949   0.904   6.116
 9026WAT     H236825   2.891   0.957   6.004
 9026WAT    EPW36826   2.897   0.900   6.058
 9027WAT      O36827   3.595   0.255   7.257
 9027WAT     H136828   3.600   0.267   7.170
 9027WAT     H236829   3.670   0.287   7.287
 9027WAT    EPW36830   3.606   0.261   7.248
 9028WAT      O36831   3.168   0.235   7.217
 9028WAT     H136832   3.152   0.296   7.277
 9028WAT     H236833   3.221   0.179   7.257
 9028WAT    EPW36834   3.173   0.236   7.232
 9029WAT      O36835   3.529   0.508   6.869
 9029WAT     H136836   3.481   0.538   6.803
 9029WAT     H236837   3.493   0.430   6.887
 9029WAT    EPW36838   3.516   0.501   6.862
 9030WAT      O36839   2.928   0.280   6.726
 9030WAT     H136840   2.844   0.260   6.734
 9030WAT     H236841   2.961   0.263   6.805
 9030WAT    EPW36842   2.921   0.275   6.738
 9031WAT      O36843   2.604   0.953   5.814
 9031WAT     H136844   2.647   0.883   5.843
 9031WAT     H236845   2.624   1.015   5.871
 9031WAT    EPW36846   2.613   0.952   5.827
 9032WAT      O36847   2.313   0.249   6.957
 9032WAT     H136848   2.385   0.298   6.953
 9032WAT     H236849   2.286   0.246   6.874
 9032WAT    EPW36850   2.320   0.256   6.944
 9033WAT      O36851   3.898   0.925   6.063
 9033WAT     H136852   3.967   0.878   6.039
 9033WAT     H236853   3.844   0.865   6.097
 9033WAT    EPW36854   3.900   0.909   6.065
 9034WAT      O36855   2.253   0.354   7.385
 9034WAT     H136856   2.211   0.303   7.329
 9034WAT     H236857   2.217   0.433   7.371
 9034WAT    EPW36858   2.241   0.358   7.375
 9035WAT      O36859   3.747   0.209   6.725
 9035WAT     H136860   3.719   0.249   6.797
 9035WAT     H236861   3.833   0.203   6.738
 9035WAT    EPW36862   3.756   0.214   6.737
 9036WAT      O36863   3.860   0.773   6.778
 9036WAT     H136864   3.889   0.798   6.700
 9036WAT     H236865   3.930   0.782   6.830
 9036WAT    EPW36866   3.875   0.778   6.774
 9037WAT      O36867   3.521   0.633   5.976
 9037WAT     H136868   3.554   0.552   5.980
 9037WAT     H236869   3.445   0.626   6.019
 9037WAT    EPW36870   3.515   0.620   5.983
 9038WAT      O36871   3.813   0.412   7.317
 9038WAT     H136872   3.876   0.357   7.292
 9038WAT     H236873   3.807   0.469   7.251
 9038WAT    EPW36874   3.822   0.413   7.304
 9039WAT      O36875   3.258   0.420   5.916
 9039WAT     H136876   3.327   0.369   5.899
 9039WAT     H236877   3.217   0.425   5.840
 9039WAT    EPW36878   3.262   0.414   5.903
 9040WAT      O36879   2.727   0.535   7.047
 9040WAT     H136880   2.697   0.595   7.103
 9040WAT     H236881   2.732   0.580   6.972
 9040WAT    EPW36882   2.723   0.551   7.044
 9041WAT      O36883   2.524   0.430   7.387
 9041WAT     H136884   2.444   0.401   7.403
 9041WAT     H236885   2.516   0.517   7.387
 9041WAT    EPW36886   2.511   0.439   7.389
 9042WAT      O36887   2.978   0.178   6.996
 9042WAT     H136888   3.026   0.215   7.059
 9042WAT     H236889   2.896   0.191   7.022
 9042WAT    EPW36890   2.973   0.185   7.009
 9043WAT      O36891   2.905   0.917   6.519
 9043WAT     H136892   2.959   0.985   6.524
 9043WAT     H236893   2.870   0.925   6.439
 9043WAT    EPW36894   2.907   0.928   6.508
 9044WAT      O36895   2.723   0.740   6.858
 9044WAT     H136896   2.660   0.798   6.839
 9044WAT     H236897   2.748   0.711   6.779
 9044WAT    EPW36898   2.717   0.744   6.843
 9045WAT      O36899   3.154   0.403   7.556
 9045WAT     H136900   3.229   0.432   7.524
 9045WAT     H236901   3.099   0.408   7.489
 9045WAT    EPW36902   3.157   0.408   7.542
 9046WAT      O36903   3.545   0.658   7.407
 9046WAT     H136904   3.579   0.685   7.482
 9046WAT     H236905   3.574   0.716   7.349
 9046WAT    EPW36906   3.554   0.671   7.409
 9047WAT      O36907   2.882   0.217   5.849
 9047WAT     H136908   2.802   0.200   5.821
 9047WAT     H236909   2.879   0.303   5.868
 9047WAT    EPW36910   2.870   0.227   5.848
 9048WAT      O36911   2.988   0.905   7.446
 9048WAT     H136912   3.036   0.845   7.404
 9048WAT     H236913   2.953   0.860   7.512
 9048WAT    EPW36914   2.990   0.889   7.449
 9049WAT      O36915   3.647   0.235   6.264
 9049WAT     H136916   3.695   0.163   6.259
 9049WAT     H236917   3.565   0.207   6.256
 9049WAT    EPW36918   3.642   0.220   6.262
 9050WAT      O36919   2.994   0.427   7.348
 9050WAT     H136920   2.915   0.420   7.383
 9050WAT     H236921   3.001   0.511   7.328
 9050WAT    EPW36922   2.983   0.438   7.350
 9051WAT      O36923   2.577   1.047   6.879
 9051WAT     H136924   2.578   1.053   6.966
 9051WAT     H236925   2.535   0.973   6.864
 9051WAT    EPW36926   2.571   1.037   6.890
 9052WAT      O36927   3.269   0.352   6.499
 9052WAT     H136928   3.276   0.386   6.579
 9052WAT     H236929   3.285   0.267   6.511
 9052WAT    EPW36930   3.272   0.345   6.513
 9053WAT      O36931   3.021   0.280   6.456
 9053WAT     H136932   2.991   0.248   6.531
 9053WAT     H236933   3.090   0.327   6.479
 9053WAT    EPW36934   3.027   0.282   6.470
 9054WAT      O36935   3.043   0.691   7.258
 9054WAT     H136936   3.112   0.680   7.311
 9054WAT     H236937   3.056   0.770   7.224
 9054WAT    EPW36938   3.055   0.701   7.261
 9055WAT      O36939   2.253   0.997   7.423
 9055WAT     H136940   2.188   0.940   7.433
 9055WAT     H236941   2.216   1.074   7.439
 9055WAT    EPW36942   2.238   1.000   7.427
 9056WAT      O36943   3.414   0.975   6.709
 9056WAT     H136944   3.369   1.039   6.747
 9056WAT     H236945   3.484   0.967   6.759
 9056WAT    EPW36946   3.417   0.983   6.722
 9057WAT      O36947   3.084   0.484   7.002
 9057WAT     H136948   3.014   0.524   7.036
 9057WAT     H236949   3.151   0.527   7.036
 9057WAT    EPW36950   3.083   0.496   7.012
 9058WAT      O36951   3.116   0.643   6.319
 9058WAT     H136952   3.095   0.727   6.303
 9058WAT     H236953   3.038   0.605   6.331
 9058WAT    EPW36954   3.101   0.650   6.318
 9059WAT      O36955   2.652   0.669   5.959
 9059WAT     H136956   2.696   0.677   6.034
 9059WAT     H236957   2.572   0.648   5.985
 9059WAT    EPW36958   2.647   0.667   5.974
 9060WAT      O36959   3.543   0.847   6.317
 9060WAT     H136960   3.526   0.781   6.372
 9060WAT     H236961   3.614   0.819   6.275
 9060WAT    EPW36962   3.551   0.833   6.319
 9061WAT      O36963   2.385   0.576   6.020
 9061WAT     H136964   2.361   0.546   6.098
 9061WAT     H236965   2.382   0.506   5.968
 9061WAT    EPW36966   2.381   0.562   6.023
 9062WAT      O36967   2.667   0.401   5.894
 9062WAT     H136968   2.585   0.374   5.908
 9062WAT     H236969   2.664   0.486   5.912
 9062WAT    EPW36970   2.654   0.410   5.899
 9063WAT      O36971   3.310   0.592   7.086
 9063WAT     H136972   3.331   0.622   7.165
 9063WAT     H236973   3.304   0.664   7.037
 9063WAT    EPW36974   3.313   0.607   7.090
 9064WAT      O36975   3.264   1.013   7.511
 9064WAT     H136976   3.189   1.011   7.466
 9064WAT     H236977   3.281   1.098   7.519
 9064WAT    EPW36978   3.255   1.026   7.505
 9065WAT      O36979   3.792   0.456   7.032
 9065WAT     H136980   3.788   0.370   7.018
 9065WAT     H236981   3.722   0.486   6.988
 9065WAT    EPW36982   3.781   0.447   7.023
 9066WAT      O36983   2.631   0.976   7.452
 9066WAT     H136984   2.635   0.988   7.539
 9066WAT     H236985   2.696   0.920   7.437
 9066WAT    EPW36986   2.641   0.969   7.463
 9067WAT      O36987   3.602   0.782   6.911
 9067WAT     H136988   3.655   0.773   6.842
 9067WAT     H236989   3.563   0.704   6.917
 9067WAT    EPW36990   3.604   0.769   6.902
 9068WAT      O36991   2.390   0.814   7.588
 9068WAT     H136992   2.450   0.857   7.636
 9068WAT     H236993   2.354   0.876   7.539
 9068WAT    EPW36994   2.394   0.829   7.588
 9069WAT      O36995   2.183   0.613   7.281
 9069WAT     H136996   2.126   0.654   7.332
 9069WAT     H236997   2.256   0.659   7.291
 9069WAT    EPW36998   2.185   0.626   7.290
 9070WAT      O36999   2.362   0.939   6.159
 9070WAT     H137000   2.347   0.955   6.074
 9070WAT     H237001   2.448   0.947   6.167
 9070WAT    EPW37002   2.372   0.943   6.147
 9071WAT      O37003   2.778   0.179   6.132
 9071WAT     H137004   2.788   0.193   6.046
 9071WAT     H237005   2.860   0.173   6.161
 9071WAT    EPW37006   2.792   0.180   6.123
 9072WAT      O37007   3.694   0.986   5.880
 9072WAT     H137008   3.758   0.972   5.938
 9072WAT     H237009   3.660   0.906   5.868
 9072WAT    EPW37010   3.699   0.972   5.886
 9073WAT      O37011   3.714   0.227   7.553
 9073WAT     H137012   3.777   0.210   7.610
 9073WAT     H237013   3.756   0.268   7.488
 9073WAT    EPW37014   3.729   0.231   7.552
 9074WAT      O37015   3.302   0.612   6.112
 9074WAT     H137016   3.277   0.599   6.194
 9074WAT     H237017   3.270   0.543   6.070
 9074WAT    EPW37018   3.293   0.600   6.118
 9075WAT      O37019   3.455   0.238   7.688
 9075WAT     H137020   3.542   0.235   7.685
 9075WAT     H237021   3.433   0.280   7.615
 9075WAT    EPW37022   3.465   0.244   7.677
 9076WAT      O37023   2.430   0.821   6.806
 9076WAT     H137024   2.422   0.740   6.775
 9076WAT     H237025   2.386   0.870   6.749
 9076WAT    EPW37026   2.423   0.816   6.793
 9077WAT      O37027   2.990   0.433   6.055
 9077WAT     H137028   3.062   0.398   6.019
 9077WAT     H237029   2.987   0.513   6.020
 9077WAT    EPW37030   3.001   0.440   6.044
 9078WAT      O37031   2.188   1.045   7.165
 9078WAT     H137032   2.237   1.040   7.236
 9078WAT     H237033   2.206   0.972   7.121
 9078WAT    EPW37034   2.198   1.034   7.169
 9079WAT      O37035   2.099   0.403   4.491
 9079WAT     H137036   2.055   0.414   4.566
 9079WAT     H237037   2.071   0.325   4.463
 9079WAT    EPW37038   2.088   0.393   4.498
 9080WAT      O37039   3.727   0.733   4.243
 9080WAT     H137040   3.797   0.681   4.242
 9080WAT     H237041   3.668   0.688   4.196
 9080WAT    EPW37042   3.728   0.718   4.236
 9081WAT      O37043   2.387   0.308   4.009
 9081WAT     H137044   2.348   0.271   3.941
 9081WAT     H237045   2.379   0.248   4.072
 9081WAT    EPW37046   2.380   0.294   4.008
 9082WAT      O37047   2.350   0.472   4.399
 9082WAT     H137048   2.411   0.455   4.460
 9082WAT     H237049   2.275   0.458   4.441
 9082WAT    EPW37050   2.348   0.468   4.414
 9083WAT      O37051   2.239   0.781   4.007
 9083WAT     H137052   2.286   0.790   3.934
 9083WAT     H237053   2.285   0.723   4.054
 9083WAT    EPW37054   2.253   0.774   4.003
 9084WAT      O37055   2.093   0.676   5.117
 9084WAT     H137056   2.106   0.648   5.198
 9084WAT     H237057   2.032   0.622   5.086
 9084WAT    EPW37058   2.086   0.664   5.124
 9085WAT      O37059   2.751   0.429   5.624
 9085WAT     H137060   2.727   0.428   5.708
 9085WAT     H237061   2.676   0.414   5.581
 9085WAT    EPW37062   2.736   0.426   5.630
 9086WAT      O37063   2.749   0.748   5.350
 9086WAT     H137064   2.763   0.824   5.309
 9086WAT     H237065   2.828   0.711   5.353
 9086WAT    EPW37066   2.762   0.754   5.344
 9087WAT      O37067   2.858   0.536   4.800
 9087WAT     H137068   2.893   0.456   4.803
 9087WAT     H237069   2.925   0.587   4.775
 9087WAT    EPW37070   2.873   0.532   4.797
 9088WAT      O37071   2.864   0.481   4.421
 9088WAT     H137072   2.897   0.417   4.470
 9088WAT     H237073   2.888   0.460   4.340
 9088WAT    EPW37074   2.872   0.469   4.417
 9089WAT      O37075   2.074   0.875   4.628
 9089WAT     H137076   2.015   0.931   4.597
 9089WAT     H237077   2.117   0.848   4.557
 9089WAT    EPW37078   2.072   0.879   4.613
 9090WAT      O37079   2.658   0.660   4.376
 9090WAT     H137080   2.600   0.632   4.436
 9090WAT     H237081   2.721   0.599   4.379
 9090WAT    EPW37082   2.659   0.647   4.385
 9091WAT      O37083   3.273   0.888   4.129
 9091WAT     H137084   3.345   0.936   4.139
 9091WAT     H237085   3.296   0.809   4.157
 9091WAT    EPW37086   3.287   0.884   4.134
 9092WAT      O37087   3.089   0.928   4.328
 9092WAT     H137088   3.111   0.980   4.394
 9092WAT     H237089   3.166   0.910   4.290
 9092WAT    EPW37090   3.104   0.933   4.332
 9093WAT      O37091   2.229   0.742   4.421
 9093WAT     H137092   2.294   0.685   4.423
 9093WAT     H237093   2.268   0.817   4.399
 9093WAT    EPW37094   2.244   0.745   4.418
 9094WAT      O37095   3.333   0.929   5.158
 9094WAT     H137096   3.408   0.974   5.157
 9094WAT     H237097   3.321   0.907   5.074
 9094WAT    EPW37098   3.343   0.932   5.146
 9095WAT      O37099   2.311   0.591   4.771
 9095WAT     H137100   2.353   0.555   4.704
 9095WAT     H237101   2.343   0.549   4.841
 9095WAT    EPW37102   2.322   0.579   4.772
 9096WAT      O37103   2.634   0.876   4.701
 9096WAT     H137104   2.718   0.887   4.682
 9096WAT     H237105   2.604   0.958   4.708
 9096WAT    EPW37106   2.642   0.890   4.699
 9097WAT      O37107   3.491   1.047   4.169
 9097WAT     H137108   3.557   1.032   4.114
 9097WAT     H237109   3.527   1.039   4.248
 9097WAT    EPW37110   3.506   1.044   4.172
 9098WAT      O37111   2.534   0.998   5.275
 9098WAT     H137112   2.563   0.991   5.357
 9098WAT     H237113   2.471   0.938   5.271
 9098WAT    EPW37114   2.529   0.988   5.287
 9099WAT      O37115   3.259   0.647   5.528
 9099WAT     H137116   3.255   0.685   5.607
 9099WAT     H237117   3.344   0.643   5.511
 9099WAT    EPW37118   3.271   0.652   5.538
 9100WAT      O37119   2.973   0.667   4.003
 9100WAT     H137120   2.954   0.721   4.069
 9100WAT     H237121   3.049   0.696   3.973
 9100WAT    EPW37122   2.981   0.679   4.009
 9101WAT      O37123   2.333   0.814   5.187
 9101WAT     H137124   2.263   0.763   5.200
 9101WAT     H237125   2.359   0.794   5.106
 9101WAT    EPW37126   2.326   0.804   5.177
 9102WAT      O37127   3.104   0.964   5.278
 9102WAT     H137128   3.181   0.956   5.238
 9102WAT     H237129   3.046   0.951   5.214
 9102WAT    EPW37130   3.107   0.961   5.263
 9103WAT      O37131   3.732   1.024   4.568
 9103WAT     H137132   3.686   1.096   4.588
 9103WAT     H237133   3.670   0.967   4.544
 9103WAT    EPW37134   3.716   1.026   4.568
 9104WAT      O37135   3.431   0.608   4.523
 9104WAT     H137136   3.501   0.560   4.542
 9104WAT     H237137   3.365   0.551   4.527
 9104WAT    EPW37138   3.432   0.593   4.526
 9105WAT      O37139   2.469   0.699   5.444
 9105WAT     H137140   2.553   0.706   5.422
 9105WAT     H237141   2.465   0.739   5.522
 9105WAT    EPW37142   2.481   0.706   5.452
 9106WAT      O37143   2.665   0.250   4.919
 9106WAT     H137144   2.682   0.229   5.002
 9106WAT     H237145   2.600   0.197   4.897
 9106WAT    EPW37146   2.658   0.239   4.928
 9107WAT      O37147   2.740   0.244   5.178
 9107WAT     H137148   2.746   0.329   5.198
 9107WAT     H237149   2.712   0.207   5.252
 9107WAT    EPW37150   2.737   0.251   5.192
 9108WAT      O37151   3.358   0.314   5.091
 9108WAT     H137152   3.307   0.273   5.148
 9108WAT     H237153   3.345   0.398   5.109
 9108WAT    EPW37154   3.349   0.320   5.102
 9109WAT      O37155   2.022   0.681   5.799
 9109WAT     H137156   2.098   0.716   5.825
 9109WAT     H237157   2.040   0.596   5.793
 9109WAT    EPW37158   2.036   0.674   5.802
 9110WAT      O37159   3.683   0.358   4.104
 9110WAT     H137160   3.695   0.329   4.185
 9110WAT     H237161   3.764   0.360   4.071
 9110WAT    EPW37162   3.697   0.354   4.111
 9111WAT      O37163   2.397   0.331   4.637
 9111WAT     H137164   2.482   0.323   4.619
 9111WAT     H237165   2.361   0.263   4.595
 9111WAT    EPW37166   2.404   0.320   4.628
 9112WAT      O37167   2.274   1.003   4.760
 9112WAT     H137168   2.206   0.954   4.736
 9112WAT     H237169   2.314   1.022   4.685
 9112WAT    EPW37170   2.270   0.999   4.746
 9113WAT      O37171   3.907   0.809   5.529
 9113WAT     H137172   3.838   0.840   5.484
 9113WAT     H237173   3.870   0.763   5.593
 9113WAT    EPW37174   3.891   0.806   5.532
 9114WAT      O37175   2.634   0.332   4.460
 9114WAT     H137176   2.705   0.381   4.469
 9114WAT     H237177   2.656   0.275   4.398
 9114WAT    EPW37178   2.647   0.330   4.452
 9115WAT      O37179   2.049   0.496   4.792
 9115WAT     H137180   1.983   0.545   4.820
 9115WAT     H237181   2.117   0.550   4.795
 9115WAT    EPW37182   2.049   0.511   4.797
 9116WAT      O37183   3.086   0.702   4.693
 9116WAT     H137184   3.034   0.765   4.664
 9116WAT     H237185   3.117   0.665   4.620
 9116WAT    EPW37186   3.083   0.706   4.678
 9117WAT      O37187   2.073   0.581   4.260
 9117WAT     H137188   2.128   0.638   4.296
 9117WAT     H237189   2.050   0.529   4.326
 9117WAT    EPW37190   2.078   0.581   4.275
 9118WAT      O37191   2.493   0.481   4.969
 9118WAT     H137192   2.540   0.510   5.037
 9118WAT     H237193   2.551   0.433   4.923
 9118WAT    EPW37194   2.509   0.478   4.972
 9119WAT      O37195   2.056   0.426   4.023
 9119WAT     H137196   2.132   0.382   4.029
 9119WAT     H237197   2.058   0.479   4.092
 9119WAT    EPW37198   2.067   0.427   4.034
 9120WAT      O37199   2.150   0.248   4.823
 9120WAT     H137200   2.193   0.235   4.749
 9120WAT     H237201   2.130   0.332   4.821
 9120WAT    EPW37202   2.153   0.258   4.812
 9121WAT      O37203   3.690   0.847   5.338
 9121WAT     H137204   3.623   0.898   5.360
 9121WAT     H237205   3.696   0.857   5.252
 9121WAT    EPW37206   3.681   0.856   5.328
 9122WAT      O37207   2.558   0.599   4.651
 9122WAT     H137208   2.571   0.684   4.670
 9122WAT     H237209   2.625   0.559   4.691
 9122WAT    EPW37210   2.570   0.606   4.660
 9123WAT      O37211   2.890   0.922   5.098
 9123WAT     H137212   2.862   0.858   5.045
 9123WAT     H237213   2.869   0.994   5.054
 9123WAT    EPW37214   2.883   0.923   5.083
 9124WAT      O37215   3.420   0.400   5.540
 9124WAT     H137216   3.468   0.472   5.550
 9124WAT     H237217   3.459   0.357   5.475
 9124WAT    EPW37218   3.433   0.404   5.532
 9125WAT      O37219   2.849   0.684   5.658
 9125WAT     H137220   2.885   0.667   5.735
 9125WAT     H237221   2.806   0.612   5.638
 9125WAT    EPW37222   2.848   0.671   5.666
 9126WAT      O37223   3.663   0.463   4.547
 9126WAT     H137224   3.698   0.428   4.619
 9126WAT     H237225   3.662   0.397   4.490
 9126WAT    EPW37226   3.668   0.448   4.549
 9127WAT      O37227   3.267   0.770   4.931
 9127WAT     H137228   3.207   0.740   4.876
 9127WAT     H237229   3.322   0.815   4.881
 9127WAT    EPW37230   3.266   0.772   4.916
 9128WAT      O37231   3.269   0.455   4.871
 9128WAT     H137232   3.189   0.477   4.899
 9128WAT     H237233   3.294   0.395   4.930
 9128WAT    EPW37234   3.261   0.449   4.884
 9129WAT      O37235   2.658   0.936   4.316
 9129WAT     H137236   2.643   0.858   4.353
 9129WAT     H237237   2.727   0.921   4.265
 9129WAT    EPW37238   2.666   0.922   4.314
 9130WAT      O37239   2.887   0.888   4.156
 9130WAT     H137240   2.949   0.904   4.215
 9130WAT     H237241   2.891   0.957   4.103
 9130WAT    EPW37242   2.897   0.900   4.157
 9131WAT      O37243   3.595   0.255   5.356
 9131WAT     H137244   3.600   0.267   5.270
 9131WAT     H237245   3.670   0.287   5.386
 9131WAT    EPW37246   3.606   0.261   5.348
 9132WAT      O37247   3.214   0.789   5.784
 9132WAT     H137248   3.230   0.818   5.865
 9132WAT     H237249   3.240   0.856   5.733
 9132WAT    EPW37250   3.220   0.803   5.788
 9133WAT      O37251   3.168   0.235   5.316
 9133WAT     H137252   3.152   0.296   5.376
 9133WAT     H237253   3.221   0.179   5.357
 9133WAT    EPW37254   3.173   0.236   5.331
 9134WAT      O37255   3.529   0.508   4.969
 9134WAT     H137256   3.481   0.538   4.902
 9134WAT     H237257   3.493   0.430   4.987
 9134WAT    EPW37258   3.516   0.501   4.962
 9135WAT      O37259   2.928   0.280   4.825
 9135WAT     H137260   2.844   0.260   4.833
 9135WAT     H237261   2.961   0.263   4.904
 9135WAT    EPW37262   2.921   0.275   4.838
 9136WAT      O37263   2.604   0.953   3.914
 9136WAT     H137264   2.647   0.883   3.942
 9136WAT     H237265   2.624   1.015   3.971
 9136WAT    EPW37266   2.613   0.952   3.926
 9137WAT      O37267   2.313   0.249   5.057
 9137WAT     H137268   2.385   0.298   5.053
 9137WAT     H237269   2.286   0.246   4.974
 9137WAT    EPW37270   2.320   0.256   5.044
 9138WAT      O37271   3.898   0.925   4.163
 9138WAT     H137272   3.967   0.878   4.138
 9138WAT     H237273   3.844   0.865   4.196
 9138WAT    EPW37274   3.900   0.909   4.164
 9139WAT      O37275   2.253   0.354   5.484
 9139WAT     H137276   2.211   0.303   5.428
 9139WAT     H237277   2.217   0.433   5.470
 9139WAT    EPW37278   2.241   0.358   5.474
 9140WAT      O37279   3.747   0.209   4.824
 9140WAT     H137280   3.719   0.249   4.896
 9140WAT     H237281   3.833   0.203   4.837
 9140WAT    EPW37282   3.756   0.214   4.837
 9141WAT      O37283   3.860   0.773   4.877
 9141WAT     H137284   3.889   0.798   4.799
 9141WAT     H237285   3.930   0.782   4.929
 9141WAT    EPW37286   3.875   0.778   4.873
 9142WAT      O37287   3.521   0.633   4.075
 9142WAT     H137288   3.554   0.552   4.079
 9142WAT     H237289   3.445   0.626   4.118
 9142WAT    EPW37290   3.515   0.620   4.082
 9143WAT      O37291   3.813   0.412   5.417
 9143WAT     H137292   3.876   0.357   5.391
 9143WAT     H237293   3.807   0.469   5.350
 9143WAT    EPW37294   3.822   0.413   5.403
 9144WAT      O37295   3.258   0.420   4.016
 9144WAT     H137296   3.327   0.369   3.999
 9144WAT     H237297   3.217   0.425   3.939
 9144WAT    EPW37298   3.262   0.414   4.002
 9145WAT      O37299   2.727   0.535   5.146
 9145WAT     H137300   2.697   0.595   5.203
 9145WAT     H237301   2.732   0.580   5.071
 9145WAT    EPW37302   2.723   0.551   5.143
 9146WAT      O37303   2.524   0.430   5.486
 9146WAT     H137304   2.444   0.401   5.503
 9146WAT     H237305   2.516   0.517   5.487
 9146WAT    EPW37306   2.511   0.439   5.488
 9147WAT      O37307   2.978   0.178   5.095
 9147WAT     H137308   3.026   0.215   5.158
 9147WAT     H237309   2.896   0.191   5.121
 9147WAT    EPW37310   2.973   0.185   5.108
 9148WAT      O37311   2.905   0.917   4.618
 9148WAT     H137312   2.959   0.985   4.623
 9148WAT     H237313   2.870   0.925   4.539
 9148WAT    EPW37314   2.907   0.928   4.607
 9149WAT      O37315   2.723   0.740   4.957
 9149WAT     H137316   2.660   0.798   4.939
 9149WAT     H237317   2.748   0.711   4.878
 9149WAT    EPW37318   2.717   0.744   4.943
 9150WAT      O37319   3.154   0.403   5.656
 9150WAT     H137320   3.229   0.432   5.623
 9150WAT     H237321   3.099   0.408   5.588
 9150WAT    EPW37322   3.157   0.408   5.641
 9151WAT      O37323   3.545   0.658   5.506
 9151WAT     H137324   3.579   0.685   5.582
 9151WAT     H237325   3.574   0.716   5.448
 9151WAT    EPW37326   3.554   0.671   5.509
 9152WAT      O37327   2.882   0.217   3.948
 9152WAT     H137328   2.802   0.200   3.920
 9152WAT     H237329   2.879   0.303   3.968
 9152WAT    EPW37330   2.870   0.227   3.947
 9153WAT      O37331   2.988   0.905   5.545
 9153WAT     H137332   3.036   0.845   5.503
 9153WAT     H237333   2.953   0.860   5.611
 9153WAT    EPW37334   2.990   0.889   5.549
 9154WAT      O37335   3.647   0.235   4.363
 9154WAT     H137336   3.695   0.163   4.358
 9154WAT     H237337   3.565   0.207   4.355
 9154WAT    EPW37338   3.642   0.220   4.361
 9155WAT      O37339   2.994   0.427   5.447
 9155WAT     H137340   2.915   0.420   5.482
 9155WAT     H237341   3.001   0.511   5.427
 9155WAT    EPW37342   2.983   0.438   5.449
 9156WAT      O37343   2.577   1.047   4.979
 9156WAT     H137344   2.578   1.053   5.066
 9156WAT     H237345   2.535   0.973   4.964
 9156WAT    EPW37346   2.571   1.037   4.989
 9157WAT      O37347   3.269   0.352   4.599
 9157WAT     H137348   3.276   0.386   4.678
 9157WAT     H237349   3.285   0.267   4.611
 9157WAT    EPW37350   3.272   0.345   4.612
 9158WAT      O37351   3.021   0.280   4.555
 9158WAT     H137352   2.991   0.248   4.631
 9158WAT     H237353   3.090   0.327   4.579
 9158WAT    EPW37354   3.027   0.282   4.570
 9159WAT      O37355   3.043   0.691   5.358
 9159WAT     H137356   3.112   0.680   5.410
 9159WAT     H237357   3.056   0.770   5.323
 9159WAT    EPW37358   3.055   0.701   5.360
 9160WAT      O37359   2.253   0.997   5.523
 9160WAT     H137360   2.188   0.940   5.533
 9160WAT     H237361   2.216   1.074   5.538
 9160WAT    EPW37362   2.238   1.000   5.527
 9161WAT      O37363   3.414   0.975   4.808
 9161WAT     H137364   3.369   1.039   4.846
 9161WAT     H237365   3.484   0.967   4.859
 9161WAT    EPW37366   3.417   0.983   4.821
 9162WAT      O37367   3.084   0.484   5.101
 9162WAT     H137368   3.014   0.524   5.135
 9162WAT     H237369   3.151   0.527   5.135
 9162WAT    EPW37370   3.083   0.496   5.111
 9163WAT      O37371   3.621   0.743   5.759
 9163WAT     H137372   3.699   0.704   5.767
 9163WAT     H237373   3.575   0.710   5.825
 9163WAT    EPW37374   3.626   0.733   5.770
 9164WAT      O37375   3.116   0.643   4.418
 9164WAT     H137376   3.095   0.727   4.402
 9164WAT     H237377   3.038   0.605   4.430
 9164WAT    EPW37378   3.101   0.650   4.417
 9165WAT      O37379   2.652   0.669   4.059
 9165WAT     H137380   2.696   0.677   4.134
 9165WAT     H237381   2.572   0.648   4.085
 9165WAT    EPW37382   2.647   0.667   4.074
 9166WAT      O37383   3.543   0.847   4.416
 9166WAT     H137384   3.526   0.781   4.471
 9166WAT     H237385   3.614   0.819   4.374
 9166WAT    EPW37386   3.551   0.833   4.418
 9167WAT      O37387   2.385   0.576   4.119
 9167WAT     H137388   2.361   0.546   4.197
 9167WAT     H237389   2.382   0.506   4.067
 9167WAT    EPW37390   2.381   0.562   4.123
 9168WAT      O37391   2.667   0.401   3.993
 9168WAT     H137392   2.585   0.374   4.007
 9168WAT     H237393   2.664   0.486   4.012
 9168WAT    EPW37394   2.654   0.410   3.998
 9169WAT      O37395   3.310   0.592   5.185
 9169WAT     H137396   3.331   0.622   5.265
 9169WAT     H237397   3.304   0.664   5.137
 9169WAT    EPW37398   3.313   0.607   5.190
 9170WAT      O37399   3.264   1.013   5.610
 9170WAT     H137400   3.189   1.011   5.566
 9170WAT     H237401   3.281   1.098   5.618
 9170WAT    EPW37402   3.255   1.026   5.605
 9171WAT      O37403   3.792   0.456   5.131
 9171WAT     H137404   3.788   0.370   5.118
 9171WAT     H237405   3.722   0.486   5.088
 9171WAT    EPW37406   3.781   0.447   5.123
 9172WAT      O37407   2.631   0.976   5.552
 9172WAT     H137408   2.635   0.988   5.638
 9172WAT     H237409   2.696   0.920   5.536
 9172WAT    EPW37410   2.641   0.969   5.562
 9173WAT      O37411   3.602   0.782   5.011
 9173WAT     H137412   3.655   0.773   4.942
 9173WAT     H237413   3.563   0.704   5.016
 9173WAT    EPW37414   3.604   0.769   5.001
 9174WAT      O37415   2.390   0.814   5.688
 9174WAT     H137416   2.450   0.857   5.735
 9174WAT     H237417   2.354   0.876   5.639
 9174WAT    EPW37418   2.394   0.829   5.687
 9175WAT      O37419   2.183   0.613   5.381
 9175WAT     H137420   2.126   0.654   5.432
 9175WAT     H237421   2.256   0.659   5.390
 9175WAT    EPW37422   2.185   0.626   5.390
 9176WAT      O37423   2.362   0.939   4.258
 9176WAT     H137424   2.347   0.955   4.174
 9176WAT     H237425   2.448   0.947   4.266
 9176WAT    EPW37426   2.372   0.943   4.247
 9177WAT      O37427   2.778   0.179   4.231
 9177WAT     H137428   2.788   0.193   4.145
 9177WAT     H237429   2.860   0.173   4.261
 9177WAT    EPW37430   2.792   0.180   4.223
 9178WAT      O37431   3.694   0.986   3.979
 9178WAT     H137432   3.758   0.972   4.037
 9178WAT     H237433   3.660   0.906   3.967
 9178WAT    EPW37434   3.699   0.972   3.986
 9179WAT      O37435   3.714   0.227   5.652
 9179WAT     H137436   3.777   0.210   5.710
 9179WAT     H237437   3.756   0.268   5.587
 9179WAT    EPW37438   3.729   0.231   5.651
 9180WAT      O37439   3.302   0.612   4.211
 9180WAT     H137440   3.277   0.599   4.294
 9180WAT     H237441   3.270   0.543   4.169
 9180WAT    EPW37442   3.293   0.600   4.217
 9181WAT      O37443   3.455   0.238   5.788
 9181WAT     H137444   3.542   0.235   5.784
 9181WAT     H237445   3.433   0.280   5.715
 9181WAT    EPW37446   3.465   0.244   5.776
 9182WAT      O37447   2.430   0.821   4.906
 9182WAT     H137448   2.422   0.740   4.874
 9182WAT     H237449   2.386   0.870   4.849
 9182WAT    EPW37450   2.423   0.816   4.893
 9183WAT      O37451   2.990   0.433   4.154
 9183WAT     H137452   3.062   0.398   4.119
 9183WAT     H237453   2.987   0.513   4.119
 9183WAT    EPW37454   3.001   0.440   4.144
 9184WAT      O37455   2.188   1.045   5.264
 9184WAT     H137456   2.237   1.040   5.336
 9184WAT     H237457   2.206   0.972   5.220
 9184WAT    EPW37458   2.198   1.034   5.268
 9185WAT      O37459   2.099   0.403   2.591
 9185WAT     H137460   2.055   0.414   2.665
 9185WAT     H237461   2.071   0.325   2.562
 9185WAT    EPW37462   2.088   0.393   2.598
 9186WAT      O37463   3.727   0.733   2.342
 9186WAT     H137464   3.797   0.681   2.342
 9186WAT     H237465   3.668   0.688   2.295
 9186WAT    EPW37466   3.728   0.718   2.335
 9187WAT      O37467   2.387   0.308   2.109
 9187WAT     H137468   2.348   0.271   2.040
 9187WAT     H237469   2.379   0.248   2.172
 9187WAT    EPW37470   2.380   0.294   2.108
 9188WAT      O37471   2.350   0.472   2.499
 9188WAT     H137472   2.411   0.455   2.559
 9188WAT     H237473   2.275   0.458   2.541
 9188WAT    EPW37474   2.348   0.468   2.514
 9189WAT      O37475   2.239   0.781   2.106
 9189WAT     H137476   2.286   0.790   2.033
 9189WAT     H237477   2.285   0.723   2.153
 9189WAT    EPW37478   2.253   0.774   2.102
 9190WAT      O37479   2.093   0.676   3.216
 9190WAT     H137480   2.106   0.648   3.298
 9190WAT     H237481   2.032   0.622   3.185
 9190WAT    EPW37482   2.086   0.664   3.224
 9191WAT      O37483   2.751   0.429   3.723
 9191WAT     H137484   2.727   0.428   3.807
 9191WAT     H237485   2.676   0.414   3.681
 9191WAT    EPW37486   2.736   0.426   3.729
 9192WAT      O37487   2.749   0.748   3.449
 9192WAT     H137488   2.763   0.824   3.409
 9192WAT     H237489   2.828   0.711   3.452
 9192WAT    EPW37490   2.762   0.754   3.444
 9193WAT      O37491   2.858   0.536   2.900
 9193WAT     H137492   2.893   0.456   2.903
 9193WAT     H237493   2.925   0.587   2.874
 9193WAT    EPW37494   2.873   0.532   2.896
 9194WAT      O37495   2.864   0.481   2.521
 9194WAT     H137496   2.897   0.417   2.569
 9194WAT     H237497   2.888   0.460   2.440
 9194WAT    EPW37498   2.872   0.469   2.516
 9195WAT      O37499   2.074   0.875   2.728
 9195WAT     H137500   2.015   0.931   2.696
 9195WAT     H237501   2.117   0.848   2.657
 9195WAT    EPW37502   2.072   0.879   2.713
 9196WAT      O37503   2.658   0.660   2.476
 9196WAT     H137504   2.600   0.632   2.535
 9196WAT     H237505   2.721   0.599   2.478
 9196WAT    EPW37506   2.659   0.647   2.485
 9197WAT      O37507   3.273   0.888   2.228
 9197WAT     H137508   3.345   0.936   2.238
 9197WAT     H237509   3.296   0.809   2.256
 9197WAT    EPW37510   3.287   0.884   2.234
 9198WAT      O37511   3.089   0.928   2.427
 9198WAT     H137512   3.111   0.980   2.493
 9198WAT     H237513   3.166   0.910   2.389
 9198WAT    EPW37514   3.104   0.933   2.431
 9199WAT      O37515   2.229   0.742   2.521
 9199WAT     H137516   2.294   0.685   2.522
 9199WAT     H237517   2.268   0.817   2.499
 9199WAT    EPW37518   2.244   0.745   2.518
 9200WAT      O37519   3.333   0.929   3.257
 9200WAT     H137520   3.408   0.974   3.256
 9200WAT     H237521   3.321   0.907   3.174
 9200WAT    EPW37522   3.343   0.932   3.245
 9201WAT      O37523   2.311   0.591   2.871
 9201WAT     H137524   2.353   0.555   2.803
 9201WAT     H237525   2.343   0.549   2.940
 9201WAT    EPW37526   2.322   0.579   2.871
 9202WAT      O37527   2.634   0.876   2.800
 9202WAT     H137528   2.718   0.887   2.781
 9202WAT     H237529   2.604   0.958   2.807
 9202WAT    EPW37530   2.642   0.890   2.799
 9203WAT      O37531   3.491   1.047   2.268
 9203WAT     H137532   3.557   1.032   2.213
 9203WAT     H237533   3.527   1.039   2.347
 9203WAT    EPW37534   3.506   1.044   2.272
 9204WAT      O37535   2.534   0.998   3.374
 9204WAT     H137536   2.563   0.991   3.456
 9204WAT     H237537   2.471   0.938   3.370
 9204WAT    EPW37538   2.529   0.988   3.386
 9205WAT      O37539   3.259   0.647   3.628
 9205WAT     H137540   3.255   0.685   3.706
 9205WAT     H237541   3.344   0.643   3.611
 9205WAT    EPW37542   3.271   0.652   3.637
 9206WAT      O37543   2.973   0.667   2.103
 9206WAT     H137544   2.954   0.721   2.169
 9206WAT     H237545   3.049   0.696   2.073
 9206WAT    EPW37546   2.981   0.679   2.108
 9207WAT      O37547   2.333   0.814   3.287
 9207WAT     H137548   2.263   0.763   3.299
 9207WAT     H237549   2.359   0.794   3.206
 9207WAT    EPW37550   2.326   0.804   3.277
 9208WAT      O37551   3.104   0.964   3.378
 9208WAT     H137552   3.181   0.956   3.337
 9208WAT     H237553   3.046   0.951   3.314
 9208WAT    EPW37554   3.107   0.961   3.362
 9209WAT      O37555   3.732   1.024   2.668
 9209WAT     H137556   3.686   1.096   2.688
 9209WAT     H237557   3.670   0.967   2.644
 9209WAT    EPW37558   3.716   1.026   2.667
 9210WAT      O37559   3.431   0.608   2.622
 9210WAT     H137560   3.501   0.560   2.641
 9210WAT     H237561   3.365   0.551   2.627
 9210WAT    EPW37562   3.432   0.593   2.626
 9211WAT      O37563   2.469   0.699   3.543
 9211WAT     H137564   2.553   0.706   3.521
 9211WAT     H237565   2.465   0.739   3.621
 9211WAT    EPW37566   2.481   0.706   3.552
 9212WAT      O37567   2.665   0.250   3.018
 9212WAT     H137568   2.682   0.229   3.101
 9212WAT     H237569   2.600   0.197   2.997
 9212WAT    EPW37570   2.658   0.239   3.027
 9213WAT      O37571   2.740   0.244   3.277
 9213WAT     H137572   2.746   0.329   3.297
 9213WAT     H237573   2.712   0.207   3.351
 9213WAT    EPW37574   2.737   0.251   3.291
 9214WAT      O37575   3.358   0.314   3.190
 9214WAT     H137576   3.307   0.273   3.247
 9214WAT     H237577   3.345   0.398   3.208
 9214WAT    EPW37578   3.349   0.320   3.201
 9215WAT      O37579   2.022   0.681   3.898
 9215WAT     H137580   2.098   0.716   3.924
 9215WAT     H237581   2.040   0.596   3.893
 9215WAT    EPW37582   2.036   0.674   3.901
 9216WAT      O37583   3.683   0.358   2.203
 9216WAT     H137584   3.695   0.329   2.284
 9216WAT     H237585   3.764   0.360   2.170
 9216WAT    EPW37586   3.697   0.354   2.210
 9217WAT      O37587   2.397   0.331   2.736
 9217WAT     H137588   2.482   0.323   2.719
 9217WAT     H237589   2.361   0.263   2.695
 9217WAT    EPW37590   2.404   0.320   2.727
 9218WAT      O37591   2.274   1.003   2.860
 9218WAT     H137592   2.206   0.954   2.835
 9218WAT     H237593   2.314   1.022   2.785
 9218WAT    EPW37594   2.270   0.999   2.845
 9219WAT      O37595   3.907   0.809   3.628
 9219WAT     H137596   3.838   0.840   3.584
 9219WAT     H237597   3.870   0.763   3.693
 9219WAT    EPW37598   3.891   0.806   3.631
 9220WAT      O37599   2.634   0.332   2.560
 9220WAT     H137600   2.705   0.381   2.569
 9220WAT     H237601   2.656   0.275   2.497
 9220WAT    EPW37602   2.647   0.330   2.552
 9221WAT      O37603   2.049   0.496   2.892
 9221WAT     H137604   1.983   0.545   2.919
 9221WAT     H237605   2.117   0.550   2.894
 9221WAT    EPW37606   2.049   0.511   2.896
 9222WAT      O37607   3.086   0.702   2.792
 9222WAT     H137608   3.034   0.765   2.763
 9222WAT     H237609   3.117   0.665   2.719
 9222WAT    EPW37610   3.083   0.706   2.777
 9223WAT      O37611   2.073   0.581   2.359
 9223WAT     H137612   2.128   0.638   2.396
 9223WAT     H237613   2.050   0.529   2.426
 9223WAT    EPW37614   2.078   0.581   2.375
 9224WAT      O37615   2.493   0.481   3.068
 9224WAT     H137616   2.540   0.510   3.136
 9224WAT     H237617   2.551   0.433   3.023
 9224WAT    EPW37618   2.509   0.478   3.072
 9225WAT      O37619   2.056   0.426   2.122
 9225WAT     H137620   2.132   0.382   2.128
 9225WAT     H237621   2.058   0.479   2.191
 9225WAT    EPW37622   2.067   0.427   2.133
 9226WAT      O37623   2.150   0.248   2.923
 9226WAT     H137624   2.193   0.235   2.848
 9226WAT     H237625   2.130   0.332   2.920
 9226WAT    EPW37626   2.153   0.258   2.911
 9227WAT      O37627   3.690   0.847   3.437
 9227WAT     H137628   3.623   0.898   3.459
 9227WAT     H237629   3.696   0.857   3.351
 9227WAT    EPW37630   3.681   0.856   3.428
 9228WAT      O37631   2.558   0.599   2.751
 9228WAT     H137632   2.571   0.684   2.770
 9228WAT     H237633   2.625   0.559   2.790
 9228WAT    EPW37634   2.570   0.606   2.759
 9229WAT      O37635   2.890   0.922   3.197
 9229WAT     H137636   2.862   0.858   3.145
 9229WAT     H237637   2.869   0.994   3.153
 9229WAT    EPW37638   2.883   0.923   3.183
 9230WAT      O37639   3.420   0.400   3.639
 9230WAT     H137640   3.468   0.472   3.649
 9230WAT     H237641   3.459   0.357   3.574
 9230WAT    EPW37642   3.433   0.404   3.631
 9231WAT      O37643   2.849   0.684   3.757
 9231WAT     H137644   2.885   0.667   3.835
 9231WAT     H237645   2.806   0.612   3.737
 9231WAT    EPW37646   2.848   0.671   3.766
 9232WAT      O37647   3.663   0.463   2.646
 9232WAT     H137648   3.698   0.428   2.718
 9232WAT     H237649   3.662   0.397   2.589
 9232WAT    EPW37650   3.668   0.448   2.649
 9233WAT      O37651   3.267   0.770   3.031
 9233WAT     H137652   3.207   0.740   2.975
 9233WAT     H237653   3.322   0.815   2.980
 9233WAT    EPW37654   3.266   0.772   3.015
 9234WAT      O37655   3.269   0.455   2.971
 9234WAT     H137656   3.189   0.477   2.998
 9234WAT     H237657   3.294   0.395   3.029
 9234WAT    EPW37658   3.261   0.449   2.984
 9235WAT      O37659   2.658   0.936   2.416
 9235WAT     H137660   2.643   0.858   2.453
 9235WAT     H237661   2.727   0.921   2.364
 9235WAT    EPW37662   2.666   0.922   2.414
 9236WAT      O37663   2.887   0.888   2.256
 9236WAT     H137664   2.949   0.904   2.315
 9236WAT     H237665   2.891   0.957   2.203
 9236WAT    EPW37666   2.897   0.900   2.257
 9237WAT      O37667   3.595   0.255   3.455
 9237WAT     H137668   3.600   0.267   3.369
 9237WAT     H237669   3.670   0.287   3.486
 9237WAT    EPW37670   3.606   0.261   3.447
 9238WAT      O37671   3.214   0.789   3.883
 9238WAT     H137672   3.230   0.818   3.964
 9238WAT     H237673   3.240   0.856   3.833
 9238WAT    EPW37674   3.220   0.803   3.888
 9239WAT      O37675   3.168   0.235   3.415
 9239WAT     H137676   3.152   0.296   3.476
 9239WAT     H237677   3.221   0.179   3.456
 9239WAT    EPW37678   3.173   0.236   3.430
 9240WAT      O37679   3.529   0.508   3.068
 9240WAT     H137680   3.481   0.538   3.002
 9240WAT     H237681   3.493   0.430   3.086
 9240WAT    EPW37682   3.516   0.501   3.061
 9241WAT      O37683   2.928   0.280   2.924
 9241WAT     H137684   2.844   0.260   2.932
 9241WAT     H237685   2.961   0.263   3.004
 9241WAT    EPW37686   2.921   0.275   2.937
 9242WAT      O37687   2.604   0.953   2.013
 9242WAT     H137688   2.647   0.883   2.042
 9242WAT     H237689   2.624   1.015   2.070
 9242WAT    EPW37690   2.613   0.952   2.026
 9243WAT      O37691   2.313   0.249   3.156
 9243WAT     H137692   2.385   0.298   3.152
 9243WAT     H237693   2.286   0.246   3.073
 9243WAT    EPW37694   2.320   0.256   3.143
 9244WAT      O37695   3.898   0.925   2.262
 9244WAT     H137696   3.967   0.878   2.237
 9244WAT     H237697   3.844   0.865   2.296
 9244WAT    EPW37698   3.900   0.909   2.263
 9245WAT      O37699   2.253   0.354   3.584
 9245WAT     H137700   2.211   0.303   3.528
 9245WAT     H237701   2.217   0.433   3.569
 9245WAT    EPW37702   2.241   0.358   3.573
 9246WAT      O37703   3.747   0.209   2.924
 9246WAT     H137704   3.719   0.249   2.996
 9246WAT     H237705   3.833   0.203   2.936
 9246WAT    EPW37706   3.756   0.214   2.936
 9247WAT      O37707   3.860   0.773   2.977
 9247WAT     H137708   3.889   0.798   2.899
 9247WAT     H237709   3.930   0.782   3.029
 9247WAT    EPW37710   3.875   0.778   2.973
 9248WAT      O37711   3.521   0.633   2.175
 9248WAT     H137712   3.554   0.552   2.178
 9248WAT     H237713   3.445   0.626   2.218
 9248WAT    EPW37714   3.515   0.620   2.182
 9249WAT      O37715   3.813   0.412   3.516
 9249WAT     H137716   3.876   0.357   3.490
 9249WAT     H237717   3.807   0.469   3.450
 9249WAT    EPW37718   3.822   0.413   3.502
 9250WAT      O37719   3.258   0.420   2.115
 9250WAT     H137720   3.327   0.369   2.098
 9250WAT     H237721   3.217   0.425   2.039
 9250WAT    EPW37722   3.262   0.414   2.101
 9251WAT      O37723   2.727   0.535   3.246
 9251WAT     H137724   2.697   0.595   3.302
 9251WAT     H237725   2.732   0.580   3.171
 9251WAT    EPW37726   2.723   0.551   3.243
 9252WAT      O37727   2.524   0.430   3.585
 9252WAT     H137728   2.444   0.401   3.602
 9252WAT     H237729   2.516   0.517   3.586
 9252WAT    EPW37730   2.511   0.439   3.588
 9253WAT      O37731   2.978   0.178   3.195
 9253WAT     H137732   3.026   0.215   3.257
 9253WAT     H237733   2.896   0.191   3.221
 9253WAT    EPW37734   2.973   0.185   3.208
 9254WAT      O37735   2.905   0.917   2.717
 9254WAT     H137736   2.959   0.985   2.723
 9254WAT     H237737   2.870   0.925   2.638
 9254WAT    EPW37738   2.907   0.928   2.706
 9255WAT      O37739   2.723   0.740   3.056
 9255WAT     H137740   2.660   0.798   3.038
 9255WAT     H237741   2.748   0.711   2.978
 9255WAT    EPW37742   2.717   0.744   3.042
 9256WAT      O37743   3.154   0.403   3.755
 9256WAT     H137744   3.229   0.432   3.723
 9256WAT     H237745   3.099   0.408   3.687
 9256WAT    EPW37746   3.157   0.408   3.740
 9257WAT      O37747   3.545   0.658   3.606
 9257WAT     H137748   3.579   0.685   3.681
 9257WAT     H237749   3.574   0.716   3.548
 9257WAT    EPW37750   3.554   0.671   3.608
 9258WAT      O37751   2.882   0.217   2.048
 9258WAT     H137752   2.802   0.200   2.019
 9258WAT     H237753   2.879   0.303   2.067
 9258WAT    EPW37754   2.870   0.227   2.047
 9259WAT      O37755   2.988   0.905   3.644
 9259WAT     H137756   3.036   0.845   3.603
 9259WAT     H237757   2.953   0.860   3.711
 9259WAT    EPW37758   2.990   0.889   3.648
 9260WAT      O37759   3.647   0.235   2.462
 9260WAT     H137760   3.695   0.163   2.458
 9260WAT     H237761   3.565   0.207   2.455
 9260WAT    EPW37762   3.642   0.220   2.461
 9261WAT      O37763   2.994   0.427   3.546
 9261WAT     H137764   2.915   0.420   3.581
 9261WAT     H237765   3.001   0.511   3.527
 9261WAT    EPW37766   2.983   0.438   3.549
 9262WAT      O37767   2.577   1.047   3.078
 9262WAT     H137768   2.578   1.053   3.165
 9262WAT     H237769   2.535   0.973   3.063
 9262WAT    EPW37770   2.571   1.037   3.089
 9263WAT      O37771   3.269   0.352   2.698
 9263WAT     H137772   3.276   0.386   2.778
 9263WAT     H237773   3.285   0.267   2.710
 9263WAT    EPW37774   3.272   0.345   2.712
 9264WAT      O37775   3.021   0.280   2.654
 9264WAT     H137776   2.991   0.248   2.730
 9264WAT     H237777   3.090   0.327   2.678
 9264WAT    EPW37778   3.027   0.282   2.669
 9265WAT      O37779   3.043   0.691   3.457
 9265WAT     H137780   3.112   0.680   3.510
 9265WAT     H237781   3.056   0.770   3.423
 9265WAT    EPW37782   3.055   0.701   3.460
 9266WAT      O37783   2.253   0.997   3.622
 9266WAT     H137784   2.188   0.940   3.632
 9266WAT     H237785   2.216   1.074   3.637
 9266WAT    EPW37786   2.238   1.000   3.626
 9267WAT      O37787   3.414   0.975   2.907
 9267WAT     H137788   3.369   1.039   2.945
 9267WAT     H237789   3.484   0.967   2.958
 9267WAT    EPW37790   3.417   0.983   2.921
 9268WAT      O37791   3.084   0.484   3.200
 9268WAT     H137792   3.014   0.524   3.235
 9268WAT     H237793   3.151   0.527   3.234
 9268WAT    EPW37794   3.083   0.496   3.211
 9269WAT      O37795   3.621   0.743   3.858
 9269WAT     H137796   3.699   0.704   3.867
 9269WAT     H237797   3.575   0.710   3.924
 9269WAT    EPW37798   3.626   0.733   3.869
 9270WAT      O37799   3.116   0.643   2.517
 9270WAT     H137800   3.095   0.727   2.501
 9270WAT     H237801   3.038   0.605   2.530
 9270WAT    EPW37802   3.101   0.650   2.517
 9271WAT      O37803   2.652   0.669   2.158
 9271WAT     H137804   2.696   0.677   2.233
 9271WAT     H237805   2.572   0.648   2.184
 9271WAT    EPW37806   2.647   0.667   2.173
 9272WAT      O37807   3.543   0.847   2.516
 9272WAT     H137808   3.526   0.781   2.571
 9272WAT     H237809   3.614   0.819   2.473
 9272WAT    EPW37810   3.551   0.833   2.518
 9273WAT      O37811   2.385   0.576   2.218
 9273WAT     H137812   2.361   0.546   2.296
 9273WAT     H237813   2.382   0.506   2.167
 9273WAT    EPW37814   2.381   0.562   2.222
 9274WAT      O37815   2.667   0.401   2.093
 9274WAT     H137816   2.585   0.374   2.107
 9274WAT     H237817   2.664   0.486   2.111
 9274WAT    EPW37818   2.654   0.410   2.097
 9275WAT      O37819   3.310   0.592   3.285
 9275WAT     H137820   3.331   0.622   3.364
 9275WAT     H237821   3.304   0.664   3.236
 9275WAT    EPW37822   3.313   0.607   3.289
 9276WAT      O37823   3.264   1.013   3.709
 9276WAT     H137824   3.189   1.011   3.665
 9276WAT     H237825   3.281   1.098   3.718
 9276WAT    EPW37826   3.255   1.026   3.704
 9277WAT      O37827   3.792   0.456   3.231
 9277WAT     H137828   3.788   0.370   3.217
 9277WAT     H237829   3.722   0.486   3.187
 9277WAT    EPW37830   3.781   0.447   3.222
 9278WAT      O37831   2.631   0.976   3.651
 9278WAT     H137832   2.635   0.988   3.737
 9278WAT     H237833   2.696   0.920   3.636
 9278WAT    EPW37834   2.641   0.969   3.662
 9279WAT      O37835   3.602   0.782   3.110
 9279WAT     H137836   3.655   0.773   3.041
 9279WAT     H237837   3.563   0.704   3.116
 9279WAT    EPW37838   3.604   0.769   3.101
 9280WAT      O37839   2.390   0.814   3.787
 9280WAT     H137840   2.450   0.857   3.834
 9280WAT     H237841   2.354   0.876   3.738
 9280WAT    EPW37842   2.394   0.829   3.787
 9281WAT      O37843   2.183   0.613   3.480
 9281WAT     H137844   2.126   0.654   3.531
 9281WAT     H237845   2.256   0.659   3.490
 9281WAT    EPW37846   2.185   0.626   3.489
 9282WAT      O37847   2.362   0.939   2.358
 9282WAT     H137848   2.347   0.955   2.273
 9282WAT     H237849   2.448   0.947   2.365
 9282WAT    EPW37850   2.372   0.943   2.346
 9283WAT      O37851   2.778   0.179   2.330
 9283WAT     H137852   2.788   0.193   2.245
 9283WAT     H237853   2.860   0.173   2.360
 9283WAT    EPW37854   2.792   0.180   2.322
 9284WAT      O37855   3.694   0.986   2.078
 9284WAT     H137856   3.758   0.972   2.136
 9284WAT     H237857   3.660   0.906   2.067
 9284WAT    EPW37858   3.699   0.972   2.085
 9285WAT      O37859   3.714   0.227   3.752
 9285WAT     H137860   3.777   0.210   3.809
 9285WAT     H237861   3.756   0.268   3.686
 9285WAT    EPW37862   3.729   0.231   3.751
 9286WAT      O37863   3.302   0.612   2.311
 9286WAT     H137864   3.277   0.599   2.393
 9286WAT     H237865   3.270   0.543   2.268
 9286WAT    EPW37866   3.293   0.600   2.317
 9287WAT      O37867   3.455   0.238   3.887
 9287WAT     H137868   3.542   0.235   3.884
 9287WAT     H237869   3.433   0.280   3.814
 9287WAT    EPW37870   3.465   0.244   3.876
 9288WAT      O37871   2.430   0.821   3.005
 9288WAT     H137872   2.422   0.740   2.974
 9288WAT     H237873   2.386   0.870   2.948
 9288WAT    EPW37874   2.423   0.816   2.992
 9289WAT      O37875   2.990   0.433   2.254
 9289WAT     H137876   3.062   0.398   2.218
 9289WAT     H237877   2.987   0.513   2.219
 9289WAT    EPW37878   3.001   0.440   2.243
 9290WAT      O37879   2.188   1.045   3.363
 9290WAT     H137880   2.237   1.040   3.435
 9290WAT     H237881   2.206   0.972   3.320
 9290WAT    EPW37882   2.198   1.034   3.368
 9291WAT      O37883   2.099   0.403   0.690
 9291WAT     H137884   2.055   0.414   0.764
 9291WAT     H237885   2.071   0.325   0.662
 9291WAT    EPW37886   2.088   0.393   0.697
 9292WAT      O37887   3.727   0.733   0.442
 9292WAT     H137888   3.797   0.681   0.441
 9292WAT     H237889   3.668   0.688   0.395
 9292WAT    EPW37890   3.728   0.718   0.435
 9293WAT      O37891   2.387   0.308   0.208
 9293WAT     H137892   2.348   0.271   0.139
 9293WAT     H237893   2.379   0.248   0.271
 9293WAT    EPW37894   2.380   0.294   0.207
 9294WAT      O37895   2.350   0.472   0.598
 9294WAT     H137896   2.411   0.455   0.658
 9294WAT     H237897   2.275   0.458   0.640
 9294WAT    EPW37898   2.348   0.468   0.613
 9295WAT      O37899   2.239   0.781   0.206
 9295WAT     H137900   2.286   0.790   0.133
 9295WAT     H237901   2.285   0.723   0.253
 9295WAT    EPW37902   2.253   0.774   0.202
 9296WAT      O37903   2.093   0.676   1.316
 9296WAT     H137904   2.106   0.648   1.397
 9296WAT     H237905   2.032   0.622   1.285
 9296WAT    EPW37906   2.086   0.664   1.323
 9297WAT      O37907   2.751   0.429   1.822
 9297WAT     H137908   2.727   0.428   1.906
 9297WAT     H237909   2.676   0.414   1.780
 9297WAT    EPW37910   2.736   0.426   1.828
 9298WAT      O37911   2.749   0.748   1.549
 9298WAT     H137912   2.763   0.824   1.508
 9298WAT     H237913   2.828   0.711   1.551
 9298WAT    EPW37914   2.762   0.754   1.543
 9299WAT      O37915   2.858   0.536   0.999
 9299WAT     H137916   2.893   0.456   1.002
 9299WAT     H237917   2.925   0.587   0.974
 9299WAT    EPW37918   2.873   0.532   0.996
 9300WAT      O37919   2.864   0.481   0.620
 9300WAT     H137920   2.897   0.417   0.669
 9300WAT     H237921   2.888   0.460   0.539
 9300WAT    EPW37922   2.872   0.469   0.615
 9301WAT      O37923   2.074   0.875   0.827
 9301WAT     H137924   2.015   0.931   0.796
 9301WAT     H237925   2.117   0.848   0.756
 9301WAT    EPW37926   2.072   0.879   0.812
 9302WAT      O37927   2.658   0.660   0.575
 9302WAT     H137928   2.600   0.632   0.634
 9302WAT     H237929   2.721   0.599   0.578
 9302WAT    EPW37930   2.659   0.647   0.584
 9303WAT      O37931   3.273   0.888   0.327
 9303WAT     H137932   3.345   0.936   0.338
 9303WAT     H237933   3.296   0.809   0.355
 9303WAT    EPW37934   3.287   0.884   0.333
 9304WAT      O37935   3.089   0.928   0.526
 9304WAT     H137936   3.111   0.980   0.593
 9304WAT     H237937   3.166   0.910   0.488
 9304WAT    EPW37938   3.104   0.933   0.531
 9305WAT      O37939   2.229   0.742   0.620
 9305WAT     H137940   2.294   0.685   0.622
 9305WAT     H237941   2.268   0.817   0.598
 9305WAT    EPW37942   2.244   0.745   0.617
 9306WAT      O37943   3.333   0.929   1.357
 9306WAT     H137944   3.408   0.974   1.356
 9306WAT     H237945   3.321   0.907   1.273
 9306WAT    EPW37946   3.343   0.932   1.344
 9307WAT      O37947   2.311   0.591   0.970
 9307WAT     H137948   2.353   0.555   0.903
 9307WAT     H237949   2.343   0.549   1.039
 9307WAT    EPW37950   2.322   0.579   0.971
 9308WAT      O37951   2.634   0.876   0.900
 9308WAT     H137952   2.718   0.887   0.880
 9308WAT     H237953   2.604   0.958   0.907
 9308WAT    EPW37954   2.642   0.890   0.898
 9309WAT      O37955   3.491   1.047   0.367
 9309WAT     H137956   3.557   1.032   0.313
 9309WAT     H237957   3.527   1.039   0.446
 9309WAT    EPW37958   3.506   1.044   0.371
 9310WAT      O37959   2.534   0.998   1.474
 9310WAT     H137960   2.563   0.991   1.556
 9310WAT     H237961   2.471   0.938   1.469
 9310WAT    EPW37962   2.529   0.988   1.485
 9311WAT      O37963   3.259   0.647   1.727
 9311WAT     H137964   3.255   0.685   1.806
 9311WAT     H237965   3.344   0.643   1.710
 9311WAT    EPW37966   3.271   0.652   1.736
 9312WAT      O37967   2.973   0.667   0.202
 9312WAT     H137968   2.954   0.721   0.268
 9312WAT     H237969   3.049   0.696   0.172
 9312WAT    EPW37970   2.981   0.679   0.208
 9313WAT      O37971   2.333   0.814   1.386
 9313WAT     H137972   2.263   0.763   1.399
 9313WAT     H237973   2.359   0.794   1.305
 9313WAT    EPW37974   2.326   0.804   1.376
 9314WAT      O37975   3.104   0.964   1.477
 9314WAT     H137976   3.181   0.956   1.436
 9314WAT     H237977   3.046   0.951   1.413
 9314WAT    EPW37978   3.107   0.961   1.462
 9315WAT      O37979   3.732   1.024   0.767
 9315WAT     H137980   3.686   1.096   0.787
 9315WAT     H237981   3.670   0.967   0.743
 9315WAT    EPW37982   3.716   1.026   0.767
 9316WAT      O37983   3.431   0.608   0.722
 9316WAT     H137984   3.501   0.560   0.740
 9316WAT     H237985   3.365   0.551   0.726
 9316WAT    EPW37986   3.432   0.593   0.725
 9317WAT      O37987   2.469   0.699   1.643
 9317WAT     H137988   2.553   0.706   1.621
 9317WAT     H237989   2.465   0.739   1.720
 9317WAT    EPW37990   2.481   0.706   1.651
 9318WAT      O37991   2.665   0.250   1.118
 9318WAT     H137992   2.682   0.229   1.201
 9318WAT     H237993   2.600   0.197   1.096
 9318WAT    EPW37994   2.658   0.239   1.127
 9319WAT      O37995   2.740   0.244   1.377
 9319WAT     H137996   2.746   0.329   1.397
 9319WAT     H237997   2.712   0.207   1.450
 9319WAT    EPW37998   2.737   0.251   1.390
 9320WAT      O37999   3.358   0.314   1.290
 9320WAT     H138000   3.307   0.273   1.347
 9320WAT     H238001   3.345   0.398   1.308
 9320WAT    EPW38002   3.349   0.320   1.301
 9321WAT      O38003   2.022   0.681   1.998
 9321WAT     H138004   2.098   0.716   2.024
 9321WAT     H238005   2.040   0.596   1.992
 9321WAT    EPW38006   2.036   0.674   2.001
 9322WAT      O38007   3.683   0.358   0.302
 9322WAT     H138008   3.695   0.329   0.384
 9322WAT     H238009   3.764   0.360   0.269
 9322WAT    EPW38010   3.697   0.354   0.310
 9323WAT      O38011   2.397   0.331   0.835
 9323WAT     H138012   2.482   0.323   0.818
 9323WAT     H238013   2.361   0.263   0.794
 9323WAT    EPW38014   2.404   0.320   0.827
 9324WAT      O38015   2.274   1.003   0.959
 9324WAT     H138016   2.206   0.954   0.935
 9324WAT     H238017   2.314   1.022   0.884
 9324WAT    EPW38018   2.270   0.999   0.944
 9325WAT      O38019   3.907   0.809   1.728
 9325WAT     H138020   3.838   0.840   1.683
 9325WAT     H238021   3.870   0.763   1.792
 9325WAT    EPW38022   3.891   0.806   1.731
 9326WAT      O38023   2.634   0.332   0.659
 9326WAT     H138024   2.705   0.381   0.668
 9326WAT     H238025   2.656   0.275   0.596
 9326WAT    EPW38026   2.647   0.330   0.651
 9327WAT      O38027   2.049   0.496   0.991
 9327WAT     H138028   1.983   0.545   1.019
 9327WAT     H238029   2.117   0.550   0.994
 9327WAT    EPW38030   2.049   0.511   0.995
 9328WAT      O38031   3.086   0.702   0.892
 9328WAT     H138032   3.034   0.765   0.862
 9328WAT     H238033   3.117   0.665   0.819
 9328WAT    EPW38034   3.083   0.706   0.877
 9329WAT      O38035   2.073   0.581   0.459
 9329WAT     H138036   2.128   0.638   0.495
 9329WAT     H238037   2.050   0.529   0.525
 9329WAT    EPW38038   2.078   0.581   0.474
 9330WAT      O38039   2.493   0.481   1.168
 9330WAT     H138040   2.540   0.510   1.235
 9330WAT     H238041   2.551   0.433   1.122
 9330WAT    EPW38042   2.509   0.478   1.171
 9331WAT      O38043   2.056   0.426   0.222
 9331WAT     H138044   2.132   0.382   0.227
 9331WAT     H238045   2.058   0.479   0.291
 9331WAT    EPW38046   2.067   0.427   0.233
 9332WAT      O38047   2.150   0.248   1.022
 9332WAT     H138048   2.193   0.235   0.947
 9332WAT     H238049   2.130   0.332   1.019
 9332WAT    EPW38050   2.153   0.258   1.011
 9333WAT      O38051   3.690   0.847   1.537
 9333WAT     H138052   3.623   0.898   1.559
 9333WAT     H238053   3.696   0.857   1.450
 9333WAT    EPW38054   3.681   0.856   1.527
 9334WAT      O38055   2.558   0.599   0.850
 9334WAT     H138056   2.571   0.684   0.869
 9334WAT     H238057   2.625   0.559   0.890
 9334WAT    EPW38058   2.570   0.606   0.859
 9335WAT      O38059   2.890   0.922   1.296
 9335WAT     H138060   2.862   0.858   1.244
 9335WAT     H238061   2.869   0.994   1.253
 9335WAT    EPW38062   2.883   0.923   1.282
 9336WAT      O38063   3.420   0.400   1.739
 9336WAT     H138064   3.468   0.472   1.749
 9336WAT     H238065   3.459   0.357   1.674
 9336WAT    EPW38066   3.433   0.404   1.731
 9337WAT      O38067   2.849   0.684   1.857
 9337WAT     H138068   2.885   0.667   1.934
 9337WAT     H238069   2.806   0.612   1.837
 9337WAT    EPW38070   2.848   0.671   1.865
 9338WAT      O38071   3.663   0.463   0.746
 9338WAT     H138072   3.698   0.428   0.817
 9338WAT     H238073   3.662   0.397   0.689
 9338WAT    EPW38074   3.668   0.448   0.748
 9339WAT      O38075   3.267   0.770   1.130
 9339WAT     H138076   3.207   0.740   1.075
 9339WAT     H238077   3.322   0.815   1.079
 9339WAT    EPW38078   3.266   0.772   1.114
 9340WAT      O38079   3.269   0.455   1.070
 9340WAT     H138080   3.189   0.477   1.098
 9340WAT     H238081   3.294   0.395   1.129
 9340WAT    EPW38082   3.261   0.449   1.083
 9341WAT      O38083   2.658   0.936   0.515
 9341WAT     H138084   2.643   0.858   0.552
 9341WAT     H238085   2.727   0.921   0.464
 9341WAT    EPW38086   2.666   0.922   0.513
 9342WAT      O38087   2.887   0.888   0.355
 9342WAT     H138088   2.949   0.904   0.414
 9342WAT     H238089   2.891   0.957   0.302
 9342WAT    EPW38090   2.897   0.900   0.356
 9343WAT      O38091   3.595   0.255   1.555
 9343WAT     H138092   3.600   0.267   1.469
 9343WAT     H238093   3.670   0.287   1.585
 9343WAT    EPW38094   3.606   0.261   1.547
 9344WAT      O38095   3.214   0.789   1.983
 9344WAT     H138096   3.230   0.818   2.063
 9344WAT     H238097   3.240   0.856   1.932
 9344WAT    EPW38098   3.220   0.803   1.987
 9345WAT      O38099   3.168   0.235   1.515
 9345WAT     H138100   3.152   0.296   1.575
 9345WAT     H238101   3.221   0.179   1.555
 9345WAT    EPW38102   3.173   0.236   1.530
 9346WAT      O38103   3.529   0.508   1.168
 9346WAT     H138104   3.481   0.538   1.101
 9346WAT     H238105   3.493   0.430   1.185
 9346WAT    EPW38106   3.516   0.501   1.160
 9347WAT      O38107   2.928   0.280   1.024
 9347WAT     H138108   2.844   0.260   1.032
 9347WAT     H238109   2.961   0.263   1.103
 9347WAT    EPW38110   2.921   0.275   1.037
 9348WAT      O38111   2.313   0.249   1.255
 9348WAT     H138112   2.385   0.298   1.252
 9348WAT     H238113   2.286   0.246   1.172
 9348WAT    EPW38114   2.320   0.256   1.243
 9349WAT      O38115   3.898   0.925   0.362
 9349WAT     H138116   3.967   0.878   0.337
 9349WAT     H238117   3.844   0.865   0.395
 9349WAT    EPW38118   3.900   0.909   0.363
 9350WAT      O38119   2.253   0.354   1.683
 9350WAT     H138120   2.211   0.303   1.627
 9350WAT     H238121   2.217   0.433   1.669
 9350WAT    EPW38122   2.241   0.358   1.673
 9351WAT      O38123   3.747   0.209   1.023
 9351WAT     H138124   3.719   0.249   1.095
 9351WAT     H238125   3.833   0.203   1.036
 9351WAT    EPW38126   3.756   0.214   1.036
 9352WAT      O38127   3.860   0.773   1.076
 9352WAT     H138128   3.889   0.798   0.998
 9352WAT     H238129   3.930   0.782   1.128
 9352WAT    EPW38130   3.875   0.778   1.072
 9353WAT      O38131   3.521   0.633   0.274
 9353WAT     H138132   3.554   0.552   0.278
 9353WAT     H238133   3.445   0.626   0.317
 9353WAT    EPW38134   3.515   0.620   0.281
 9354WAT      O38135   3.813   0.412   1.615
 9354WAT     H138136   3.876   0.357   1.590
 9354WAT     H238137   3.807   0.469   1.549
 9354WAT    EPW38138   3.822   0.413   1.602
 9355WAT      O38139   3.258   0.420   0.215
 9355WAT     H138140   3.327   0.369   0.198
 9355WAT     H238141   3.217   0.425   0.138
 9355WAT    EPW38142   3.262   0.414   0.201
 9356WAT      O38143   2.727   0.535   1.345
 9356WAT     H138144   2.697   0.595   1.402
 9356WAT     H238145   2.732   0.580   1.270
 9356WAT    EPW38146   2.723   0.551   1.342
 9357WAT      O38147   2.524   0.430   1.685
 9357WAT     H138148   2.444   0.401   1.701
 9357WAT     H238149   2.516   0.517   1.685
 9357WAT    EPW38150   2.511   0.439   1.687
 9358WAT      O38151   2.978   0.178   1.294
 9358WAT     H138152   3.026   0.215   1.357
 9358WAT     H238153   2.896   0.191   1.320
 9358WAT    EPW38154   2.973   0.185   1.307
 9359WAT      O38155   2.905   0.917   0.817
 9359WAT     H138156   2.959   0.985   0.822
 9359WAT     H238157   2.870   0.925   0.737
 9359WAT    EPW38158   2.907   0.928   0.806
 9360WAT      O38159   2.723   0.740   1.156
 9360WAT     H138160   2.660   0.798   1.138
 9360WAT     H238161   2.748   0.711   1.077
 9360WAT    EPW38162   2.717   0.744   1.141
 9361WAT      O38163   3.154   0.403   1.855
 9361WAT     H138164   3.229   0.432   1.822
 9361WAT     H238165   3.099   0.408   1.787
 9361WAT    EPW38166   3.157   0.408   1.840
 9362WAT      O38167   3.545   0.658   1.705
 9362WAT     H138168   3.579   0.685   1.780
 9362WAT     H238169   3.574   0.716   1.647
 9362WAT    EPW38170   3.554   0.671   1.708
 9363WAT      O38171   2.988   0.905   1.744
 9363WAT     H138172   3.036   0.845   1.702
 9363WAT     H238173   2.953   0.860   1.810
 9363WAT    EPW38174   2.990   0.889   1.747
 9364WAT      O38175   3.647   0.235   0.562
 9364WAT     H138176   3.695   0.163   0.557
 9364WAT     H238177   3.565   0.207   0.554
 9364WAT    EPW38178   3.642   0.220   0.560
 9365WAT      O38179   2.994   0.427   1.646
 9365WAT     H138180   2.915   0.420   1.681
 9365WAT     H238181   3.001   0.511   1.626
 9365WAT    EPW38182   2.983   0.438   1.648
 9366WAT      O38183   2.577   1.047   1.177
 9366WAT     H138184   2.578   1.053   1.264
 9366WAT     H238185   2.535   0.973   1.162
 9366WAT    EPW38186   2.571   1.037   1.188
 9367WAT      O38187   3.269   0.352   0.797
 9367WAT     H138188   3.276   0.386   0.877
 9367WAT     H238189   3.285   0.267   0.809
 9367WAT    EPW38190   3.272   0.345   0.811
 9368WAT      O38191   3.021   0.280   0.754
 9368WAT     H138192   2.991   0.248   0.830
 9368WAT     H238193   3.090   0.327   0.777
 9368WAT    EPW38194   3.027   0.282   0.769
 9369WAT      O38195   3.043   0.691   1.557
 9369WAT     H138196   3.112   0.680   1.609
 9369WAT     H238197   3.056   0.770   1.522
 9369WAT    EPW38198   3.055   0.701   1.559
 9370WAT      O38199   2.253   0.997   1.722
 9370WAT     H138200   2.188   0.940   1.731
 9370WAT     H238201   2.216   1.074   1.737
 9370WAT    EPW38202   2.238   1.000   1.725
 9371WAT      O38203   3.414   0.975   1.007
 9371WAT     H138204   3.369   1.039   1.045
 9371WAT     H238205   3.484   0.967   1.057
 9371WAT    EPW38206   3.417   0.983   1.020
 9372WAT      O38207   3.084   0.484   1.300
 9372WAT     H138208   3.014   0.524   1.334
 9372WAT     H238209   3.151   0.527   1.334
 9372WAT    EPW38210   3.083   0.496   1.310
 9373WAT      O38211   3.621   0.743   1.958
 9373WAT     H138212   3.699   0.704   1.966
 9373WAT     H238213   3.575   0.710   2.023
 9373WAT    EPW38214   3.626   0.733   1.969
 9374WAT      O38215   3.116   0.643   0.617
 9374WAT     H138216   3.095   0.727   0.601
 9374WAT     H238217   3.038   0.605   0.629
 9374WAT    EPW38218   3.101   0.650   0.616
 9375WAT      O38219   2.652   0.669   0.258
 9375WAT     H138220   2.696   0.677   0.332
 9375WAT     H238221   2.572   0.648   0.283
 9375WAT    EPW38222   2.647   0.667   0.273
 9376WAT      O38223   3.543   0.847   0.615
 9376WAT     H138224   3.526   0.781   0.670
 9376WAT     H238225   3.614   0.819   0.573
 9376WAT    EPW38226   3.551   0.833   0.617
 9377WAT      O38227   2.385   0.576   0.318
 9377WAT     H138228   2.361   0.546   0.396
 9377WAT     H238229   2.382   0.506   0.266
 9377WAT    EPW38230   2.381   0.562   0.322
 9378WAT      O38231   2.667   0.401   0.192
 9378WAT     H138232   2.585   0.374   0.206
 9378WAT     H238233   2.664   0.486   0.211
 9378WAT    EPW38234   2.654   0.410   0.197
 9379WAT      O38235   3.310   0.592   1.384
 9379WAT     H138236   3.331   0.622   1.463
 9379WAT     H238237   3.304   0.664   1.336
 9379WAT    EPW38238   3.313   0.607   1.389
 9380WAT      O38239   3.264   1.013   1.809
 9380WAT     H138240   3.189   1.011   1.765
 9380WAT     H238241   3.281   1.098   1.817
 9380WAT    EPW38242   3.255   1.026   1.803
 9381WAT      O38243   3.792   0.456   1.330
 9381WAT     H138244   3.788   0.370   1.316
 9381WAT     H238245   3.722   0.486   1.287
 9381WAT    EPW38246   3.781   0.447   1.322
 9382WAT      O38247   2.631   0.976   1.751
 9382WAT     H138248   2.635   0.988   1.837
 9382WAT     H238249   2.696   0.920   1.735
 9382WAT    EPW38250   2.641   0.969   1.761
 9383WAT      O38251   3.602   0.782   1.210
 9383WAT     H138252   3.655   0.773   1.141
 9383WAT     H238253   3.563   0.704   1.215
 9383WAT    EPW38254   3.604   0.769   1.200
 9384WAT      O38255   2.390   0.814   1.887
 9384WAT     H138256   2.450   0.857   1.934
 9384WAT     H238257   2.354   0.876   1.838
 9384WAT    EPW38258   2.394   0.829   1.886
 9385WAT      O38259   2.183   0.613   1.579
 9385WAT     H138260   2.126   0.654   1.630
 9385WAT     H238261   2.256   0.659   1.589
 9385WAT    EPW38262   2.185   0.626   1.588
 9386WAT      O38263   2.362   0.939   0.457
 9386WAT     H138264   2.347   0.955   0.372
 9386WAT     H238265   2.448   0.947   0.465
 9386WAT    EPW38266   2.372   0.943   0.446
 9387WAT      O38267   2.778   0.179   0.430
 9387WAT     H138268   2.788   0.193   0.344
 9387WAT     H238269   2.860   0.173   0.459
 9387WAT    EPW38270   2.792   0.180   0.421
 9388WAT      O38271   3.694   0.986   0.178
 9388WAT     H138272   3.758   0.972   0.236
 9388WAT     H238273   3.660   0.906   0.166
 9388WAT    EPW38274   3.699   0.972   0.185
 9389WAT      O38275   3.714   0.227   1.851
 9389WAT     H138276   3.777   0.210   1.908
 9389WAT     H238277   3.756   0.268   1.786
 9389WAT    EPW38278   3.729   0.231   1.850
 9390WAT      O38279   3.302   0.612   0.410
 9390WAT     H138280   3.277   0.599   0.493
 9390WAT     H238281   3.270   0.543   0.368
 9390WAT    EPW38282   3.293   0.600   0.416
 9391WAT      O38283   3.455   0.238   1.987
 9391WAT     H138284   3.542   0.235   1.983
 9391WAT     H238285   3.433   0.280   1.913
 9391WAT    EPW38286   3.465   0.244   1.975
 9392WAT      O38287   2.430   0.821   1.105
 9392WAT     H138288   2.422   0.740   1.073
 9392WAT     H238289   2.386   0.870   1.047
 9392WAT    EPW38290   2.423   0.816   1.092
 9393WAT      O38291   2.990   0.433   0.353
 9393WAT     H138292   3.062   0.398   0.317
 9393WAT     H238293   2.987   0.513   0.318
 9393WAT    EPW38294   3.001   0.440   0.343
 9394WAT      O38295   2.188   1.045   1.463
 9394WAT     H138296   2.237   1.040   1.535
 9394WAT     H238297   2.206   0.972   1.419
 9394WAT    EPW38298   2.198   1.034   1.467
 9395WAT      O38299   1.245   6.688   6.379
 9395WAT     H138300   1.220   6.737   6.311
 9395WAT     H238301   1.331   6.681   6.369
 9395WAT    EPW38302   1.254   6.694   6.368
 9396WAT      O38303   1.226   7.380   6.846
 9396WAT     H138304   1.173   7.439   6.883
 9396WAT     H238305   1.265   7.343   6.915
 9396WAT    EPW38306   1.224   7.383   6.862
 9397WAT      O38307   1.493   7.486   6.514
 9397WAT     H138308   1.501   7.487   6.427
 9397WAT     H238309   1.434   7.423   6.529
 9397WAT    EPW38310   1.485   7.477   6.503
 9398WAT      O38311   0.892   6.797   6.295
 9398WAT     H138312   0.885   6.865   6.240
 9398WAT     H238313   0.966   6.758   6.270
 9398WAT    EPW38314   0.902   6.801   6.283
 9399WAT      O38315   0.351   7.519   6.438
 9399WAT     H138316   0.305   7.480   6.375
 9399WAT     H238317   0.421   7.468   6.447
 9399WAT    EPW38318   0.355   7.506   6.430
 9400WAT      O38319   0.802   7.080   6.972
 9400WAT     H138320   0.870   7.082   6.917
 9400WAT     H238321   0.798   6.997   6.997
 9400WAT    EPW38322   0.811   7.068   6.968
 9401WAT      O38323   0.551   7.329   6.440
 9401WAT     H138324   0.633   7.311   6.464
 9401WAT     H238325   0.504   7.268   6.480
 9401WAT    EPW38326   0.556   7.318   6.449
 9402WAT      O38327   1.174   7.285   7.456
 9402WAT     H138328   1.089   7.276   7.438
 9402WAT     H238329   1.177   7.360   7.501
 9402WAT    EPW38330   1.162   7.295   7.460
 9403WAT      O38331   0.611   6.839   6.367
 9403WAT     H138332   0.581   6.889   6.302
 9403WAT     H238333   0.698   6.847   6.361
 9403WAT    EPW38334   0.619   6.847   6.356
 9404WAT      O38335   1.630   6.581   7.367
 9404WAT     H138336   1.614   6.658   7.329
 9404WAT     H238337   1.553   6.559   7.402
 9404WAT    EPW38338   1.616   6.590   7.367
 9405WAT      O38339   0.909   6.753   6.589
 9405WAT     H138340   0.916   6.839   6.602
 9405WAT     H238341   0.905   6.745   6.502
 9405WAT    EPW38342   0.909   6.765   6.578
 9406WAT      O38343   1.376   7.046   5.819
 9406WAT     H138344   1.331   7.114   5.849
 9406WAT     H238345   1.388   6.995   5.889
 9406WAT    EPW38346   1.371   7.048   5.834
 9407WAT      O38347   0.500   6.777   6.788
 9407WAT     H138348   0.448   6.714   6.757
 9407WAT     H238349   0.559   6.733   6.835
 9407WAT    EPW38350   0.501   6.761   6.790
 9408WAT      O38351   1.916   7.043   6.448
 9408WAT     H138352   1.881   7.111   6.491
 9408WAT     H238353   1.852   6.983   6.450
 9408WAT    EPW38354   1.901   7.044   6.455
 9409WAT      O38355   0.404   6.950   7.616
 9409WAT     H138356   0.326   6.911   7.609
 9409WAT     H238357   0.453   6.909   7.557
 9409WAT    EPW38358   0.399   6.938   7.606
 9410WAT      O38359   1.069   6.714   7.533
 9410WAT     H138360   1.086   6.634   7.506
 9410WAT     H238361   1.054   6.759   7.459
 9410WAT    EPW38362   1.069   6.709   7.518
 9411WAT      O38363   1.128   7.207   6.410
 9411WAT     H138364   1.157   7.184   6.331
 9411WAT     H238365   1.201   7.215   6.457
 9411WAT    EPW38366   1.143   7.205   6.406
 9412WAT      O38367   1.200   7.241   5.922
 9412WAT     H138368   1.228   7.320   5.947
 9412WAT     H238369   1.123   7.257   5.886
 9412WAT    EPW38370   1.193   7.255   5.921
 9413WAT      O38371   1.883   6.875   6.985
 9413WAT     H138372   1.959   6.882   6.942
 9413WAT     H238373   1.889   6.798   7.025
 9413WAT    EPW38374   1.895   6.865   6.985
 9414WAT      O38375   1.437   6.848   6.009
 9414WAT     H138376   1.491   6.779   6.017
 9414WAT     H238377   1.443   6.887   6.087
 9414WAT    EPW38378   1.446   6.843   6.022
 9415WAT      O38379   0.232   6.964   6.266
 9415WAT     H138380   0.221   6.878   6.269
 9415WAT     H238381   0.185   6.994   6.333
 9415WAT    EPW38382   0.223   6.956   6.277
 9416WAT      O38383   1.163   7.085   6.141
 9416WAT     H138384   1.112   7.019   6.115
 9416WAT     H238385   1.168   7.136   6.070
 9416WAT    EPW38386   1.156   7.083   6.127
 9417WAT      O38387   1.163   6.779   6.130
 9417WAT     H138388   1.117   6.739   6.067
 9417WAT     H238389   1.240   6.795   6.092
 9417WAT    EPW38390   1.167   6.776   6.115
 9418WAT      O38391   1.022   7.016   6.582
 9418WAT     H138392   1.030   7.073   6.516
 9418WAT     H238393   1.034   7.065   6.653
 9418WAT    EPW38394   1.025   7.032   6.583
 9419WAT      O38395   0.483   6.598   6.417
 9419WAT     H138396   0.537   6.667   6.416
 9419WAT     H238397   0.483   6.571   6.334
 9419WAT    EPW38398   0.491   6.604   6.405
 9420WAT      O38399   1.402   7.033   7.171
 9420WAT     H138400   1.392   7.065   7.252
 9420WAT     H238401   1.342   6.969   7.167
 9420WAT    EPW38402   1.391   7.028   7.182
 9421WAT      O38403   1.527   6.627   6.455
 9421WAT     H138404   1.532   6.596   6.536
 9421WAT     H238405   1.559   6.563   6.405
 9421WAT    EPW38406   1.533   6.613   6.459
 9422WAT      O38407   1.774   7.051   7.285
 9422WAT     H138408   1.851   7.029   7.319
 9422WAT     H238409   1.726   7.073   7.355
 9422WAT    EPW38410   1.778   7.051   7.301
 9423WAT      O38411   0.528   6.979   6.582
 9423WAT     H138412   0.555   6.936   6.512
 9423WAT     H238413   0.510   6.916   6.639
 9423WAT    EPW38414   0.529   6.964   6.580
 9424WAT      O38415   0.342   7.090   6.891
 9424WAT     H138416   0.426   7.112   6.886
 9424WAT     H238417   0.303   7.147   6.837
 9424WAT    EPW38418   0.349   7.101   6.882
 9425WAT      O38419   1.586   7.403   5.963
 9425WAT     H138420   1.564   7.476   5.920
 9425WAT     H238421   1.541   7.408   6.037
 9425WAT    EPW38422   1.576   7.414   5.967
 9426WAT      O38423   2.005   6.889   5.908
 9426WAT     H138424   1.939   6.832   5.910
 9426WAT     H238425   1.986   6.940   5.840
 9426WAT    EPW38426   1.992   6.888   5.898
 9427WAT      O38427   2.037   7.326   7.164
 9427WAT     H138428   2.059   7.246   7.136
 9427WAT     H238429   1.952   7.332   7.145
 9427WAT    EPW38430   2.028   7.316   7.157
 9428WAT      O38431   1.805   6.844   6.136
 9428WAT     H138432   1.880   6.804   6.156
 9428WAT     H238433   1.831   6.916   6.093
 9428WAT    EPW38434   1.820   6.849   6.133
 9429WAT      O38435   1.451   7.073   6.643
 9429WAT     H138436   1.485   7.088   6.722
 9429WAT     H238437   1.405   6.999   6.654
 9429WAT    EPW38438   1.449   7.065   6.656
 9430WAT      O38439   0.898   6.995   6.089
 9430WAT     H138440   0.898   6.984   6.002
 9430WAT     H238441   0.880   7.080   6.098
 9430WAT    EPW38442   0.895   7.006   6.077
 9431WAT      O38443   0.485   7.339   7.538
 9431WAT     H138444   0.431   7.288   7.585
 9431WAT     H238445   0.487   7.300   7.460
 9431WAT    EPW38446   0.477   7.325   7.534
 9432WAT      O38447   0.533   7.278   6.052
 9432WAT     H138448   0.521   7.234   6.126
 9432WAT     H238449   0.475   7.244   5.997
 9432WAT    EPW38450   0.523   7.267   6.055
 9433WAT      O38451   0.550   7.461   6.712
 9433WAT     H138452   0.472   7.456   6.674
 9433WAT     H238453   0.557   7.386   6.756
 9433WAT    EPW38454   0.540   7.450   6.713
 9434WAT      O38455   0.593   7.435   7.059
 9434WAT     H138456   0.596   7.368   7.004
 9434WAT     H238457   0.529   7.485   7.028
 9434WAT    EPW38458   0.584   7.432   7.046
 9435WAT      O38459   1.583   7.206   6.899
 9435WAT     H138460   1.516   7.239   6.945
 9435WAT     H238461   1.601   7.270   6.842
 9435WAT    EPW38462   1.576   7.221   6.897
 9436WAT      O38463   1.247   6.797   7.241
 9436WAT     H138464   1.262   6.715   7.217
 9436WAT     H238465   1.285   6.803   7.320
 9436WAT    EPW38466   1.255   6.786   7.249
 9437WAT      O38467   1.402   7.003   6.250
 9437WAT     H138468   1.451   7.075   6.242
 9437WAT     H238469   1.323   7.029   6.223
 9437WAT    EPW38470   1.398   7.018   6.245
 9438WAT      O38471   1.060   7.150   6.822
 9438WAT     H138472   1.108   7.220   6.843
 9438WAT     H238473   1.097   7.086   6.867
 9438WAT    EPW38474   1.073   7.151   6.832
 9439WAT      O38475   1.279   7.467   6.050
 9439WAT     H138476   1.278   7.539   6.001
 9439WAT     H238477   1.215   7.481   6.107
 9439WAT    EPW38478   1.270   7.480   6.051
 9440WAT      O38479   0.738   6.701   6.016
 9440WAT     H138480   0.748   6.691   6.102
 9440WAT     H238481   0.668   6.752   6.009
 9440WAT    EPW38482   0.729   6.707   6.027
 9441WAT      O38483   1.811   6.676   7.555
 9441WAT     H138484   1.748   6.636   7.511
 9441WAT     H238485   1.814   6.632   7.631
 9441WAT    EPW38486   1.802   6.663   7.560
 9442WAT      O38487   1.120   7.466   6.282
 9442WAT     H138488   1.125   7.531   6.340
 9442WAT     H238489   1.101   7.397   6.332
 9442WAT    EPW38490   1.118   7.466   6.298
 9443WAT      O38491   0.569   6.918   5.934
 9443WAT     H138492   0.518   6.923   5.863
 9443WAT     H238493   0.648   6.942   5.904
 9443WAT    EPW38494   0.573   6.922   5.919
 9444WAT      O38495   0.750   7.157   6.631
 9444WAT     H138496   0.834   7.138   6.640
 9444WAT     H238497   0.713   7.080   6.617
 9444WAT    EPW38498   0.757   7.143   6.630
 9445WAT      O38499   0.232   7.291   6.296
 9445WAT     H138500   0.281   7.262   6.362
 9445WAT     H238501   0.245   7.232   6.233
 9445WAT    EPW38502   0.241   7.278   6.297
 9446WAT      O38503   0.684   7.435   5.845
 9446WAT     H138504   0.623   7.394   5.892
 9446WAT     H238505   0.646   7.446   5.767
 9446WAT    EPW38506   0.670   7.430   5.840
 9447WAT      O38507   0.830   7.281   6.116
 9447WAT     H138508   0.857   7.363   6.122
 9447WAT     H238509   0.743   7.288   6.106
 9447WAT    EPW38510   0.821   7.294   6.115
 9448WAT      O38511   1.627   6.993   7.579
 9448WAT     H138512   1.575   7.039   7.631
 9448WAT     H238513   1.591   6.913   7.578
 9448WAT    EPW38514   1.614   6.988   7.587
 9449WAT      O38515   0.178   6.878   6.769
 9449WAT     H138516   0.182   6.912   6.689
 9449WAT     H238517   0.253   6.901   6.806
 9449WAT    EPW38518   0.190   6.886   6.763
 9450WAT      O38519   1.476   7.350   7.587
 9450WAT     H138520   1.484   7.360   7.673
 9450WAT     H238521   1.413   7.406   7.564
 9450WAT    EPW38522   1.468   7.360   7.596
 9451WAT      O38523   1.703   7.382   7.423
 9451WAT     H138524   1.735   7.460   7.443
 9451WAT     H238525   1.666   7.355   7.497
 9451WAT    EPW38526   1.702   7.389   7.437
 9452WAT      O38527   1.683   7.208   6.542
 9452WAT     H138528   1.608   7.175   6.574
 9452WAT     H238529   1.683   7.290   6.570
 9452WAT    EPW38530   1.672   7.215   6.551
 9453WAT      O38531   1.574   6.841   7.288
 9453WAT     H138532   1.648   6.886   7.282
 9453WAT     H238533   1.517   6.888   7.241
 9453WAT    EPW38534   1.577   6.854   7.280
 9454WAT      O38535   0.763   7.129   7.270
 9454WAT     H138536   0.779   7.055   7.313
 9454WAT     H238537   0.758   7.104   7.186
 9454WAT    EPW38538   0.764   7.115   7.264
 9455WAT      O38539   1.702   6.639   7.055
 9455WAT     H138540   1.674   6.721   7.051
 9455WAT     H238541   1.774   6.644   7.105
 9455WAT    EPW38542   1.709   6.652   7.062
 9456WAT      O38543   0.938   6.710   7.258
 9456WAT     H138544   1.008   6.742   7.218
 9456WAT     H238545   0.962   6.629   7.281
 9456WAT    EPW38546   0.952   6.703   7.255
 9457WAT      O38547   1.844   7.264   5.941
 9457WAT     H138548   1.882   7.332   5.901
 9457WAT     H238549   1.760   7.286   5.944
 9457WAT    EPW38550   1.838   7.277   5.935
 9458WAT      O38551   0.589   7.215   6.864
 9458WAT     H138552   0.633   7.205   6.789
 9458WAT     H238553   0.643   7.184   6.925
 9458WAT    EPW38554   0.603   7.209   6.862
 9459WAT      O38555   1.390   7.126   7.423
 9459WAT     H138556   1.326   7.173   7.458
 9459WAT     H238557   1.447   7.117   7.489
 9459WAT    EPW38558   1.389   7.131   7.438
 9460WAT      O38559   1.359   7.279   7.053
 9460WAT     H138560   1.389   7.321   7.123
 9460WAT     H238561   1.363   7.195   7.076
 9460WAT    EPW38562   1.364   7.273   7.067
 9461WAT      O38563   1.614   7.224   6.278
 9461WAT     H138564   1.635   7.204   6.361
 9461WAT     H238565   1.690   7.251   6.244
 9461WAT    EPW38566   1.628   7.225   6.285
 9462WAT      O38567   0.943   6.714   6.869
 9462WAT     H138568   0.861   6.699   6.892
 9462WAT     H238569   0.939   6.717   6.782
 9462WAT    EPW38570   0.931   6.712   6.859
 9463WAT      O38571   1.716   6.832   6.426
 9463WAT     H138572   1.645   6.785   6.443
 9463WAT     H238573   1.700   6.866   6.347
 9463WAT    EPW38574   1.703   6.830   6.417
 9464WAT      O38575   0.506   7.028   6.195
 9464WAT     H138576   0.519   6.995   6.115
 9464WAT     H238577   0.425   7.003   6.215
 9464WAT    EPW38578   0.496   7.020   6.186
 9465WAT      O38579   1.974   7.343   7.439
 9465WAT     H138580   1.889   7.331   7.452
 9465WAT     H238581   1.989   7.304   7.363
 9465WAT    EPW38582   1.964   7.336   7.430
 9466WAT      O38583   1.425   7.410   7.297
 9466WAT     H138584   1.400   7.338   7.339
 9466WAT     H238585   1.507   7.422   7.324
 9466WAT    EPW38586   1.434   7.401   7.307
 9467WAT      O38587   0.504   7.229   7.236
 9467WAT     H138588   0.542   7.291   7.188
 9467WAT     H238589   0.571   7.182   7.265
 9467WAT    EPW38590   0.520   7.231   7.233
 9468WAT      O38591   0.282   7.074   7.164
 9468WAT     H138592   0.289   7.057   7.079
 9468WAT     H238593   0.356   7.115   7.184
 9468WAT    EPW38594   0.294   7.077   7.154
 9469WAT      O38595   1.837   7.338   6.208
 9469WAT     H138596   1.848   7.332   6.121
 9469WAT     H238597   1.912   7.305   6.240
 9469WAT    EPW38598   1.850   7.332   6.200
 9470WAT      O38599   0.537   6.815   7.405
 9470WAT     H138600   0.529   6.731   7.426
 9470WAT     H238601   0.506   6.819   7.324
 9470WAT    EPW38602   0.531   6.803   7.396
 9471WAT      O38603   1.748   7.353   7.143
 9471WAT     H138604   1.747   7.266   7.156
 9471WAT     H238605   1.754   7.385   7.224
 9471WAT    EPW38606   1.749   7.345   7.157
 9472WAT      O38607   0.367   7.190   5.848
 9472WAT     H138608   0.300   7.192   5.904
 9472WAT     H238609   0.376   7.105   5.830
 9472WAT    EPW38610   0.358   7.178   5.854
 9473WAT      O38611   1.336   6.833   7.522
 9473WAT     H138612   1.345   6.904   7.571
 9473WAT     H238613   1.272   6.788   7.561
 9473WAT    EPW38614   1.327   6.836   7.535
 9474WAT      O38615   1.235   6.852   6.607
 9474WAT     H138616   1.165   6.903   6.601
 9474WAT     H238617   1.239   6.814   6.529
 9474WAT    EPW38618   1.225   6.854   6.595
 9475WAT      O38619   1.595   6.903   6.887
 9475WAT     H138620   1.680   6.913   6.902
 9475WAT     H238621   1.558   6.958   6.944
 9475WAT    EPW38622   1.602   6.913   6.898
 9476WAT      O38623   1.625   7.431   6.736
 9476WAT     H138624   1.692   7.485   6.752
 9476WAT     H238625   1.591   7.462   6.662
 9476WAT    EPW38626   1.630   7.444   6.728
 9477WAT      O38627   0.740   6.823   7.070
 9477WAT     H138628   0.654   6.832   7.078
 9477WAT     H238629   0.762   6.772   7.137
 9477WAT    EPW38630   0.731   6.817   7.081
 9478WAT      O38631   1.942   6.687   7.203
 9478WAT     H138632   1.937   6.683   7.290
 9478WAT     H238633   2.011   6.637   7.184
 9478WAT    EPW38634   1.952   6.679   7.213
 9479WAT      O38635   1.151   6.898   6.907
 9479WAT     H138636   1.077   6.853   6.918
 9479WAT     H238637   1.208   6.858   6.959
 9479WAT    EPW38638   1.148   6.886   6.917
 9480WAT      O38639   0.901   7.331   7.428
 9480WAT     H138640   0.869   7.274   7.371
 9480WAT     H238641   0.865   7.407   7.403
 9480WAT    EPW38642   0.891   7.334   7.416
 9481WAT      O38643   0.981   6.656   5.890
 9481WAT     H138644   0.988   6.681   5.807
 9481WAT     H238645   0.906   6.694   5.916
 9481WAT    EPW38646   0.971   6.666   5.882
 9482WAT      O38647   0.462   6.832   7.135
 9482WAT     H138648   0.428   6.755   7.111
 9482WAT     H238649   0.393   6.884   7.141
 9482WAT    EPW38650   0.447   6.828   7.132
 9483WAT      O38651   1.367   6.717   6.832
 9483WAT     H138652   1.434   6.772   6.845
 9483WAT     H238653   1.317   6.760   6.775
 9483WAT    EPW38654   1.370   6.732   6.826
 9484WAT      O38655   1.303   7.298   6.582
 9484WAT     H138656   1.358   7.237   6.612
 9484WAT     H238657   1.260   7.324   6.653
 9484WAT    EPW38658   1.305   7.293   6.596
 9485WAT      O38659   0.328   7.163   6.530
 9485WAT     H138660   0.291   7.193   6.603
 9485WAT     H238661   0.381   7.100   6.559
 9485WAT    EPW38662   0.330   7.158   6.545
 9486WAT      O38663   1.500   7.481   6.238
 9486WAT     H138664   1.507   7.396   6.256
 9486WAT     H238665   1.418   7.490   6.210
 9486WAT    EPW38666   1.489   7.470   6.236
 9487WAT      O38667   1.890   7.075   7.627
 9487WAT     H138668   1.870   7.139   7.682
 9487WAT     H238669   1.818   7.026   7.626
 9487WAT    EPW38670   1.876   7.077   7.635
 9488WAT      O38671   1.880   7.169   6.924
 9488WAT     H138672   1.796   7.194   6.917
 9488WAT     H238673   1.874   7.085   6.947
 9488WAT    EPW38674   1.867   7.160   6.926
 9489WAT      O38675   0.806   6.868   7.443
 9489WAT     H138676   0.829   6.810   7.382
 9489WAT     H238677   0.722   6.850   7.457
 9489WAT    EPW38678   0.797   6.857   7.436
 9490WAT      O38679   1.245   6.688   4.479
 9490WAT     H138680   1.220   6.737   4.411
 9490WAT     H238681   1.331   6.681   4.469
 9490WAT    EPW38682   1.254   6.694   4.467
 9491WAT      O38683   1.226   7.380   4.946
 9491WAT     H138684   1.173   7.439   4.982
 9491WAT     H238685   1.265   7.343   5.014
 9491WAT    EPW38686   1.224   7.383   4.961
 9492WAT      O38687   1.493   7.486   4.613
 9492WAT     H138688   1.501   7.487   4.526
 9492WAT     H238689   1.434   7.423   4.628
 9492WAT    EPW38690   1.485   7.477   4.603
 9493WAT      O38691   0.892   6.797   4.394
 9493WAT     H138692   0.885   6.865   4.340
 9493WAT     H238693   0.966   6.758   4.369
 9493WAT    EPW38694   0.902   6.801   4.382
 9494WAT      O38695   0.351   7.519   4.537
 9494WAT     H138696   0.305   7.480   4.474
 9494WAT     H238697   0.421   7.468   4.546
 9494WAT    EPW38698   0.355   7.506   4.529
 9495WAT      O38699   0.802   7.080   5.072
 9495WAT     H138700   0.870   7.082   5.017
 9495WAT     H238701   0.798   6.997   5.096
 9495WAT    EPW38702   0.811   7.068   5.067
 9496WAT      O38703   0.551   7.329   4.539
 9496WAT     H138704   0.633   7.311   4.564
 9496WAT     H238705   0.504   7.268   4.579
 9496WAT    EPW38706   0.556   7.318   4.549
 9497WAT      O38707   1.174   7.285   5.555
 9497WAT     H138708   1.089   7.276   5.538
 9497WAT     H238709   1.177   7.360   5.601
 9497WAT    EPW38710   1.162   7.295   5.559
 9498WAT      O38711   0.611   6.839   4.466
 9498WAT     H138712   0.581   6.889   4.401
 9498WAT     H238713   0.698   6.847   4.460
 9498WAT    EPW38714   0.619   6.847   4.456
 9499WAT      O38715   1.630   6.581   5.467
 9499WAT     H138716   1.614   6.658   5.429
 9499WAT     H238717   1.553   6.559   5.501
 9499WAT    EPW38718   1.616   6.590   5.466
 9500WAT      O38719   0.909   6.753   4.688
 9500WAT     H138720   0.916   6.839   4.701
 9500WAT     H238721   0.905   6.745   4.601
 9500WAT    EPW38722   0.909   6.765   4.677
 9501WAT      O38723   1.376   7.046   3.918
 9501WAT     H138724   1.331   7.114   3.949
 9501WAT     H238725   1.388   6.995   3.988
 9501WAT    EPW38726   1.371   7.048   3.933
 9502WAT      O38727   0.500   6.777   4.887
 9502WAT     H138728   0.448   6.714   4.857
 9502WAT     H238729   0.559   6.733   4.935
 9502WAT    EPW38730   0.501   6.761   4.890
 9503WAT      O38731   0.830   6.990   5.817
 9503WAT     H138732   0.842   6.945   5.744
 9503WAT     H238733   0.859   7.070   5.797
 9503WAT    EPW38734   0.836   6.996   5.803
 9504WAT      O38735   1.916   7.043   4.548
 9504WAT     H138736   1.881   7.111   4.590
 9504WAT     H238737   1.852   6.983   4.549
 9504WAT    EPW38738   1.901   7.044   4.554
 9505WAT      O38739   0.404   6.950   5.716
 9505WAT     H138740   0.326   6.911   5.708
 9505WAT     H238741   0.453   6.909   5.657
 9505WAT    EPW38742   0.399   6.938   5.706
 9506WAT      O38743   1.069   6.714   5.632
 9506WAT     H138744   1.086   6.634   5.605
 9506WAT     H238745   1.054   6.759   5.559
 9506WAT    EPW38746   1.069   6.709   5.617
 9507WAT      O38747   1.128   7.207   4.510
 9507WAT     H138748   1.157   7.184   4.431
 9507WAT     H238749   1.201   7.215   4.557
 9507WAT    EPW38750   1.143   7.205   4.505
 9508WAT      O38751   1.200   7.241   4.022
 9508WAT     H138752   1.228   7.320   4.047
 9508WAT     H238753   1.123   7.257   3.986
 9508WAT    EPW38754   1.193   7.255   4.020
 9509WAT      O38755   1.883   6.875   5.085
 9509WAT     H138756   1.959   6.882   5.042
 9509WAT     H238757   1.889   6.798   5.124
 9509WAT    EPW38758   1.895   6.865   5.084
 9510WAT      O38759   1.437   6.848   4.109
 9510WAT     H138760   1.491   6.779   4.116
 9510WAT     H238761   1.443   6.887   4.186
 9510WAT    EPW38762   1.446   6.843   4.121
 9511WAT      O38763   0.232   6.964   4.366
 9511WAT     H138764   0.221   6.878   4.369
 9511WAT     H238765   0.185   6.994   4.433
 9511WAT    EPW38766   0.223   6.956   4.376
 9512WAT      O38767   1.163   7.085   4.240
 9512WAT     H138768   1.112   7.019   4.215
 9512WAT     H238769   1.168   7.136   4.169
 9512WAT    EPW38770   1.156   7.083   4.226
 9513WAT      O38771   1.163   6.779   4.229
 9513WAT     H138772   1.117   6.739   4.167
 9513WAT     H238773   1.240   6.795   4.192
 9513WAT    EPW38774   1.167   6.776   4.215
 9514WAT      O38775   1.022   7.016   4.682
 9514WAT     H138776   1.030   7.073   4.616
 9514WAT     H238777   1.034   7.065   4.753
 9514WAT    EPW38778   1.025   7.032   4.682
 9515WAT      O38779   0.483   6.598   4.516
 9515WAT     H138780   0.537   6.667   4.515
 9515WAT     H238781   0.483   6.571   4.434
 9515WAT    EPW38782   0.491   6.604   4.504
 9516WAT      O38783   1.402   7.033   5.270
 9516WAT     H138784   1.392   7.065   5.351
 9516WAT     H238785   1.342   6.969   5.267
 9516WAT    EPW38786   1.391   7.028   5.282
 9517WAT      O38787   1.527   6.627   4.554
 9517WAT     H138788   1.532   6.596   4.635
 9517WAT     H238789   1.559   6.563   4.505
 9517WAT    EPW38790   1.533   6.613   4.559
 9518WAT      O38791   1.774   7.051   5.385
 9518WAT     H138792   1.851   7.029   5.418
 9518WAT     H238793   1.726   7.073   5.455
 9518WAT    EPW38794   1.778   7.051   5.400
 9519WAT      O38795   0.528   6.979   4.682
 9519WAT     H138796   0.555   6.936   4.611
 9519WAT     H238797   0.510   6.916   4.739
 9519WAT    EPW38798   0.529   6.964   4.680
 9520WAT      O38799   0.342   7.090   4.990
 9520WAT     H138800   0.426   7.112   4.986
 9520WAT     H238801   0.303   7.147   4.937
 9520WAT    EPW38802   0.349   7.101   4.981
 9521WAT      O38803   1.586   7.403   4.062
 9521WAT     H138804   1.564   7.476   4.020
 9521WAT     H238805   1.541   7.408   4.137
 9521WAT    EPW38806   1.576   7.414   4.067
 9522WAT      O38807   2.005   6.889   4.007
 9522WAT     H138808   1.939   6.832   4.010
 9522WAT     H238809   1.986   6.940   3.939
 9522WAT    EPW38810   1.992   6.888   3.998
 9523WAT      O38811   0.927   7.258   5.802
 9523WAT     H138812   0.879   7.316   5.846
 9523WAT     H238813   0.925   7.288   5.720
 9523WAT    EPW38814   0.920   7.271   5.796
 9524WAT      O38815   2.037   7.326   5.263
 9524WAT     H138816   2.059   7.246   5.235
 9524WAT     H238817   1.952   7.332   5.244
 9524WAT    EPW38818   2.028   7.316   5.256
 9525WAT      O38819   1.805   6.844   4.235
 9525WAT     H138820   1.880   6.804   4.255
 9525WAT     H238821   1.831   6.916   4.193
 9525WAT    EPW38822   1.820   6.849   4.232
 9526WAT      O38823   1.451   7.073   4.743
 9526WAT     H138824   1.485   7.088   4.821
 9526WAT     H238825   1.405   6.999   4.754
 9526WAT    EPW38826   1.449   7.065   4.756
 9527WAT      O38827   0.898   6.995   4.188
 9527WAT     H138828   0.898   6.984   4.102
 9527WAT     H238829   0.880   7.080   4.197
 9527WAT    EPW38830   0.895   7.006   4.177
 9528WAT      O38831   0.485   7.339   5.638
 9528WAT     H138832   0.431   7.288   5.684
 9528WAT     H238833   0.487   7.300   5.560
 9528WAT    EPW38834   0.477   7.325   5.633
 9529WAT      O38835   0.533   7.278   4.152
 9529WAT     H138836   0.521   7.234   4.225
 9529WAT     H238837   0.475   7.244   4.096
 9529WAT    EPW38838   0.523   7.267   4.154
 9530WAT      O38839   0.550   7.461   4.812
 9530WAT     H138840   0.472   7.456   4.773
 9530WAT     H238841   0.557   7.386   4.855
 9530WAT    EPW38842   0.540   7.450   4.812
 9531WAT      O38843   0.593   7.435   5.158
 9531WAT     H138844   0.596   7.368   5.103
 9531WAT     H238845   0.529   7.485   5.127
 9531WAT    EPW38846   0.584   7.432   5.146
 9532WAT      O38847   1.583   7.206   4.998
 9532WAT     H138848   1.516   7.239   5.044
 9532WAT     H238849   1.601   7.270   4.941
 9532WAT    EPW38850   1.576   7.221   4.996
 9533WAT      O38851   1.247   6.797   5.341
 9533WAT     H138852   1.262   6.715   5.317
 9533WAT     H238853   1.285   6.803   5.419
 9533WAT    EPW38854   1.255   6.786   5.349
 9534WAT      O38855   1.402   7.003   4.349
 9534WAT     H138856   1.451   7.075   4.341
 9534WAT     H238857   1.323   7.029   4.323
 9534WAT    EPW38858   1.398   7.018   4.344
 9535WAT      O38859   1.060   7.150   4.922
 9535WAT     H138860   1.108   7.220   4.942
 9535WAT     H238861   1.097   7.086   4.967
 9535WAT    EPW38862   1.073   7.151   4.931
 9536WAT      O38863   1.279   7.467   4.149
 9536WAT     H138864   1.278   7.539   4.100
 9536WAT     H238865   1.215   7.481   4.207
 9536WAT    EPW38866   1.270   7.480   4.150
 9537WAT      O38867   0.738   6.701   4.115
 9537WAT     H138868   0.748   6.691   4.201
 9537WAT     H238869   0.668   6.752   4.109
 9537WAT    EPW38870   0.729   6.707   4.127
 9538WAT      O38871   1.811   6.676   5.655
 9538WAT     H138872   1.748   6.636   5.611
 9538WAT     H238873   1.814   6.632   5.731
 9538WAT    EPW38874   1.802   6.663   5.659
 9539WAT      O38875   1.120   7.466   4.382
 9539WAT     H138876   1.125   7.531   4.440
 9539WAT     H238877   1.101   7.397   4.431
 9539WAT    EPW38878   1.118   7.466   4.398
 9540WAT      O38879   0.569   6.918   4.033
 9540WAT     H138880   0.518   6.923   3.962
 9540WAT     H238881   0.648   6.942   4.003
 9540WAT    EPW38882   0.573   6.922   4.018
 9541WAT      O38883   0.750   7.157   4.730
 9541WAT     H138884   0.834   7.138   4.740
 9541WAT     H238885   0.713   7.080   4.716
 9541WAT    EPW38886   0.757   7.143   4.729
 9542WAT      O38887   0.232   7.291   4.396
 9542WAT     H138888   0.281   7.262   4.462
 9542WAT     H238889   0.245   7.232   4.333
 9542WAT    EPW38890   0.241   7.278   4.396
 9543WAT      O38891   0.684   7.435   3.944
 9543WAT     H138892   0.623   7.394   3.992
 9543WAT     H238893   0.646   7.446   3.867
 9543WAT    EPW38894   0.670   7.430   3.940
 9544WAT      O38895   0.830   7.281   4.215
 9544WAT     H138896   0.857   7.363   4.222
 9544WAT     H238897   0.743   7.288   4.206
 9544WAT    EPW38898   0.821   7.294   4.215
 9545WAT      O38899   1.627   6.993   5.678
 9545WAT     H138900   1.575   7.039   5.731
 9545WAT     H238901   1.591   6.913   5.678
 9545WAT    EPW38902   1.614   6.988   5.686
 9546WAT      O38903   0.178   6.878   4.869
 9546WAT     H138904   0.182   6.912   4.789
 9546WAT     H238905   0.253   6.901   4.905
 9546WAT    EPW38906   0.190   6.886   4.862
 9547WAT      O38907   1.476   7.350   5.686
 9547WAT     H138908   1.484   7.360   5.772
 9547WAT     H238909   1.413   7.406   5.664
 9547WAT    EPW38910   1.468   7.360   5.695
 9548WAT      O38911   1.703   7.382   5.522
 9548WAT     H138912   1.735   7.460   5.543
 9548WAT     H238913   1.666   7.355   5.597
 9548WAT    EPW38914   1.702   7.389   5.536
 9549WAT      O38915   1.683   7.208   4.641
 9549WAT     H138916   1.608   7.175   4.673
 9549WAT     H238917   1.683   7.290   4.669
 9549WAT    EPW38918   1.672   7.215   4.650
 9550WAT      O38919   1.973   7.436   5.796
 9550WAT     H138920   1.968   7.402   5.716
 9550WAT     H238921   2.047   7.483   5.794
 9550WAT    EPW38922   1.983   7.438   5.784
 9551WAT      O38923   1.574   6.841   5.387
 9551WAT     H138924   1.648   6.886   5.381
 9551WAT     H238925   1.517   6.888   5.341
 9551WAT    EPW38926   1.577   6.854   5.380
 9552WAT      O38927   0.763   7.129   5.369
 9552WAT     H138928   0.779   7.055   5.412
 9552WAT     H238929   0.758   7.104   5.286
 9552WAT    EPW38930   0.764   7.115   5.363
 9553WAT      O38931   1.702   6.639   5.154
 9553WAT     H138932   1.674   6.721   5.150
 9553WAT     H238933   1.774   6.644   5.204
 9553WAT    EPW38934   1.709   6.652   5.161
 9554WAT      O38935   0.938   6.710   5.357
 9554WAT     H138936   1.008   6.742   5.317
 9554WAT     H238937   0.962   6.629   5.380
 9554WAT    EPW38938   0.952   6.703   5.355
 9555WAT      O38939   1.844   7.264   4.040
 9555WAT     H138940   1.882   7.332   4.000
 9555WAT     H238941   1.760   7.286   4.043
 9555WAT    EPW38942   1.838   7.277   4.035
 9556WAT      O38943   0.589   7.215   4.963
 9556WAT     H138944   0.633   7.205   4.889
 9556WAT     H238945   0.643   7.184   5.024
 9556WAT    EPW38946   0.603   7.209   4.961
 9557WAT      O38947   1.390   7.126   5.523
 9557WAT     H138948   1.326   7.173   5.557
 9557WAT     H238949   1.447   7.117   5.589
 9557WAT    EPW38950   1.389   7.131   5.538
 9558WAT      O38951   1.359   7.279   5.152
 9558WAT     H138952   1.389   7.321   5.223
 9558WAT     H238953   1.363   7.195   5.176
 9558WAT    EPW38954   1.364   7.273   5.166
 9559WAT      O38955   1.614   7.224   4.378
 9559WAT     H138956   1.635   7.204   4.460
 9559WAT     H238957   1.690   7.251   4.343
 9559WAT    EPW38958   1.628   7.225   4.385
 9560WAT      O38959   0.943   6.714   4.968
 9560WAT     H138960   0.861   6.699   4.992
 9560WAT     H238961   0.939   6.717   4.881
 9560WAT    EPW38962   0.931   6.712   4.959
 9561WAT      O38963   1.716   6.832   4.525
 9561WAT     H138964   1.645   6.785   4.542
 9561WAT     H238965   1.700   6.866   4.446
 9561WAT    EPW38966   1.703   6.830   4.516
 9562WAT      O38967   0.506   7.028   4.294
 9562WAT     H138968   0.519   6.995   4.214
 9562WAT     H238969   0.425   7.003   4.314
 9562WAT    EPW38970   0.496   7.020   4.285
 9563WAT      O38971   1.974   7.343   5.539
 9563WAT     H138972   1.889   7.331   5.551
 9563WAT     H238973   1.989   7.304   5.463
 9563WAT    EPW38974   1.964   7.336   5.529
 9564WAT      O38975   1.425   7.410   5.396
 9564WAT     H138976   1.400   7.338   5.439
 9564WAT     H238977   1.507   7.422   5.423
 9564WAT    EPW38978   1.434   7.401   5.407
 9565WAT      O38979   0.504   7.229   5.336
 9565WAT     H138980   0.542   7.291   5.287
 9565WAT     H238981   0.571   7.182   5.364
 9565WAT    EPW38982   0.520   7.231   5.333
 9566WAT      O38983   0.282   7.074   5.263
 9566WAT     H138984   0.289   7.057   5.178
 9566WAT     H238985   0.356   7.115   5.283
 9566WAT    EPW38986   0.294   7.077   5.254
 9567WAT      O38987   1.837   7.338   4.307
 9567WAT     H138988   1.848   7.332   4.221
 9567WAT     H238989   1.912   7.305   4.339
 9567WAT    EPW38990   1.850   7.332   4.299
 9568WAT      O38991   0.537   6.815   5.504
 9568WAT     H138992   0.529   6.731   5.525
 9568WAT     H238993   0.506   6.819   5.423
 9568WAT    EPW38994   0.531   6.803   5.495
 9569WAT      O38995   1.748   7.353   5.243
 9569WAT     H138996   1.747   7.266   5.255
 9569WAT     H238997   1.754   7.385   5.324
 9569WAT    EPW38998   1.749   7.345   5.257
 9570WAT      O38999   0.367   7.190   3.947
 9570WAT     H139000   0.300   7.192   4.003
 9570WAT     H239001   0.376   7.105   3.929
 9570WAT    EPW39002   0.358   7.178   3.953
 9571WAT      O39003   1.336   6.833   5.621
 9571WAT     H139004   1.345   6.904   5.670
 9571WAT     H239005   1.272   6.788   5.661
 9571WAT    EPW39006   1.327   6.836   5.634
 9572WAT      O39007   1.235   6.852   4.706
 9572WAT     H139008   1.165   6.903   4.701
 9572WAT     H239009   1.239   6.814   4.628
 9572WAT    EPW39010   1.225   6.854   4.694
 9573WAT      O39011   1.595   6.903   4.986
 9573WAT     H139012   1.680   6.913   5.001
 9573WAT     H239013   1.558   6.958   5.043
 9573WAT    EPW39014   1.602   6.913   4.997
 9574WAT      O39015   1.625   7.431   4.836
 9574WAT     H139016   1.692   7.485   4.852
 9574WAT     H239017   1.591   7.462   4.762
 9574WAT    EPW39018   1.630   7.444   4.827
 9575WAT      O39019   0.740   6.823   5.169
 9575WAT     H139020   0.654   6.832   5.177
 9575WAT     H239021   0.762   6.772   5.236
 9575WAT    EPW39022   0.731   6.817   5.180
 9576WAT      O39023   1.942   6.687   5.302
 9576WAT     H139024   1.937   6.683   5.389
 9576WAT     H239025   2.011   6.637   5.283
 9576WAT    EPW39026   1.952   6.679   5.312
 9577WAT      O39027   1.151   6.898   5.007
 9577WAT     H139028   1.077   6.853   5.018
 9577WAT     H239029   1.208   6.858   5.059
 9577WAT    EPW39030   1.148   6.886   5.016
 9578WAT      O39031   0.901   7.331   5.527
 9578WAT     H139032   0.869   7.274   5.470
 9578WAT     H239033   0.865   7.407   5.502
 9578WAT    EPW39034   0.891   7.334   5.515
 9579WAT      O39035   0.981   6.656   3.990
 9579WAT     H139036   0.988   6.681   3.906
 9579WAT     H239037   0.906   6.694   4.015
 9579WAT    EPW39038   0.971   6.666   3.981
 9580WAT      O39039   0.462   6.832   5.234
 9580WAT     H139040   0.428   6.755   5.211
 9580WAT     H239041   0.393   6.884   5.240
 9580WAT    EPW39042   0.447   6.828   5.231
 9581WAT      O39043   1.367   6.717   4.932
 9581WAT     H139044   1.434   6.772   4.944
 9581WAT     H239045   1.317   6.760   4.874
 9581WAT    EPW39046   1.370   6.732   4.925
 9582WAT      O39047   1.303   7.298   4.681
 9582WAT     H139048   1.358   7.237   4.711
 9582WAT     H239049   1.260   7.324   4.752
 9582WAT    EPW39050   1.305   7.293   4.696
 9583WAT      O39051   0.328   7.163   4.630
 9583WAT     H139052   0.291   7.193   4.703
 9583WAT     H239053   0.381   7.100   4.658
 9583WAT    EPW39054   0.330   7.158   4.645
 9584WAT      O39055   1.500   7.481   4.337
 9584WAT     H139056   1.507   7.396   4.355
 9584WAT     H239057   1.418   7.490   4.309
 9584WAT    EPW39058   1.489   7.470   4.336
 9585WAT      O39059   1.890   7.075   5.726
 9585WAT     H139060   1.870   7.139   5.782
 9585WAT     H239061   1.818   7.026   5.725
 9585WAT    EPW39062   1.876   7.077   5.734
 9586WAT      O39063   1.880   7.169   5.023
 9586WAT     H139064   1.796   7.194   5.016
 9586WAT     H239065   1.874   7.085   5.046
 9586WAT    EPW39066   1.867   7.160   5.025
 9587WAT      O39067   0.806   6.868   5.543
 9587WAT     H139068   0.829   6.810   5.481
 9587WAT     H239069   0.722   6.850   5.557
 9587WAT    EPW39070   0.797   6.857   5.536
 9588WAT      O39071   1.245   6.688   2.578
 9588WAT     H139072   1.220   6.737   2.510
 9588WAT     H239073   1.331   6.681   2.568
 9588WAT    EPW39074   1.254   6.694   2.567
 9589WAT      O39075   1.226   7.380   3.045
 9589WAT     H139076   1.173   7.439   3.081
 9589WAT     H239077   1.265   7.343   3.114
 9589WAT    EPW39078   1.224   7.383   3.061
 9590WAT      O39079   1.493   7.486   2.713
 9590WAT     H139080   1.501   7.487   2.626
 9590WAT     H239081   1.434   7.423   2.728
 9590WAT    EPW39082   1.485   7.477   2.702
 9591WAT      O39083   0.892   6.797   2.494
 9591WAT     H139084   0.885   6.865   2.439
 9591WAT     H239085   0.966   6.758   2.469
 9591WAT    EPW39086   0.902   6.801   2.482
 9592WAT      O39087   0.351   7.519   2.636
 9592WAT     H139088   0.305   7.480   2.574
 9592WAT     H239089   0.421   7.468   2.646
 9592WAT    EPW39090   0.355   7.506   2.629
 9593WAT      O39091   0.802   7.080   3.171
 9593WAT     H139092   0.870   7.082   3.116
 9593WAT     H239093   0.798   6.997   3.196
 9593WAT    EPW39094   0.811   7.068   3.167
 9594WAT      O39095   0.551   7.329   2.639
 9594WAT     H139096   0.633   7.311   2.663
 9594WAT     H239097   0.504   7.268   2.678
 9594WAT    EPW39098   0.556   7.318   2.648
 9595WAT      O39099   1.174   7.285   3.655
 9595WAT     H139100   1.089   7.276   3.637
 9595WAT     H239101   1.177   7.360   3.700
 9595WAT    EPW39102   1.162   7.295   3.659
 9596WAT      O39103   0.611   6.839   2.565
 9596WAT     H139104   0.581   6.889   2.500
 9596WAT     H239105   0.698   6.847   2.560
 9596WAT    EPW39106   0.619   6.847   2.555
 9597WAT      O39107   1.630   6.581   3.566
 9597WAT     H139108   1.614   6.658   3.528
 9597WAT     H239109   1.553   6.559   3.601
 9597WAT    EPW39110   1.616   6.590   3.566
 9598WAT      O39111   0.909   6.753   2.788
 9598WAT     H139112   0.916   6.839   2.801
 9598WAT     H239113   0.905   6.745   2.701
 9598WAT    EPW39114   0.909   6.765   2.777
 9599WAT      O39115   1.376   7.046   2.018
 9599WAT     H139116   1.331   7.114   2.048
 9599WAT     H239117   1.388   6.995   2.088
 9599WAT    EPW39118   1.371   7.048   2.032
 9600WAT      O39119   0.500   6.777   2.987
 9600WAT     H139120   0.448   6.714   2.956
 9600WAT     H239121   0.559   6.733   3.034
 9600WAT    EPW39122   0.501   6.761   2.989
 9601WAT      O39123   0.830   6.990   3.917
 9601WAT     H139124   0.842   6.945   3.843
 9601WAT     H239125   0.859   7.070   3.896
 9601WAT    EPW39126   0.836   6.996   3.903
 9602WAT      O39127   1.916   7.043   2.647
 9602WAT     H139128   1.881   7.111   2.690
 9602WAT     H239129   1.852   6.983   2.649
 9602WAT    EPW39130   1.901   7.044   2.654
 9603WAT      O39131   0.404   6.950   3.815
 9603WAT     H139132   0.326   6.911   3.808
 9603WAT     H239133   0.453   6.909   3.756
 9603WAT    EPW39134   0.399   6.938   3.805
 9604WAT      O39135   1.069   6.714   3.732
 9604WAT     H139136   1.086   6.634   3.704
 9604WAT     H239137   1.054   6.759   3.658
 9604WAT    EPW39138   1.069   6.709   3.717
 9605WAT      O39139   1.128   7.207   2.609
 9605WAT     H139140   1.157   7.184   2.530
 9605WAT     H239141   1.201   7.215   2.656
 9605WAT    EPW39142   1.143   7.205   2.604
 9606WAT      O39143   1.200   7.241   2.121
 9606WAT     H139144   1.228   7.320   2.146
 9606WAT     H239145   1.123   7.257   2.085
 9606WAT    EPW39146   1.193   7.255   2.120
 9607WAT      O39147   1.883   6.875   3.184
 9607WAT     H139148   1.959   6.882   3.141
 9607WAT     H239149   1.889   6.798   3.224
 9607WAT    EPW39150   1.895   6.865   3.183
 9608WAT      O39151   1.437   6.848   2.208
 9608WAT     H139152   1.491   6.779   2.216
 9608WAT     H239153   1.443   6.887   2.286
 9608WAT    EPW39154   1.446   6.843   2.221
 9609WAT      O39155   0.232   6.964   2.465
 9609WAT     H139156   0.221   6.878   2.468
 9609WAT     H239157   0.185   6.994   2.532
 9609WAT    EPW39158   0.223   6.956   2.475
 9610WAT      O39159   1.163   7.085   2.340
 9610WAT     H139160   1.112   7.019   2.314
 9610WAT     H239161   1.168   7.136   2.269
 9610WAT    EPW39162   1.156   7.083   2.325
 9611WAT      O39163   1.163   6.779   2.329
 9611WAT     H139164   1.117   6.739   2.266
 9611WAT     H239165   1.240   6.795   2.291
 9611WAT    EPW39166   1.167   6.776   2.314
 9612WAT      O39167   1.022   7.016   2.781
 9612WAT     H139168   1.030   7.073   2.715
 9612WAT     H239169   1.034   7.065   2.852
 9612WAT    EPW39170   1.025   7.032   2.782
 9613WAT      O39171   0.483   6.598   2.616
 9613WAT     H139172   0.537   6.667   2.615
 9613WAT     H239173   0.483   6.571   2.533
 9613WAT    EPW39174   0.491   6.604   2.603
 9614WAT      O39175   1.402   7.033   3.370
 9614WAT     H139176   1.392   7.065   3.450
 9614WAT     H239177   1.342   6.969   3.366
 9614WAT    EPW39178   1.391   7.028   3.381
 9615WAT      O39179   1.527   6.627   2.653
 9615WAT     H139180   1.532   6.596   2.734
 9615WAT     H239181   1.559   6.563   2.604
 9615WAT    EPW39182   1.533   6.613   2.658
 9616WAT      O39183   1.774   7.051   3.484
 9616WAT     H139184   1.851   7.029   3.518
 9616WAT     H239185   1.726   7.073   3.554
 9616WAT    EPW39186   1.778   7.051   3.499
 9617WAT      O39187   0.528   6.979   2.781
 9617WAT     H139188   0.555   6.936   2.710
 9617WAT     H239189   0.510   6.916   2.838
 9617WAT    EPW39190   0.529   6.964   2.779
 9618WAT      O39191   0.342   7.090   3.089
 9618WAT     H139192   0.426   7.112   3.085
 9618WAT     H239193   0.303   7.147   3.036
 9618WAT    EPW39194   0.349   7.101   3.081
 9619WAT      O39195   1.586   7.403   2.161
 9619WAT     H139196   1.564   7.476   2.119
 9619WAT     H239197   1.541   7.408   2.236
 9619WAT    EPW39198   1.576   7.414   2.166
 9620WAT      O39199   2.005   6.889   2.107
 9620WAT     H139200   1.939   6.832   2.109
 9620WAT     H239201   1.986   6.940   2.039
 9620WAT    EPW39202   1.992   6.888   2.097
 9621WAT      O39203   0.927   7.258   3.901
 9621WAT     H139204   0.879   7.316   3.945
 9621WAT     H239205   0.925   7.288   3.819
 9621WAT    EPW39206   0.920   7.271   3.896
 9622WAT      O39207   2.037   7.326   3.362
 9622WAT     H139208   2.059   7.246   3.335
 9622WAT     H239209   1.952   7.332   3.343
 9622WAT    EPW39210   2.028   7.316   3.355
 9623WAT      O39211   1.805   6.844   2.335
 9623WAT     H139212   1.880   6.804   2.355
 9623WAT     H239213   1.831   6.916   2.292
 9623WAT    EPW39214   1.820   6.849   2.331
 9624WAT      O39215   1.451   7.073   2.842
 9624WAT     H139216   1.485   7.088   2.921
 9624WAT     H239217   1.405   6.999   2.853
 9624WAT    EPW39218   1.449   7.065   2.855
 9625WAT      O39219   0.898   6.995   2.288
 9625WAT     H139220   0.898   6.984   2.201
 9625WAT     H239221   0.880   7.080   2.297
 9625WAT    EPW39222   0.895   7.006   2.276
 9626WAT      O39223   0.485   7.339   3.737
 9626WAT     H139224   0.431   7.288   3.784
 9626WAT     H239225   0.487   7.300   3.659
 9626WAT    EPW39226   0.477   7.325   3.732
 9627WAT      O39227   0.533   7.278   2.251
 9627WAT     H139228   0.521   7.234   2.325
 9627WAT     H239229   0.475   7.244   2.196
 9627WAT    EPW39230   0.523   7.267   2.254
 9628WAT      O39231   0.550   7.461   2.911
 9628WAT     H139232   0.472   7.456   2.873
 9628WAT     H239233   0.557   7.386   2.955
 9628WAT    EPW39234   0.540   7.450   2.912
 9629WAT      O39235   0.593   7.435   3.258
 9629WAT     H139236   0.596   7.368   3.203
 9629WAT     H239237   0.529   7.485   3.227
 9629WAT    EPW39238   0.584   7.432   3.245
 9630WAT      O39239   1.583   7.206   3.097
 9630WAT     H139240   1.516   7.239   3.144
 9630WAT     H239241   1.601   7.270   3.040
 9630WAT    EPW39242   1.576   7.221   3.096
 9631WAT      O39243   1.247   6.797   3.440
 9631WAT     H139244   1.262   6.715   3.416
 9631WAT     H239245   1.285   6.803   3.519
 9631WAT    EPW39246   1.255   6.786   3.448
 9632WAT      O39247   1.402   7.003   2.448
 9632WAT     H139248   1.451   7.075   2.441
 9632WAT     H239249   1.323   7.029   2.422
 9632WAT    EPW39250   1.398   7.018   2.443
 9633WAT      O39251   1.060   7.150   3.021
 9633WAT     H139252   1.108   7.220   3.042
 9633WAT     H239253   1.097   7.086   3.066
 9633WAT    EPW39254   1.073   7.151   3.031
 9634WAT      O39255   1.279   7.467   2.248
 9634WAT     H139256   1.278   7.539   2.199
 9634WAT     H239257   1.215   7.481   2.306
 9634WAT    EPW39258   1.270   7.480   2.250
 9635WAT      O39259   0.738   6.701   2.214
 9635WAT     H139260   0.748   6.691   2.301
 9635WAT     H239261   0.668   6.752   2.208
 9635WAT    EPW39262   0.729   6.707   2.226
 9636WAT      O39263   1.811   6.676   3.754
 9636WAT     H139264   1.748   6.636   3.710
 9636WAT     H239265   1.814   6.632   3.830
 9636WAT    EPW39266   1.802   6.663   3.759
 9637WAT      O39267   1.120   7.466   2.481
 9637WAT     H139268   1.125   7.531   2.539
 9637WAT     H239269   1.101   7.397   2.530
 9637WAT    EPW39270   1.118   7.466   2.497
 9638WAT      O39271   0.569   6.918   2.132
 9638WAT     H139272   0.518   6.923   2.062
 9638WAT     H239273   0.648   6.942   2.103
 9638WAT    EPW39274   0.573   6.922   2.118
 9639WAT      O39275   0.750   7.157   2.829
 9639WAT     H139276   0.834   7.138   2.839
 9639WAT     H239277   0.713   7.080   2.816
 9639WAT    EPW39278   0.757   7.143   2.829
 9640WAT      O39279   0.232   7.291   2.495
 9640WAT     H139280   0.281   7.262   2.561
 9640WAT     H239281   0.245   7.232   2.432
 9640WAT    EPW39282   0.241   7.278   2.495
 9641WAT      O39283   0.684   7.435   2.044
 9641WAT     H139284   0.623   7.394   2.091
 9641WAT     H239285   0.646   7.446   1.966
 9641WAT    EPW39286   0.670   7.430   2.039
 9642WAT      O39287   0.830   7.281   2.315
 9642WAT     H139288   0.857   7.363   2.321
 9642WAT     H239289   0.743   7.288   2.305
 9642WAT    EPW39290   0.821   7.294   2.314
 9643WAT      O39291   1.627   6.993   3.778
 9643WAT     H139292   1.575   7.039   3.830
 9643WAT     H239293   1.591   6.913   3.777
 9643WAT    EPW39294   1.614   6.988   3.785
 9644WAT      O39295   0.178   6.878   2.968
 9644WAT     H139296   0.182   6.912   2.888
 9644WAT     H239297   0.253   6.901   3.005
 9644WAT    EPW39298   0.190   6.886   2.962
 9645WAT      O39299   1.476   7.350   3.785
 9645WAT     H139300   1.484   7.360   3.872
 9645WAT     H239301   1.413   7.406   3.763
 9645WAT    EPW39302   1.468   7.360   3.795
 9646WAT      O39303   1.703   7.382   3.622
 9646WAT     H139304   1.735   7.460   3.642
 9646WAT     H239305   1.666   7.355   3.696
 9646WAT    EPW39306   1.702   7.389   3.636
 9647WAT      O39307   1.683   7.208   2.741
 9647WAT     H139308   1.608   7.175   2.773
 9647WAT     H239309   1.683   7.290   2.769
 9647WAT    EPW39310   1.672   7.215   2.750
 9648WAT      O39311   1.973   7.436   3.895
 9648WAT     H139312   1.968   7.402   3.815
 9648WAT     H239313   2.047   7.483   3.893
 9648WAT    EPW39314   1.983   7.438   3.883
 9649WAT      O39315   1.574   6.841   3.487
 9649WAT     H139316   1.648   6.886   3.481
 9649WAT     H239317   1.517   6.888   3.440
 9649WAT    EPW39318   1.577   6.854   3.479
 9650WAT      O39319   0.763   7.129   3.469
 9650WAT     H139320   0.779   7.055   3.511
 9650WAT     H239321   0.758   7.104   3.385
 9650WAT    EPW39322   0.764   7.115   3.463
 9651WAT      O39323   1.702   6.639   3.254
 9651WAT     H139324   1.674   6.721   3.249
 9651WAT     H239325   1.774   6.644   3.303
 9651WAT    EPW39326   1.709   6.652   3.261
 9652WAT      O39327   0.938   6.710   3.457
 9652WAT     H139328   1.008   6.742   3.417
 9652WAT     H239329   0.962   6.629   3.479
 9652WAT    EPW39330   0.952   6.703   3.454
 9653WAT      O39331   1.844   7.264   2.140
 9653WAT     H139332   1.882   7.332   2.100
 9653WAT     H239333   1.760   7.286   2.143
 9653WAT    EPW39334   1.838   7.277   2.134
 9654WAT      O39335   0.589   7.215   3.063
 9654WAT     H139336   0.633   7.205   2.988
 9654WAT     H239337   0.643   7.184   3.123
 9654WAT    EPW39338   0.603   7.209   3.061
 9655WAT      O39339   1.390   7.126   3.622
 9655WAT     H139340   1.326   7.173   3.657
 9655WAT     H239341   1.447   7.117   3.688
 9655WAT    EPW39342   1.389   7.131   3.637
 9656WAT      O39343   1.359   7.279   3.252
 9656WAT     H139344   1.389   7.321   3.322
 9656WAT     H239345   1.363   7.195   3.275
 9656WAT    EPW39346   1.364   7.273   3.266
 9657WAT      O39347   1.614   7.224   2.477
 9657WAT     H139348   1.635   7.204   2.559
 9657WAT     H239349   1.690   7.251   2.443
 9657WAT    EPW39350   1.628   7.225   2.484
 9658WAT      O39351   0.943   6.714   3.068
 9658WAT     H139352   0.861   6.699   3.091
 9658WAT     H239353   0.939   6.717   2.980
 9658WAT    EPW39354   0.931   6.712   3.058
 9659WAT      O39355   1.716   6.832   2.624
 9659WAT     H139356   1.645   6.785   2.642
 9659WAT     H239357   1.700   6.866   2.546
 9659WAT    EPW39358   1.703   6.830   2.615
 9660WAT      O39359   0.506   7.028   2.394
 9660WAT     H139360   0.519   6.995   2.314
 9660WAT     H239361   0.425   7.003   2.413
 9660WAT    EPW39362   0.496   7.020   2.385
 9661WAT      O39363   1.974   7.343   3.638
 9661WAT     H139364   1.889   7.331   3.651
 9661WAT     H239365   1.989   7.304   3.562
 9661WAT    EPW39366   1.964   7.336   3.629
 9662WAT      O39367   1.425   7.410   3.496
 9662WAT     H139368   1.400   7.338   3.538
 9662WAT     H239369   1.507   7.422   3.523
 9662WAT    EPW39370   1.434   7.401   3.506
 9663WAT      O39371   0.504   7.229   3.435
 9663WAT     H139372   0.542   7.291   3.386
 9663WAT     H239373   0.571   7.182   3.464
 9663WAT    EPW39374   0.520   7.231   3.432
 9664WAT      O39375   0.282   7.074   3.363
 9664WAT     H139376   0.289   7.057   3.277
 9664WAT     H239377   0.356   7.115   3.382
 9664WAT    EPW39378   0.294   7.077   3.353
 9665WAT      O39379   1.837   7.338   2.407
 9665WAT     H139380   1.848   7.332   2.320
 9665WAT     H239381   1.912   7.305   2.438
 9665WAT    EPW39382   1.850   7.332   2.399
 9666WAT      O39383   0.537   6.815   3.604
 9666WAT     H139384   0.529   6.731   3.624
 9666WAT     H239385   0.506   6.819   3.522
 9666WAT    EPW39386   0.531   6.803   3.595
 9667WAT      O39387   1.748   7.353   3.342
 9667WAT     H139388   1.747   7.266   3.355
 9667WAT     H239389   1.754   7.385   3.423
 9667WAT    EPW39390   1.749   7.345   3.356
 9668WAT      O39391   0.367   7.190   2.047
 9668WAT     H139392   0.300   7.192   2.102
 9668WAT     H239393   0.376   7.105   2.028
 9668WAT    EPW39394   0.358   7.178   2.052
 9669WAT      O39395   1.336   6.833   3.720
 9669WAT     H139396   1.345   6.904   3.770
 9669WAT     H239397   1.272   6.788   3.760
 9669WAT    EPW39398   1.327   6.836   3.734
 9670WAT      O39399   1.235   6.852   2.806
 9670WAT     H139400   1.165   6.903   2.800
 9670WAT     H239401   1.239   6.814   2.727
 9670WAT    EPW39402   1.225   6.854   2.793
 9671WAT      O39403   1.595   6.903   3.086
 9671WAT     H139404   1.680   6.913   3.100
 9671WAT     H239405   1.558   6.958   3.142
 9671WAT    EPW39406   1.602   6.913   3.096
 9672WAT      O39407   1.625   7.431   2.935
 9672WAT     H139408   1.692   7.485   2.951
 9672WAT     H239409   1.591   7.462   2.861
 9672WAT    EPW39410   1.630   7.444   2.926
 9673WAT      O39411   0.740   6.823   3.269
 9673WAT     H139412   0.654   6.832   3.277
 9673WAT     H239413   0.762   6.772   3.335
 9673WAT    EPW39414   0.731   6.817   3.280
 9674WAT      O39415   1.942   6.687   3.401
 9674WAT     H139416   1.937   6.683   3.488
 9674WAT     H239417   2.011   6.637   3.382
 9674WAT    EPW39418   1.952   6.679   3.411
 9675WAT      O39419   1.151   6.898   3.106
 9675WAT     H139420   1.077   6.853   3.117
 9675WAT     H239421   1.208   6.858   3.158
 9675WAT    EPW39422   1.148   6.886   3.115
 9676WAT      O39423   0.901   7.331   3.626
 9676WAT     H139424   0.869   7.274   3.569
 9676WAT     H239425   0.865   7.407   3.602
 9676WAT    EPW39426   0.891   7.334   3.614
 9677WAT      O39427   0.981   6.656   2.089
 9677WAT     H139428   0.988   6.681   2.006
 9677WAT     H239429   0.906   6.694   2.115
 9677WAT    EPW39430   0.971   6.666   2.081
 9678WAT      O39431   0.462   6.832   3.333
 9678WAT     H139432   0.428   6.755   3.310
 9678WAT     H239433   0.393   6.884   3.340
 9678WAT    EPW39434   0.447   6.828   3.331
 9679WAT      O39435   1.367   6.717   3.031
 9679WAT     H139436   1.434   6.772   3.044
 9679WAT     H239437   1.317   6.760   2.974
 9679WAT    EPW39438   1.370   6.732   3.024
 9680WAT      O39439   1.303   7.298   2.780
 9680WAT     H139440   1.358   7.237   2.810
 9680WAT     H239441   1.260   7.324   2.852
 9680WAT    EPW39442   1.305   7.293   2.795
 9681WAT      O39443   0.328   7.163   2.729
 9681WAT     H139444   0.291   7.193   2.802
 9681WAT     H239445   0.381   7.100   2.757
 9681WAT    EPW39446   0.330   7.158   2.744
 9682WAT      O39447   1.500   7.481   2.437
 9682WAT     H139448   1.507   7.396   2.455
 9682WAT     H239449   1.418   7.490   2.409
 9682WAT    EPW39450   1.489   7.470   2.435
 9683WAT      O39451   1.890   7.075   3.825
 9683WAT     H139452   1.870   7.139   3.881
 9683WAT     H239453   1.818   7.026   3.825
 9683WAT    EPW39454   1.876   7.077   3.834
 9684WAT      O39455   1.880   7.169   3.123
 9684WAT     H139456   1.796   7.194   3.115
 9684WAT     H239457   1.874   7.085   3.145
 9684WAT    EPW39458   1.867   7.160   3.125
 9685WAT      O39459   0.806   6.868   3.642
 9685WAT     H139460   0.829   6.810   3.581
 9685WAT     H239461   0.722   6.850   3.656
 9685WAT    EPW39462   0.797   6.857   3.635
 9686WAT      O39463   1.245   6.688   0.677
 9686WAT     H139464   1.220   6.737   0.609
 9686WAT     H239465   1.331   6.681   0.667
 9686WAT    EPW39466   1.254   6.694   0.666
 9687WAT      O39467   1.226   7.380   1.145
 9687WAT     H139468   1.173   7.439   1.181
 9687WAT     H239469   1.265   7.343   1.213
 9687WAT    EPW39470   1.224   7.383   1.160
 9688WAT      O39471   1.493   7.486   0.812
 9688WAT     H139472   1.501   7.487   0.725
 9688WAT     H239473   1.434   7.423   0.827
 9688WAT    EPW39474   1.485   7.477   0.802
 9689WAT      O39475   0.892   6.797   0.593
 9689WAT     H139476   0.885   6.865   0.538
 9689WAT     H239477   0.966   6.758   0.568
 9689WAT    EPW39478   0.902   6.801   0.581
 9690WAT      O39479   0.351   7.519   0.736
 9690WAT     H139480   0.305   7.480   0.673
 9690WAT     H239481   0.421   7.468   0.745
 9690WAT    EPW39482   0.355   7.506   0.728
 9691WAT      O39483   0.802   7.080   1.271
 9691WAT     H139484   0.870   7.082   1.216
 9691WAT     H239485   0.798   6.997   1.295
 9691WAT    EPW39486   0.811   7.068   1.266
 9692WAT      O39487   0.551   7.329   0.738
 9692WAT     H139488   0.633   7.311   0.762
 9692WAT     H239489   0.504   7.268   0.778
 9692WAT    EPW39490   0.556   7.318   0.748
 9693WAT      O39491   1.174   7.285   1.754
 9693WAT     H139492   1.089   7.276   1.736
 9693WAT     H239493   1.177   7.360   1.800
 9693WAT    EPW39494   1.162   7.295   1.758
 9694WAT      O39495   0.611   6.839   0.665
 9694WAT     H139496   0.581   6.889   0.600
 9694WAT     H239497   0.698   6.847   0.659
 9694WAT    EPW39498   0.619   6.847   0.654
 9695WAT      O39499   1.630   6.581   1.666
 9695WAT     H139500   1.614   6.658   1.627
 9695WAT     H239501   1.553   6.559   1.700
 9695WAT    EPW39502   1.616   6.590   1.665
 9696WAT      O39503   0.909   6.753   0.887
 9696WAT     H139504   0.916   6.839   0.900
 9696WAT     H239505   0.905   6.745   0.800
 9696WAT    EPW39506   0.909   6.765   0.876
 9697WAT      O39507   0.500   6.777   1.086
 9697WAT     H139508   0.448   6.714   1.055
 9697WAT     H239509   0.559   6.733   1.133
 9697WAT    EPW39510   0.501   6.761   1.089
 9698WAT      O39511   0.830   6.990   2.016
 9698WAT     H139512   0.842   6.945   1.942
 9698WAT     H239513   0.859   7.070   1.996
 9698WAT    EPW39514   0.836   6.996   2.002
 9699WAT      O39515   1.916   7.043   0.746
 9699WAT     H139516   1.881   7.111   0.789
 9699WAT     H239517   1.852   6.983   0.748
 9699WAT    EPW39518   1.901   7.044   0.753
 9700WAT      O39519   0.404   6.950   1.914
 9700WAT     H139520   0.326   6.911   1.907
 9700WAT     H239521   0.453   6.909   1.855
 9700WAT    EPW39522   0.399   6.938   1.905
 9701WAT      O39523   1.069   6.714   1.831
 9701WAT     H139524   1.086   6.634   1.804
 9701WAT     H239525   1.054   6.759   1.757
 9701WAT    EPW39526   1.069   6.709   1.816
 9702WAT      O39527   1.128   7.207   0.709
 9702WAT     H139528   1.157   7.184   0.630
 9702WAT     H239529   1.201   7.215   0.755
 9702WAT    EPW39530   1.143   7.205   0.704
 9703WAT      O39531   1.200   7.241   0.221
 9703WAT     H139532   1.228   7.320   0.246
 9703WAT     H239533   1.123   7.257   0.184
 9703WAT    EPW39534   1.193   7.255   0.219
 9704WAT      O39535   1.883   6.875   1.283
 9704WAT     H139536   1.959   6.882   1.241
 9704WAT     H239537   1.889   6.798   1.323
 9704WAT    EPW39538   1.895   6.865   1.283
 9705WAT      O39539   1.437   6.848   0.308
 9705WAT     H139540   1.491   6.779   0.315
 9705WAT     H239541   1.443   6.887   0.385
 9705WAT    EPW39542   1.446   6.843   0.320
 9706WAT      O39543   0.232   6.964   0.565
 9706WAT     H139544   0.221   6.878   0.568
 9706WAT     H239545   0.185   6.994   0.632
 9706WAT    EPW39546   0.223   6.956   0.575
 9707WAT      O39547   1.163   7.085   0.439
 9707WAT     H139548   1.112   7.019   0.414
 9707WAT     H239549   1.168   7.136   0.368
 9707WAT    EPW39550   1.156   7.083   0.425
 9708WAT      O39551   1.163   6.779   0.428
 9708WAT     H139552   1.117   6.739   0.366
 9708WAT     H239553   1.240   6.795   0.391
 9708WAT    EPW39554   1.167   6.776   0.413
 9709WAT      O39555   1.022   7.016   0.880
 9709WAT     H139556   1.030   7.073   0.815
 9709WAT     H239557   1.034   7.065   0.951
 9709WAT    EPW39558   1.025   7.032   0.881
 9710WAT      O39559   0.483   6.598   0.715
 9710WAT     H139560   0.537   6.667   0.714
 9710WAT     H239561   0.483   6.571   0.632
 9710WAT    EPW39562   0.491   6.604   0.703
 9711WAT      O39563   1.402   7.033   1.469
 9711WAT     H139564   1.392   7.065   1.550
 9711WAT     H239565   1.342   6.969   1.465
 9711WAT    EPW39566   1.391   7.028   1.481
 9712WAT      O39567   1.527   6.627   0.753
 9712WAT     H139568   1.532   6.596   0.834
 9712WAT     H239569   1.559   6.563   0.703
 9712WAT    EPW39570   1.533   6.613   0.757
 9713WAT      O39571   1.774   7.051   1.584
 9713WAT     H139572   1.851   7.029   1.617
 9713WAT     H239573   1.726   7.073   1.654
 9713WAT    EPW39574   1.778   7.051   1.599
 9714WAT      O39575   0.528   6.979   0.881
 9714WAT     H139576   0.555   6.936   0.810
 9714WAT     H239577   0.510   6.916   0.938
 9714WAT    EPW39578   0.529   6.964   0.879
 9715WAT      O39579   0.342   7.090   1.189
 9715WAT     H139580   0.426   7.112   1.184
 9715WAT     H239581   0.303   7.147   1.136
 9715WAT    EPW39582   0.349   7.101   1.180
 9716WAT      O39583   1.586   7.403   0.261
 9716WAT     H139584   1.564   7.476   0.219
 9716WAT     H239585   1.541   7.408   0.336
 9716WAT    EPW39586   1.576   7.414   0.266
 9717WAT      O39587   2.005   6.889   0.206
 9717WAT     H139588   1.939   6.832   0.208
 9717WAT     H239589   1.986   6.940   0.138
 9717WAT    EPW39590   1.992   6.888   0.196
 9718WAT      O39591   0.927   7.258   2.001
 9718WAT     H139592   0.879   7.316   2.045
 9718WAT     H239593   0.925   7.288   1.918
 9718WAT    EPW39594   0.920   7.271   1.995
 9719WAT      O39595   2.037   7.326   1.462
 9719WAT     H139596   2.059   7.246   1.434
 9719WAT     H239597   1.952   7.332   1.443
 9719WAT    EPW39598   2.028   7.316   1.455
 9720WAT      O39599   1.805   6.844   0.434
 9720WAT     H139600   1.880   6.804   0.454
 9720WAT     H239601   1.831   6.916   0.392
 9720WAT    EPW39602   1.820   6.849   0.431
 9721WAT      O39603   1.451   7.073   0.941
 9721WAT     H139604   1.485   7.088   1.020
 9721WAT     H239605   1.405   6.999   0.953
 9721WAT    EPW39606   1.449   7.065   0.955
 9722WAT      O39607   0.898   6.995   0.387
 9722WAT     H139608   0.898   6.984   0.301
 9722WAT     H239609   0.880   7.080   0.396
 9722WAT    EPW39610   0.895   7.006   0.376
 9723WAT      O39611   0.485   7.339   1.836
 9723WAT     H139612   0.431   7.288   1.883
 9723WAT     H239613   0.487   7.300   1.758
 9723WAT    EPW39614   0.477   7.325   1.832
 9724WAT      O39615   0.533   7.278   0.350
 9724WAT     H139616   0.521   7.234   0.424
 9724WAT     H239617   0.475   7.244   0.295
 9724WAT    EPW39618   0.523   7.267   0.353
 9725WAT      O39619   0.550   7.461   1.010
 9725WAT     H139620   0.472   7.456   0.972
 9725WAT     H239621   0.557   7.386   1.054
 9725WAT    EPW39622   0.540   7.450   1.011
 9726WAT      O39623   0.593   7.435   1.357
 9726WAT     H139624   0.596   7.368   1.302
 9726WAT     H239625   0.529   7.485   1.326
 9726WAT    EPW39626   0.584   7.432   1.344
 9727WAT      O39627   1.583   7.206   1.197
 9727WAT     H139628   1.516   7.239   1.243
 9727WAT     H239629   1.601   7.270   1.140
 9727WAT    EPW39630   1.576   7.221   1.195
 9728WAT      O39631   1.247   6.797   1.540
 9728WAT     H139632   1.262   6.715   1.515
 9728WAT     H239633   1.285   6.803   1.618
 9728WAT    EPW39634   1.255   6.786   1.548
 9729WAT      O39635   1.402   7.003   0.548
 9729WAT     H139636   1.451   7.075   0.540
 9729WAT     H239637   1.323   7.029   0.522
 9729WAT    EPW39638   1.398   7.018   0.543
 9730WAT      O39639   1.060   7.150   1.120
 9730WAT     H139640   1.108   7.220   1.141
 9730WAT     H239641   1.097   7.086   1.165
 9730WAT    EPW39642   1.073   7.151   1.130
 9731WAT      O39643   1.279   7.467   0.348
 9731WAT     H139644   1.278   7.539   0.299
 9731WAT     H239645   1.215   7.481   0.405
 9731WAT    EPW39646   1.270   7.480   0.349
 9732WAT      O39647   0.738   6.701   0.314
 9732WAT     H139648   0.748   6.691   0.400
 9732WAT     H239649   0.668   6.752   0.307
 9732WAT    EPW39650   0.729   6.707   0.326
 9733WAT      O39651   1.811   6.676   1.854
 9733WAT     H139652   1.748   6.636   1.809
 9733WAT     H239653   1.814   6.632   1.929
 9733WAT    EPW39654   1.802   6.663   1.858
 9734WAT      O39655   1.120   7.466   0.581
 9734WAT     H139656   1.125   7.531   0.639
 9734WAT     H239657   1.101   7.397   0.630
 9734WAT    EPW39658   1.118   7.466   0.596
 9735WAT      O39659   0.569   6.918   0.232
 9735WAT     H139660   0.518   6.923   0.161
 9735WAT     H239661   0.648   6.942   0.202
 9735WAT    EPW39662   0.573   6.922   0.217
 9736WAT      O39663   0.750   7.157   0.929
 9736WAT     H139664   0.834   7.138   0.939
 9736WAT     H239665   0.713   7.080   0.915
 9736WAT    EPW39666   0.757   7.143   0.928
 9737WAT      O39667   0.232   7.291   0.594
 9737WAT     H139668   0.281   7.262   0.660
 9737WAT     H239669   0.245   7.232   0.532
 9737WAT    EPW39670   0.241   7.278   0.595
 9738WAT      O39671   0.830   7.281   0.414
 9738WAT     H139672   0.857   7.363   0.421
 9738WAT     H239673   0.743   7.288   0.404
 9738WAT    EPW39674   0.821   7.294   0.413
 9739WAT      O39675   1.627   6.993   1.877
 9739WAT     H139676   1.575   7.039   1.930
 9739WAT     H239677   1.591   6.913   1.877
 9739WAT    EPW39678   1.614   6.988   1.885
 9740WAT      O39679   0.178   6.878   1.068
 9740WAT     H139680   0.182   6.912   0.987
 9740WAT     H239681   0.253   6.901   1.104
 9740WAT    EPW39682   0.190   6.886   1.061
 9741WAT      O39683   1.476   7.350   1.885
 9741WAT     H139684   1.484   7.360   1.971
 9741WAT     H239685   1.413   7.406   1.863
 9741WAT    EPW39686   1.468   7.360   1.894
 9742WAT      O39687   1.703   7.382   1.721
 9742WAT     H139688   1.735   7.460   1.742
 9742WAT     H239689   1.666   7.355   1.796
 9742WAT    EPW39690   1.702   7.389   1.735
 9743WAT      O39691   1.683   7.208   0.840
 9743WAT     H139692   1.608   7.175   0.872
 9743WAT     H239693   1.683   7.290   0.868
 9743WAT    EPW39694   1.672   7.215   0.849
 9744WAT      O39695   1.973   7.436   1.995
 9744WAT     H139696   1.968   7.402   1.915
 9744WAT     H239697   2.047   7.483   1.993
 9744WAT    EPW39698   1.983   7.438   1.983
 9745WAT      O39699   1.574   6.841   1.586
 9745WAT     H139700   1.648   6.886   1.580
 9745WAT     H239701   1.517   6.888   1.539
 9745WAT    EPW39702   1.577   6.854   1.578
 9746WAT      O39703   0.763   7.129   1.568
 9746WAT     H139704   0.779   7.055   1.611
 9746WAT     H239705   0.758   7.104   1.485
 9746WAT    EPW39706   0.764   7.115   1.562
 9747WAT      O39707   1.702   6.639   1.353
 9747WAT     H139708   1.674   6.721   1.349
 9747WAT     H239709   1.774   6.644   1.403
 9747WAT    EPW39710   1.709   6.652   1.360
 9748WAT      O39711   0.938   6.710   1.556
 9748WAT     H139712   1.008   6.742   1.516
 9748WAT     H239713   0.962   6.629   1.579
 9748WAT    EPW39714   0.952   6.703   1.554
 9749WAT      O39715   1.844   7.264   0.239
 9749WAT     H139716   1.882   7.332   0.199
 9749WAT     H239717   1.760   7.286   0.242
 9749WAT    EPW39718   1.838   7.277   0.233
 9750WAT      O39719   0.589   7.215   1.162
 9750WAT     H139720   0.633   7.205   1.088
 9750WAT     H239721   0.643   7.184   1.223
 9750WAT    EPW39722   0.603   7.209   1.160
 9751WAT      O39723   1.390   7.126   1.721
 9751WAT     H139724   1.326   7.173   1.756
 9751WAT     H239725   1.447   7.117   1.787
 9751WAT    EPW39726   1.389   7.131   1.736
 9752WAT      O39727   1.359   7.279   1.351
 9752WAT     H139728   1.389   7.321   1.422
 9752WAT     H239729   1.363   7.195   1.374
 9752WAT    EPW39730   1.364   7.273   1.365
 9753WAT      O39731   1.614   7.224   0.576
 9753WAT     H139732   1.635   7.204   0.659
 9753WAT     H239733   1.690   7.251   0.542
 9753WAT    EPW39734   1.628   7.225   0.584
 9754WAT      O39735   0.943   6.714   1.167
 9754WAT     H139736   0.861   6.699   1.191
 9754WAT     H239737   0.939   6.717   1.080
 9754WAT    EPW39738   0.931   6.712   1.158
 9755WAT      O39739   1.716   6.832   0.724
 9755WAT     H139740   1.645   6.785   0.741
 9755WAT     H239741   1.700   6.866   0.645
 9755WAT    EPW39742   1.703   6.830   0.715
 9756WAT      O39743   0.506   7.028   0.493
 9756WAT     H139744   0.519   6.995   0.413
 9756WAT     H239745   0.425   7.003   0.513
 9756WAT    EPW39746   0.496   7.020   0.484
 9757WAT      O39747   1.974   7.343   1.738
 9757WAT     H139748   1.889   7.331   1.750
 9757WAT     H239749   1.989   7.304   1.661
 9757WAT    EPW39750   1.964   7.336   1.728
 9758WAT      O39751   1.425   7.410   1.595
 9758WAT     H139752   1.400   7.338   1.637
 9758WAT     H239753   1.507   7.422   1.622
 9758WAT    EPW39754   1.434   7.401   1.605
 9759WAT      O39755   0.504   7.229   1.535
 9759WAT     H139756   0.542   7.291   1.486
 9759WAT     H239757   0.571   7.182   1.563
 9759WAT    EPW39758   0.520   7.231   1.532
 9760WAT      O39759   0.282   7.074   1.462
 9760WAT     H139760   0.289   7.057   1.377
 9760WAT     H239761   0.356   7.115   1.482
 9760WAT    EPW39762   0.294   7.077   1.452
 9761WAT      O39763   1.837   7.338   0.506
 9761WAT     H139764   1.848   7.332   0.420
 9761WAT     H239765   1.912   7.305   0.538
 9761WAT    EPW39766   1.850   7.332   0.498
 9762WAT      O39767   0.537   6.815   1.703
 9762WAT     H139768   0.529   6.731   1.724
 9762WAT     H239769   0.506   6.819   1.622
 9762WAT    EPW39770   0.531   6.803   1.694
 9763WAT      O39771   1.748   7.353   1.442
 9763WAT     H139772   1.747   7.266   1.454
 9763WAT     H239773   1.754   7.385   1.522
 9763WAT    EPW39774   1.749   7.345   1.455
 9764WAT      O39775   1.336   6.833   1.820
 9764WAT     H139776   1.345   6.904   1.869
 9764WAT     H239777   1.272   6.788   1.860
 9764WAT    EPW39778   1.327   6.836   1.833
 9765WAT      O39779   1.235   6.852   0.905
 9765WAT     H139780   1.165   6.903   0.900
 9765WAT     H239781   1.239   6.814   0.827
 9765WAT    EPW39782   1.225   6.854   0.893
 9766WAT      O39783   1.595   6.903   1.185
 9766WAT     H139784   1.680   6.913   1.200
 9766WAT     H239785   1.558   6.958   1.242
 9766WAT    EPW39786   1.602   6.913   1.196
 9767WAT      O39787   1.625   7.431   1.034
 9767WAT     H139788   1.692   7.485   1.050
 9767WAT     H239789   1.591   7.462   0.960
 9767WAT    EPW39790   1.630   7.444   1.026
 9768WAT      O39791   0.740   6.823   1.368
 9768WAT     H139792   0.654   6.832   1.376
 9768WAT     H239793   0.762   6.772   1.435
 9768WAT    EPW39794   0.731   6.817   1.379
 9769WAT      O39795   1.942   6.687   1.501
 9769WAT     H139796   1.937   6.683   1.588
 9769WAT     H239797   2.011   6.637   1.482
 9769WAT    EPW39798   1.952   6.679   1.511
 9770WAT      O39799   1.151   6.898   1.205
 9770WAT     H139800   1.077   6.853   1.217
 9770WAT     H239801   1.208   6.858   1.258
 9770WAT    EPW39802   1.148   6.886   1.215
 9771WAT      O39803   0.901   7.331   1.726
 9771WAT     H139804   0.869   7.274   1.669
 9771WAT     H239805   0.865   7.407   1.701
 9771WAT    EPW39806   0.891   7.334   1.714
 9772WAT      O39807   0.462   6.832   1.433
 9772WAT     H139808   0.428   6.755   1.409
 9772WAT     H239809   0.393   6.884   1.439
 9772WAT    EPW39810   0.447   6.828   1.430
 9773WAT      O39811   1.367   6.717   1.130
 9773WAT     H139812   1.434   6.772   1.143
 9773WAT     H239813   1.317   6.760   1.073
 9773WAT    EPW39814   1.370   6.732   1.124
 9774WAT      O39815   1.303   7.298   0.880
 9774WAT     H139816   1.358   7.237   0.910
 9774WAT     H239817   1.260   7.324   0.951
 9774WAT    EPW39818   1.305   7.293   0.895
 9775WAT      O39819   0.328   7.163   0.828
 9775WAT     H139820   0.291   7.193   0.901
 9775WAT     H239821   0.381   7.100   0.857
 9775WAT    EPW39822   0.330   7.158   0.843
 9776WAT      O39823   1.500   7.481   0.536
 9776WAT     H139824   1.507   7.396   0.554
 9776WAT     H239825   1.418   7.490   0.508
 9776WAT    EPW39826   1.489   7.470   0.535
 9777WAT      O39827   1.890   7.075   1.925
 9777WAT     H139828   1.870   7.139   1.980
 9777WAT     H239829   1.818   7.026   1.924
 9777WAT    EPW39830   1.876   7.077   1.933
 9778WAT      O39831   1.880   7.169   1.222
 9778WAT     H139832   1.796   7.194   1.215
 9778WAT     H239833   1.874   7.085   1.245
 9778WAT    EPW39834   1.867   7.160   1.224
 9779WAT      O39835   0.806   6.868   1.741
 9779WAT     H139836   0.829   6.810   1.680
 9779WAT     H239837   0.722   6.850   1.755
 9779WAT    EPW39838   0.797   6.857   1.734
 9780WAT      O39839   1.245   4.840   6.379
 9780WAT     H139840   1.220   4.889   6.311
 9780WAT     H239841   1.331   4.833   6.369
 9780WAT    EPW39842   1.254   4.846   6.368
 9781WAT      O39843   1.226   5.532   6.846
 9781WAT     H139844   1.173   5.592   6.883
 9781WAT     H239845   1.265   5.495   6.915
 9781WAT    EPW39846   1.224   5.535   6.862
 9782WAT      O39847   1.840   6.276   6.143
 9782WAT     H139848   1.910   6.224   6.143
 9782WAT     H239849   1.781   6.232   6.097
 9782WAT    EPW39850   1.842   6.262   6.136
 9783WAT      O39851   0.501   5.851   5.910
 9783WAT     H139852   0.462   5.814   5.841
 9783WAT     H239853   0.493   5.792   5.973
 9783WAT    EPW39854   0.494   5.837   5.909
 9784WAT      O39855   1.493   5.639   6.514
 9784WAT     H139856   1.501   5.639   6.427
 9784WAT     H239857   1.434   5.575   6.529
 9784WAT    EPW39858   1.485   5.629   6.503
 9785WAT      O39859   0.464   6.016   6.300
 9785WAT     H139860   0.524   5.999   6.360
 9785WAT     H239861   0.388   6.002   6.342
 9785WAT    EPW39862   0.461   6.011   6.315
 9786WAT      O39863   0.892   4.949   6.295
 9786WAT     H139864   0.885   5.017   6.240
 9786WAT     H239865   0.966   4.910   6.270
 9786WAT    EPW39866   0.902   4.953   6.283
 9787WAT      O39867   0.353   6.325   5.908
 9787WAT     H139868   0.399   6.333   5.834
 9787WAT     H239869   0.398   6.267   5.954
 9787WAT    EPW39870   0.366   6.317   5.904
 9788WAT      O39871   0.864   5.972   7.524
 9788WAT     H139872   0.840   5.972   7.608
 9788WAT     H239873   0.789   5.957   7.482
 9788WAT    EPW39874   0.849   5.970   7.530
 9789WAT      O39875   0.351   5.672   6.438
 9789WAT     H139876   0.305   5.632   6.375
 9789WAT     H239877   0.421   5.620   6.447
 9789WAT    EPW39878   0.355   5.658   6.430
 9790WAT      O39879   0.802   5.233   6.972
 9790WAT     H139880   0.870   5.234   6.917
 9790WAT     H239881   0.798   5.149   6.997
 9790WAT    EPW39882   0.811   5.220   6.968
 9791WAT      O39883   0.862   6.291   7.250
 9791WAT     H139884   0.876   6.367   7.210
 9791WAT     H239885   0.941   6.255   7.253
 9791WAT    EPW39886   0.876   6.297   7.245
 9792WAT      O39887   0.551   5.482   6.440
 9792WAT     H139888   0.633   5.463   6.464
 9792WAT     H239889   0.504   5.420   6.480
 9792WAT    EPW39890   0.556   5.470   6.449
 9793WAT      O39891   0.972   6.080   6.701
 9793WAT     H139892   1.007   6.000   6.704
 9793WAT     H239893   1.038   6.130   6.675
 9793WAT    EPW39894   0.987   6.075   6.698
 9794WAT      O39895   0.977   6.025   6.322
 9794WAT     H139896   1.011   5.960   6.371
 9794WAT     H239897   1.001   6.003   6.241
 9794WAT    EPW39898   0.986   6.012   6.317
 9795WAT      O39899   1.174   5.438   7.456
 9795WAT     H139900   1.089   5.428   7.438
 9795WAT     H239901   1.177   5.512   7.501
 9795WAT    EPW39902   1.162   5.447   7.460
 9796WAT      O39903   0.611   4.991   6.367
 9796WAT     H139904   0.581   5.041   6.302
 9796WAT     H239905   0.698   4.999   6.361
 9796WAT    EPW39906   0.619   5.000   6.356
 9797WAT      O39907   1.630   4.734   7.367
 9797WAT     H139908   1.614   4.811   7.329
 9797WAT     H239909   1.553   4.712   7.402
 9797WAT    EPW39910   1.616   4.742   7.367
 9798WAT      O39911   0.909   4.905   6.589
 9798WAT     H139912   0.916   4.991   6.602
 9798WAT     H239913   0.905   4.898   6.502
 9798WAT    EPW39914   0.909   4.917   6.578
 9799WAT      O39915   1.376   5.198   5.819
 9799WAT     H139916   1.331   5.266   5.849
 9799WAT     H239917   1.388   5.147   5.889
 9799WAT    EPW39918   1.371   5.200   5.834
 9800WAT      O39919   0.772   6.203   6.277
 9800WAT     H139920   0.714   6.176   6.336
 9800WAT     H239921   0.834   6.142   6.279
 9800WAT    EPW39922   0.773   6.190   6.286
 9801WAT      O39923   1.386   6.432   6.029
 9801WAT     H139924   1.459   6.479   6.039
 9801WAT     H239925   1.409   6.352   6.057
 9801WAT    EPW39926   1.400   6.427   6.035
 9802WAT      O39927   1.203   6.471   6.228
 9802WAT     H139928   1.224   6.524   6.294
 9802WAT     H239929   1.280   6.454   6.190
 9802WAT    EPW39930   1.217   6.476   6.232
 9803WAT      O39931   0.500   4.929   6.788
 9803WAT     H139932   0.448   4.867   6.757
 9803WAT     H239933   0.559   4.886   6.835
 9803WAT    EPW39934   0.501   4.914   6.790
 9804WAT      O39935   0.342   6.286   6.322
 9804WAT     H139936   0.408   6.228   6.324
 9804WAT     H239937   0.381   6.361   6.300
 9804WAT    EPW39938   0.358   6.288   6.319
 9805WAT      O39939   1.916   5.195   6.448
 9805WAT     H139940   1.881   5.263   6.491
 9805WAT     H239941   1.852   5.135   6.450
 9805WAT    EPW39942   1.901   5.196   6.455
 9806WAT      O39943   1.447   6.472   7.059
 9806WAT     H139944   1.521   6.518   7.058
 9806WAT     H239945   1.435   6.451   6.975
 9806WAT    EPW39946   1.456   6.476   7.046
 9807WAT      O39947   0.404   5.102   7.616
 9807WAT     H139948   0.326   5.063   7.609
 9807WAT     H239949   0.453   5.061   7.557
 9807WAT    EPW39950   0.399   5.090   7.606
 9808WAT      O39951   0.424   6.134   6.672
 9808WAT     H139952   0.466   6.099   6.605
 9808WAT     H239953   0.457   6.092   6.741
 9808WAT    EPW39954   0.435   6.123   6.672
 9809WAT      O39955   0.747   6.420   6.602
 9809WAT     H139956   0.832   6.430   6.582
 9809WAT     H239957   0.718   6.501   6.608
 9809WAT    EPW39958   0.755   6.433   6.600
 9810WAT      O39959   1.069   4.867   7.533
 9810WAT     H139960   1.086   4.786   7.506
 9810WAT     H239961   1.054   4.911   7.459
 9810WAT    EPW39962   1.069   4.861   7.518
 9811WAT      O39963   1.128   5.359   6.410
 9811WAT     H139964   1.157   5.336   6.331
 9811WAT     H239965   1.201   5.367   6.457
 9811WAT    EPW39966   1.143   5.357   6.406
 9812WAT      O39967   1.200   5.393   5.922
 9812WAT     H139968   1.228   5.472   5.947
 9812WAT     H239969   1.123   5.410   5.886
 9812WAT    EPW39970   1.193   5.407   5.921
 9813WAT      O39971   1.604   6.591   6.069
 9813WAT     H139972   1.671   6.576   6.015
 9813WAT     H239973   1.640   6.582   6.148
 9813WAT    EPW39974   1.619   6.587   6.073
 9814WAT      O39975   0.647   6.541   7.176
 9814WAT     H139976   0.676   6.535   7.258
 9814WAT     H239977   0.584   6.481   7.171
 9814WAT    EPW39978   0.642   6.532   7.187
 9815WAT      O39979   1.883   5.027   6.985
 9815WAT     H139980   1.959   5.035   6.942
 9815WAT     H239981   1.889   4.950   7.025
 9815WAT    EPW39982   1.895   5.017   6.985
 9816WAT      O39983   1.372   6.191   7.429
 9816WAT     H139984   1.369   6.229   7.507
 9816WAT     H239985   1.458   6.186   7.412
 9816WAT    EPW39986   1.384   6.196   7.438
 9817WAT      O39987   1.086   6.210   5.904
 9817WAT     H139988   1.068   6.265   5.970
 9817WAT     H239989   1.163   6.239   5.874
 9817WAT    EPW39990   1.095   6.223   5.909
 9818WAT      O39991   1.437   5.000   6.009
 9818WAT     H139992   1.491   4.932   6.017
 9818WAT     H239993   1.443   5.040   6.087
 9818WAT    EPW39994   1.446   4.996   6.022
 9819WAT      O39995   0.232   5.117   6.266
 9819WAT     H139996   0.221   5.030   6.269
 9819WAT     H239997   0.185   5.146   6.333
 9819WAT    EPW39998   0.223   5.108   6.277
 9820WAT      O39999   0.446   6.358   7.088
 9820WAT     H140000   0.377   6.307   7.100
 9820WAT     H240001   0.472   6.337   7.007
 9820WAT    EPW40002   0.440   6.347   7.078
 9821WAT      O40003   1.163   5.237   6.141
 9821WAT     H140004   1.112   5.171   6.115
 9821WAT     H240005   1.168   5.288   6.070
 9821WAT    EPW40006   1.156   5.235   6.127
 9822WAT      O40007   1.217   6.507   7.179
 9822WAT     H140008   1.294   6.499   7.138
 9822WAT     H240009   1.159   6.495   7.115
 9822WAT    EPW40010   1.220   6.504   7.163
 9823WAT      O40011   1.163   4.932   6.130
 9823WAT     H140012   1.117   4.891   6.067
 9823WAT     H240013   1.240   4.947   6.092
 9823WAT    EPW40014   1.167   4.928   6.115
 9824WAT      O40015   1.845   6.567   6.469
 9824WAT     H140016   1.800   6.639   6.489
 9824WAT     H240017   1.784   6.510   6.445
 9824WAT    EPW40018   1.829   6.569   6.468
 9825WAT      O40019   1.022   5.168   6.582
 9825WAT     H140020   1.030   5.225   6.516
 9825WAT     H240021   1.034   5.217   6.653
 9825WAT    EPW40022   1.025   5.184   6.583
 9826WAT      O40023   1.545   6.152   6.423
 9826WAT     H140024   1.615   6.104   6.442
 9826WAT     H240025   1.479   6.095   6.428
 9826WAT    EPW40026   1.545   6.136   6.427
 9827WAT      O40027   0.582   6.243   7.345
 9827WAT     H140028   0.667   6.249   7.322
 9827WAT     H240029   0.579   6.282   7.422
 9827WAT    EPW40030   0.594   6.250   7.353
 9828WAT      O40031   0.483   4.751   6.417
 9828WAT     H140032   0.537   4.819   6.416
 9828WAT     H240033   0.483   4.723   6.334
 9828WAT    EPW40034   0.491   4.757   6.405
 9829WAT      O40035   0.779   5.794   6.819
 9829WAT     H140036   0.796   5.773   6.902
 9829WAT     H240037   0.713   5.740   6.798
 9829WAT    EPW40038   0.772   5.783   6.829
 9830WAT      O40039   1.402   5.185   7.171
 9830WAT     H140040   1.392   5.217   7.252
 9830WAT     H240041   1.342   5.121   7.167
 9830WAT    EPW40042   1.391   5.180   7.182
 9831WAT      O40043   0.854   5.788   7.078
 9831WAT     H140044   0.859   5.872   7.099
 9831WAT     H240045   0.825   5.751   7.152
 9831WAT    EPW40046   0.850   5.795   7.092
 9832WAT      O40047   1.471   5.857   6.991
 9832WAT     H140048   1.420   5.816   7.049
 9832WAT     H240049   1.459   5.942   7.010
 9832WAT    EPW40050   1.462   5.864   7.003
 9833WAT      O40051   1.527   4.780   6.455
 9833WAT     H140052   1.532   4.748   6.536
 9833WAT     H240053   1.559   4.715   6.405
 9833WAT    EPW40054   1.533   4.765   6.459
 9834WAT      O40055   1.774   5.203   7.285
 9834WAT     H140056   1.851   5.181   7.319
 9834WAT     H240057   1.726   5.225   7.355
 9834WAT    EPW40058   1.778   5.203   7.301
 9835WAT      O40059   0.528   5.132   6.582
 9835WAT     H140060   0.555   5.089   6.512
 9835WAT     H240061   0.510   5.068   6.639
 9835WAT    EPW40062   0.529   5.116   6.580
 9836WAT      O40063   1.797   5.901   6.004
 9836WAT     H140064   1.809   5.872   6.086
 9836WAT     H240065   1.877   5.903   5.971
 9836WAT    EPW40066   1.810   5.897   6.011
 9837WAT      O40067   0.510   5.874   6.537
 9837WAT     H140068   0.595   5.866   6.520
 9837WAT     H240069   0.475   5.806   6.496
 9837WAT    EPW40070   0.518   5.863   6.529
 9838WAT      O40071   0.387   6.547   6.661
 9838WAT     H140072   0.320   6.497   6.636
 9838WAT     H240073   0.427   6.565   6.586
 9838WAT    EPW40074   0.383   6.542   6.646
 9839WAT      O40075   0.342   5.242   6.891
 9839WAT     H140076   0.426   5.264   6.886
 9839WAT     H240077   0.303   5.299   6.837
 9839WAT    EPW40078   0.349   5.253   6.882
 9840WAT      O40079   2.020   6.352   7.430
 9840WAT     H140080   1.952   6.383   7.385
 9840WAT     H240081   1.983   6.306   7.494
 9840WAT    EPW40082   2.005   6.350   7.432
 9841WAT      O40083   1.586   5.555   5.963
 9841WAT     H140084   1.564   5.628   5.920
 9841WAT     H240085   1.541   5.560   6.037
 9841WAT    EPW40086   1.576   5.566   5.967
 9842WAT      O40087   0.747   5.875   6.361
 9842WAT     H140088   0.818   5.924   6.370
 9842WAT     H240089   0.769   5.818   6.298
 9842WAT    EPW40090   0.761   5.874   6.353
 9843WAT      O40091   2.005   5.041   5.908
 9843WAT     H140092   1.939   4.984   5.910
 9843WAT     H240093   1.986   5.092   5.840
 9843WAT    EPW40094   1.992   5.040   5.898
 9844WAT      O40095   2.037   5.479   7.164
 9844WAT     H140096   2.059   5.399   7.136
 9844WAT     H240097   1.952   5.485   7.145
 9844WAT    EPW40098   2.028   5.468   7.157
 9845WAT      O40099   1.805   4.997   6.136
 9845WAT     H140100   1.880   4.956   6.156
 9845WAT     H240101   1.831   5.068   6.093
 9845WAT    EPW40102   1.820   5.001   6.133
 9846WAT      O40103   1.199   6.245   6.593
 9846WAT     H140104   1.147   6.309   6.564
 9846WAT     H240105   1.230   6.209   6.521
 9846WAT    EPW40106   1.196   6.249   6.578
 9847WAT      O40107   0.607   6.024   6.869
 9847WAT     H140108   0.654   6.053   6.937
 9847WAT     H240109   0.664   5.976   6.824
 9847WAT    EPW40110   0.622   6.021   6.873
 9848WAT      O40111   1.451   5.225   6.643
 9848WAT     H140112   1.485   5.241   6.722
 9848WAT     H240113   1.405   5.152   6.654
 9848WAT    EPW40114   1.449   5.217   6.656
 9849WAT      O40115   0.264   5.791   6.724
 9849WAT     H140116   0.307   5.778   6.649
 9849WAT     H240117   0.243   5.876   6.721
 9849WAT    EPW40118   0.267   5.802   6.712
 9850WAT      O40119   0.898   5.147   6.089
 9850WAT     H140120   0.898   5.136   6.002
 9850WAT     H240121   0.880   5.232   6.098
 9850WAT    EPW40122   0.895   5.158   6.077
 9851WAT      O40123   1.804   6.390   7.239
 9851WAT     H140124   1.736   6.442   7.260
 9851WAT     H240125   1.810   6.400   7.152
 9851WAT    EPW40126   1.795   6.399   7.229
 9852WAT      O40127   0.672   6.143   6.552
 9852WAT     H140128   0.685   6.227   6.571
 9852WAT     H240129   0.739   6.103   6.592
 9852WAT    EPW40130   0.684   6.149   6.561
 9853WAT      O40131   0.485   5.491   7.538
 9853WAT     H140132   0.431   5.440   7.585
 9853WAT     H240133   0.487   5.452   7.460
 9853WAT    EPW40134   0.477   5.478   7.534
 9854WAT      O40135   0.533   5.431   6.052
 9854WAT     H140136   0.521   5.386   6.126
 9854WAT     H240137   0.475   5.396   5.997
 9854WAT    EPW40138   0.523   5.419   6.055
 9855WAT      O40139   0.550   5.614   6.712
 9855WAT     H140140   0.472   5.608   6.674
 9855WAT     H240141   0.557   5.538   6.756
 9855WAT    EPW40142   0.540   5.602   6.713
 9856WAT      O40143   0.593   5.587   7.059
 9856WAT     H140144   0.596   5.520   7.004
 9856WAT     H240145   0.529   5.637   7.028
 9856WAT    EPW40146   0.584   5.585   7.046
 9857WAT      O40147   1.583   5.359   6.899
 9857WAT     H140148   1.516   5.391   6.945
 9857WAT     H240149   1.601   5.422   6.842
 9857WAT    EPW40150   1.576   5.373   6.897
 9858WAT      O40151   1.003   6.465   6.998
 9858WAT     H140152   0.975   6.401   6.946
 9858WAT     H240153   0.982   6.538   6.954
 9858WAT    EPW40154   0.996   6.466   6.984
 9859WAT      O40155   1.247   4.949   7.241
 9859WAT     H140156   1.262   4.867   7.217
 9859WAT     H240157   1.285   4.955   7.320
 9859WAT    EPW40158   1.255   4.938   7.249
 9860WAT      O40159   1.402   5.156   6.250
 9860WAT     H140160   1.451   5.227   6.242
 9860WAT     H240161   1.323   5.182   6.223
 9860WAT    EPW40162   1.398   5.170   6.245
 9861WAT      O40163   0.373   5.723   7.615
 9861WAT     H140164   0.369   5.773   7.543
 9861WAT     H240165   0.406   5.648   7.585
 9861WAT    EPW40166   0.377   5.719   7.600
 9862WAT      O40167   1.533   5.943   7.441
 9862WAT     H140168   1.582   6.015   7.450
 9862WAT     H240169   1.573   5.901   7.376
 9862WAT    EPW40170   1.546   5.948   7.432
 9863WAT      O40171   0.963   6.228   7.558
 9863WAT     H140172   0.998   6.210   7.636
 9863WAT     H240173   0.919   6.155   7.538
 9863WAT    EPW40174   0.962   6.214   7.567
 9864WAT      O40175   1.060   5.303   6.822
 9864WAT     H140176   1.108   5.372   6.843
 9864WAT     H240177   1.097   5.238   6.867
 9864WAT    EPW40178   1.073   5.303   6.832
 9865WAT      O40179   1.279   5.619   6.050
 9865WAT     H140180   1.278   5.692   6.001
 9865WAT     H240181   1.215   5.633   6.107
 9865WAT    EPW40182   1.270   5.632   6.051
 9866WAT      O40183   1.776   6.006   6.448
 9866WAT     H140184   1.812   5.971   6.519
 9866WAT     H240185   1.775   5.940   6.391
 9866WAT    EPW40186   1.781   5.991   6.450
 9867WAT      O40187   1.381   6.313   6.832
 9867WAT     H140188   1.320   6.283   6.776
 9867WAT     H240189   1.435   6.358   6.781
 9867WAT    EPW40190   1.380   6.315   6.816
 9868WAT      O40191   1.382   5.998   6.772
 9868WAT     H140192   1.302   6.021   6.799
 9868WAT     H240193   1.408   5.939   6.831
 9868WAT    EPW40194   1.374   5.993   6.785
 9869WAT      O40195   0.771   6.479   6.217
 9869WAT     H140196   0.757   6.402   6.254
 9869WAT     H240197   0.840   6.465   6.165
 9869WAT    EPW40198   0.779   6.466   6.215
 9870WAT      O40199   0.738   4.854   6.016
 9870WAT     H140200   0.748   4.843   6.102
 9870WAT     H240201   0.668   4.904   6.009
 9870WAT    EPW40202   0.729   4.860   6.027
 9871WAT      O40203   1.000   6.431   6.057
 9871WAT     H140204   1.063   6.447   6.116
 9871WAT     H240205   1.004   6.500   6.004
 9871WAT    EPW40206   1.010   6.444   6.058
 9872WAT      O40207   1.708   5.798   7.257
 9872WAT     H140208   1.714   5.810   7.170
 9872WAT     H240209   1.783   5.830   7.287
 9872WAT    EPW40210   1.720   5.804   7.248
 9873WAT      O40211   1.811   4.828   7.555
 9873WAT     H140212   1.748   4.788   7.511
 9873WAT     H240213   1.814   4.785   7.631
 9873WAT    EPW40214   1.802   4.816   7.560
 9874WAT      O40215   0.451   5.684   6.140
 9874WAT     H140216   0.483   5.606   6.118
 9874WAT     H240217   0.515   5.721   6.185
 9874WAT    EPW40218   0.465   5.678   6.143
 9875WAT      O40219   1.281   5.779   7.217
 9875WAT     H140220   1.266   5.840   7.277
 9875WAT     H240221   1.335   5.723   7.257
 9875WAT    EPW40222   1.287   5.779   7.232
 9876WAT      O40223   1.120   5.619   6.282
 9876WAT     H140224   1.125   5.684   6.340
 9876WAT     H240225   1.101   5.549   6.332
 9876WAT    EPW40226   1.118   5.618   6.298
 9877WAT      O40227   1.642   6.051   6.869
 9877WAT     H140228   1.594   6.081   6.803
 9877WAT     H240229   1.607   5.974   6.887
 9877WAT    EPW40230   1.630   6.044   6.862
 9878WAT      O40231   0.569   5.070   5.934
 9878WAT     H140232   0.518   5.076   5.863
 9878WAT     H240233   0.648   5.094   5.904
 9878WAT    EPW40234   0.573   5.075   5.919
 9879WAT      O40235   1.042   5.823   6.726
 9879WAT     H140236   0.957   5.804   6.734
 9879WAT     H240237   1.074   5.807   6.805
 9879WAT    EPW40238   1.034   5.818   6.738
 9880WAT      O40239   0.717   6.496   5.814
 9880WAT     H140240   0.761   6.427   5.843
 9880WAT     H240241   0.738   6.559   5.871
 9880WAT    EPW40242   0.727   6.495   5.827
 9881WAT      O40243   0.427   5.793   6.957
 9881WAT     H140244   0.499   5.841   6.953
 9881WAT     H240245   0.400   5.790   6.874
 9881WAT    EPW40246   0.433   5.799   6.944
 9882WAT      O40247   0.750   5.310   6.631
 9882WAT     H140248   0.834   5.291   6.640
 9882WAT     H240249   0.713   5.232   6.617
 9882WAT    EPW40250   0.757   5.295   6.630
 9883WAT      O40251   2.011   6.468   6.063
 9883WAT     H140252   2.081   6.421   6.039
 9883WAT     H240253   1.957   6.408   6.097
 9883WAT    EPW40254   2.014   6.452   6.065
 9884WAT      O40255   0.232   5.443   6.296
 9884WAT     H140256   0.281   5.414   6.362
 9884WAT     H240257   0.245   5.384   6.233
 9884WAT    EPW40258   0.241   5.430   6.297
 9885WAT      O40259   1.735   5.746   6.981
 9885WAT     H140260   1.735   5.668   7.021
 9885WAT     H240261   1.651   5.769   6.981
 9885WAT    EPW40262   1.723   5.738   6.987
 9886WAT      O40263   0.684   5.587   5.845
 9886WAT     H140264   0.623   5.546   5.892
 9886WAT     H240265   0.646   5.599   5.767
 9886WAT    EPW40266   0.670   5.583   5.840
 9887WAT      O40267   0.366   5.898   7.385
 9887WAT     H140268   0.324   5.846   7.329
 9887WAT     H240269   0.331   5.976   7.371
 9887WAT    EPW40270   0.355   5.902   7.375
 9888WAT      O40271   1.861   5.753   6.725
 9888WAT     H140272   1.832   5.793   6.797
 9888WAT     H240273   1.947   5.747   6.738
 9888WAT    EPW40274   1.869   5.758   6.737
 9889WAT      O40275   0.830   5.433   6.116
 9889WAT     H140276   0.857   5.516   6.122
 9889WAT     H240277   0.743   5.440   6.106
 9889WAT    EPW40278   0.821   5.446   6.115
 9890WAT      O40279   1.627   5.145   7.579
 9890WAT     H140280   1.575   5.191   7.631
 9890WAT     H240281   1.591   5.066   7.578
 9890WAT    EPW40282   1.614   5.140   7.587
 9891WAT      O40283   0.178   5.030   6.769
 9891WAT     H140284   0.182   5.064   6.689
 9891WAT     H240285   0.253   5.054   6.806
 9891WAT    EPW40286   0.190   5.039   6.763
 9892WAT      O40287   1.974   6.316   6.778
 9892WAT     H140288   2.003   6.342   6.700
 9892WAT     H240289   2.043   6.326   6.830
 9892WAT    EPW40290   1.989   6.321   6.774
 9893WAT      O40291   1.476   5.502   7.587
 9893WAT     H140292   1.484   5.512   7.673
 9893WAT     H240293   1.413   5.558   7.564
 9893WAT    EPW40294   1.468   5.512   7.596
 9894WAT      O40295   1.703   5.534   7.423
 9894WAT     H140296   1.735   5.613   7.443
 9894WAT     H240297   1.666   5.507   7.497
 9894WAT    EPW40298   1.702   5.542   7.437
 9895WAT      O40299   1.634   6.176   5.976
 9895WAT     H140300   1.668   6.096   5.980
 9895WAT     H240301   1.559   6.169   6.019
 9895WAT    EPW40302   1.628   6.163   5.983
 9896WAT      O40303   1.683   5.360   6.542
 9896WAT     H140304   1.608   5.327   6.574
 9896WAT     H240305   1.683   5.442   6.570
 9896WAT    EPW40306   1.672   5.367   6.551
 9897WAT      O40307   1.927   5.956   7.317
 9897WAT     H140308   1.989   5.901   7.292
 9897WAT     H240309   1.921   6.012   7.251
 9897WAT    EPW40310   1.935   5.956   7.304
 9898WAT      O40311   1.372   5.964   5.916
 9898WAT     H140312   1.440   5.912   5.899
 9898WAT     H240313   1.330   5.968   5.840
 9898WAT    EPW40314   1.376   5.957   5.903
 9899WAT      O40315   0.840   6.079   7.047
 9899WAT     H140316   0.810   6.138   7.103
 9899WAT     H240317   0.846   6.123   6.972
 9899WAT    EPW40318   0.836   6.094   7.044
 9900WAT      O40319   0.638   5.974   7.387
 9900WAT     H140320   0.557   5.945   7.403
 9900WAT     H240321   0.629   6.061   7.387
 9900WAT    EPW40322   0.625   5.982   7.389
 9901WAT      O40323   1.574   4.993   7.288
 9901WAT     H140324   1.648   5.038   7.282
 9901WAT     H240325   1.517   5.040   7.241
 9901WAT    EPW40326   1.577   5.006   7.280
 9902WAT      O40327   1.092   5.721   6.996
 9902WAT     H140328   1.139   5.759   7.059
 9902WAT     H240329   1.009   5.735   7.022
 9902WAT    EPW40330   1.087   5.729   7.009
 9903WAT      O40331   0.763   5.281   7.270
 9903WAT     H140332   0.779   5.207   7.313
 9903WAT     H240333   0.758   5.257   7.186
 9903WAT    EPW40334   0.764   5.267   7.264
 9904WAT      O40335   1.018   6.460   6.519
 9904WAT     H140336   1.073   6.528   6.524
 9904WAT     H240337   0.983   6.469   6.439
 9904WAT    EPW40338   1.021   6.472   6.508
 9905WAT      O40339   1.702   4.791   7.055
 9905WAT     H140340   1.674   4.873   7.051
 9905WAT     H240341   1.774   4.796   7.105
 9905WAT    EPW40342   1.709   4.804   7.062
 9906WAT      O40343   0.938   4.862   7.258
 9906WAT     H140344   1.008   4.894   7.218
 9906WAT     H240345   0.962   4.782   7.281
 9906WAT    EPW40346   0.952   4.855   7.255
 9907WAT      O40347   0.836   6.283   6.858
 9907WAT     H140348   0.774   6.341   6.839
 9907WAT     H240349   0.861   6.255   6.779
 9907WAT    EPW40350   0.831   6.288   6.843
 9908WAT      O40351   1.267   5.947   7.556
 9908WAT     H140352   1.343   5.975   7.524
 9908WAT     H240353   1.213   5.952   7.489
 9908WAT    EPW40354   1.270   5.952   7.542
 9909WAT      O40355   1.658   6.202   7.407
 9909WAT     H140356   1.693   6.229   7.482
 9909WAT     H240357   1.688   6.260   7.349
 9909WAT    EPW40358   1.668   6.214   7.409
 9910WAT      O40359   1.844   5.416   5.941
 9910WAT     H140360   1.882   5.484   5.901
 9910WAT     H240361   1.760   5.439   5.944
 9910WAT    EPW40362   1.838   5.430   5.935
 9911WAT      O40363   0.996   5.761   5.849
 9911WAT     H140364   0.915   5.743   5.821
 9911WAT     H240365   0.992   5.846   5.868
 9911WAT    EPW40366   0.983   5.771   5.848
 9912WAT      O40367   0.589   5.368   6.864
 9912WAT     H140368   0.633   5.357   6.789
 9912WAT     H240369   0.643   5.336   6.925
 9912WAT    EPW40370   0.603   5.361   6.862
 9913WAT      O40371   1.390   5.278   7.423
 9913WAT     H140372   1.326   5.325   7.458
 9913WAT     H240373   1.447   5.269   7.489
 9913WAT    EPW40374   1.389   5.283   7.438
 9914WAT      O40375   1.359   5.431   7.053
 9914WAT     H140376   1.389   5.473   7.123
 9914WAT     H240377   1.363   5.347   7.076
 9914WAT    EPW40378   1.364   5.425   7.067
 9915WAT      O40379   1.102   6.448   7.446
 9915WAT     H140380   1.149   6.388   7.404
 9915WAT     H240381   1.067   6.404   7.512
 9915WAT    EPW40382   1.104   6.433   7.449
 9916WAT      O40383   1.614   5.376   6.278
 9916WAT     H140384   1.635   5.356   6.361
 9916WAT     H240385   1.690   5.403   6.244
 9916WAT    EPW40386   1.628   5.377   6.285
 9917WAT      O40387   0.943   4.866   6.869
 9917WAT     H140388   0.861   4.851   6.892
 9917WAT     H240389   0.939   4.870   6.782
 9917WAT    EPW40390   0.931   4.864   6.859
 9918WAT      O40391   1.716   4.984   6.426
 9918WAT     H140392   1.645   4.937   6.443
 9918WAT     H240393   1.700   5.019   6.347
 9918WAT    EPW40394   1.703   4.983   6.417
 9919WAT      O40395   1.760   5.779   6.264
 9919WAT     H140396   1.808   5.706   6.259
 9919WAT     H240397   1.678   5.750   6.256
 9919WAT    EPW40398   1.755   5.764   6.262
 9920WAT      O40399   1.108   5.970   7.348
 9920WAT     H140400   1.028   5.964   7.383
 9920WAT     H240401   1.115   6.055   7.328
 9920WAT    EPW40402   1.097   5.982   7.350
 9921WAT      O40403   0.691   6.591   6.879
 9921WAT     H140404   0.692   6.597   6.966
 9921WAT     H240405   0.648   6.516   6.864
 9921WAT    EPW40406   0.684   6.581   6.890
 9922WAT      O40407   0.506   5.180   6.195
 9922WAT     H140408   0.519   5.147   6.115
 9922WAT     H240409   0.425   5.155   6.215
 9922WAT    EPW40410   0.496   5.172   6.186
 9923WAT      O40411   1.382   5.896   6.499
 9923WAT     H140412   1.390   5.930   6.579
 9923WAT     H240413   1.399   5.811   6.511
 9923WAT    EPW40414   1.386   5.888   6.513
 9924WAT      O40415   1.134   5.823   6.456
 9924WAT     H140416   1.104   5.791   6.531
 9924WAT     H240417   1.204   5.870   6.479
 9924WAT    EPW40418   1.140   5.825   6.470
 9925WAT      O40419   1.156   6.235   7.258
 9925WAT     H140420   1.225   6.223   7.311
 9925WAT     H240421   1.170   6.314   7.224
 9925WAT    EPW40422   1.169   6.245   7.261
 9926WAT      O40423   1.974   5.496   7.439
 9926WAT     H140424   1.889   5.483   7.452
 9926WAT     H240425   1.989   5.456   7.363
 9926WAT    EPW40426   1.964   5.488   7.430
 9927WAT      O40427   1.425   5.562   7.297
 9927WAT     H140428   1.400   5.490   7.339
 9927WAT     H240429   1.507   5.574   7.324
 9927WAT    EPW40430   1.434   5.553   7.307
 9928WAT      O40431   0.367   6.541   7.423
 9928WAT     H140432   0.302   6.484   7.433
 9928WAT     H240433   0.329   6.618   7.439
 9928WAT    EPW40434   0.352   6.544   7.427
 9929WAT      O40435   1.219   5.681   7.616
 9929WAT     H140436   1.251   5.750   7.573
 9929WAT     H240437   1.148   5.713   7.656
 9929WAT    EPW40438   1.213   5.696   7.615
 9930WAT      O40439   1.527   6.519   6.709
 9930WAT     H140440   1.482   6.583   6.747
 9930WAT     H240441   1.598   6.511   6.759
 9930WAT    EPW40442   1.531   6.527   6.722
 9931WAT      O40443   1.197   6.028   7.002
 9931WAT     H140444   1.128   6.068   7.036
 9931WAT     H240445   1.265   6.071   7.036
 9931WAT    EPW40446   1.197   6.040   7.012
 9932WAT      O40447   0.504   5.381   7.236
 9932WAT     H140448   0.542   5.443   7.188
 9932WAT     H240449   0.571   5.334   7.265
 9932WAT    EPW40450   0.520   5.384   7.233
 9933WAT      O40451   0.282   5.226   7.164
 9933WAT     H140452   0.289   5.209   7.079
 9933WAT     H240453   0.356   5.267   7.184
 9933WAT    EPW40454   0.294   5.230   7.154
 9934WAT      O40455   1.837   5.490   6.208
 9934WAT     H140456   1.848   5.484   6.121
 9934WAT     H240457   1.912   5.457   6.240
 9934WAT    EPW40458   1.850   5.484   6.200
 9935WAT      O40459   0.537   4.967   7.405
 9935WAT     H140460   0.529   4.883   7.426
 9935WAT     H240461   0.506   4.972   7.324
 9935WAT    EPW40462   0.531   4.955   7.396
 9936WAT      O40463   1.229   6.187   6.319
 9936WAT     H140464   1.209   6.270   6.303
 9936WAT     H240465   1.152   6.148   6.331
 9936WAT    EPW40466   1.215   6.193   6.318
 9937WAT      O40467   1.748   5.505   7.143
 9937WAT     H140468   1.747   5.418   7.156
 9937WAT     H240469   1.754   5.537   7.224
 9937WAT    EPW40470   1.749   5.497   7.157
 9938WAT      O40471   0.221   5.749   7.186
 9938WAT     H140472   0.253   5.771   7.108
 9938WAT     H240473   0.211   5.662   7.181
 9938WAT    EPW40474   0.224   5.739   7.174
 9939WAT      O40475   0.367   5.342   5.848
 9939WAT     H140476   0.300   5.344   5.904
 9939WAT     H240477   0.376   5.258   5.830
 9939WAT    EPW40478   0.358   5.330   5.854
 9940WAT      O40479   1.336   4.985   7.522
 9940WAT     H140480   1.345   5.056   7.571
 9940WAT     H240481   1.272   4.940   7.561
 9940WAT    EPW40482   1.327   4.989   7.535
 9941WAT      O40483   1.235   5.004   6.607
 9941WAT     H140484   1.165   5.056   6.601
 9941WAT     H240485   1.239   4.966   6.529
 9941WAT    EPW40486   1.225   5.006   6.595
 9942WAT      O40487   0.766   6.213   5.959
 9942WAT     H140488   0.810   6.221   6.034
 9942WAT     H240489   0.685   6.191   5.985
 9942WAT    EPW40490   0.760   6.211   5.974
 9943WAT      O40491   1.595   5.055   6.887
 9943WAT     H140492   1.680   5.065   6.902
 9943WAT     H240493   1.558   5.111   6.944
 9943WAT    EPW40494   1.602   5.065   6.898
 9944WAT      O40495   0.698   5.678   7.325
 9944WAT     H140496   0.658   5.755   7.332
 9944WAT     H240497   0.657   5.641   7.257
 9944WAT    EPW40498   0.686   5.684   7.316
 9945WAT      O40499   1.625   5.583   6.736
 9945WAT     H140500   1.692   5.637   6.752
 9945WAT     H240501   1.591   5.614   6.662
 9945WAT    EPW40502   1.630   5.596   6.728
 9946WAT      O40503   1.656   6.390   6.317
 9946WAT     H140504   1.639   6.325   6.372
 9946WAT     H240505   1.728   6.363   6.275
 9946WAT    EPW40506   1.664   6.376   6.319
 9947WAT      O40507   0.499   6.120   6.020
 9947WAT     H140508   0.474   6.089   6.098
 9947WAT     H240509   0.495   6.050   5.968
 9947WAT    EPW40510   0.494   6.105   6.023
 9948WAT      O40511   0.780   5.944   5.894
 9948WAT     H140512   0.699   5.918   5.908
 9948WAT     H240513   0.778   6.030   5.912
 9948WAT    EPW40514   0.768   5.953   5.899
 9949WAT      O40515   0.740   4.976   7.070
 9949WAT     H140516   0.654   4.984   7.078
 9949WAT     H240517   0.762   4.924   7.137
 9949WAT    EPW40518   0.731   4.969   7.081
 9950WAT      O40519   1.942   4.839   7.203
 9950WAT     H140520   1.937   4.835   7.290
 9950WAT     H240521   2.011   4.789   7.184
 9950WAT    EPW40522   1.952   4.831   7.213
 9951WAT      O40523   1.151   5.050   6.907
 9951WAT     H140524   1.077   5.005   6.918
 9951WAT     H240525   1.208   5.010   6.959
 9951WAT    EPW40526   1.148   5.038   6.917
 9952WAT      O40527   1.424   6.135   7.086
 9952WAT     H140528   1.445   6.165   7.165
 9952WAT     H240529   1.418   6.207   7.037
 9952WAT    EPW40530   1.426   6.150   7.090
 9953WAT      O40531   1.377   6.557   7.511
 9953WAT     H140532   1.302   6.555   7.466
 9953WAT     H240533   1.394   6.642   7.519
 9953WAT    EPW40534   1.369   6.569   7.505
 9954WAT      O40535   0.901   5.483   7.428
 9954WAT     H140536   0.869   5.426   7.371
 9954WAT     H240537   0.865   5.559   7.403
 9954WAT    EPW40538   0.891   5.486   7.416
 9955WAT      O40539   0.981   4.809   5.890
 9955WAT     H140540   0.988   4.833   5.807
 9955WAT     H240541   0.906   4.846   5.916
 9955WAT    EPW40542   0.971   4.818   5.882
 9956WAT      O40543   1.905   5.999   7.032
 9956WAT     H140544   1.902   5.913   7.018
 9956WAT     H240545   1.836   6.029   6.988
 9956WAT    EPW40546   1.894   5.991   7.023
 9957WAT      O40547   0.745   6.519   7.452
 9957WAT     H140548   0.749   6.532   7.539
 9957WAT     H240549   0.810   6.463   7.437
 9957WAT    EPW40550   0.755   6.513   7.463
 9958WAT      O40551   1.716   6.325   6.911
 9958WAT     H140552   1.768   6.317   6.842
 9958WAT     H240553   1.677   6.247   6.917
 9958WAT    EPW40554   1.718   6.312   6.902
 9959WAT      O40555   0.462   4.984   7.135
 9959WAT     H140556   0.428   4.907   7.111
 9959WAT     H240557   0.393   5.036   7.141
 9959WAT    EPW40558   0.447   4.980   7.132
 9960WAT      O40559   1.367   4.870   6.832
 9960WAT     H140560   1.434   4.924   6.845
 9960WAT     H240561   1.317   4.912   6.775
 9960WAT    EPW40562   1.370   4.884   6.826
 9961WAT      O40563   0.504   6.357   7.588
 9961WAT     H140564   0.563   6.400   7.636
 9961WAT     H240565   0.467   6.420   7.539
 9961WAT    EPW40566   0.507   6.373   7.588
 9962WAT      O40567   1.303   5.450   6.582
 9962WAT     H140568   1.358   5.390   6.612
 9962WAT     H240569   1.260   5.477   6.653
 9962WAT    EPW40570   1.305   5.445   6.596
 9963WAT      O40571   0.328   5.315   6.530
 9963WAT     H140572   0.291   5.346   6.603
 9963WAT     H240573   0.381   5.252   6.559
 9963WAT    EPW40574   0.330   5.311   6.545
 9964WAT      O40575   0.297   6.156   7.281
 9964WAT     H140576   0.239   6.198   7.332
 9964WAT     H240577   0.370   6.203   7.291
 9964WAT    EPW40578   0.299   6.169   7.290
 9965WAT      O40579   1.500   5.633   6.238
 9965WAT     H140580   1.507   5.548   6.256
 9965WAT     H240581   1.418   5.642   6.210
 9965WAT    EPW40582   1.489   5.622   6.236
 9966WAT      O40583   0.475   6.483   6.159
 9966WAT     H140584   0.461   6.498   6.074
 9966WAT     H240585   0.562   6.491   6.167
 9966WAT    EPW40586   0.486   6.486   6.147
 9967WAT      O40587   0.892   5.723   6.132
 9967WAT     H140588   0.902   5.736   6.046
 9967WAT     H240589   0.974   5.717   6.161
 9967WAT    EPW40590   0.905   5.724   6.123
 9968WAT      O40591   1.808   6.529   5.880
 9968WAT     H140592   1.872   6.516   5.938
 9968WAT     H240593   1.774   6.450   5.868
 9968WAT    EPW40594   1.812   6.515   5.886
 9969WAT      O40595   1.827   5.771   7.553
 9969WAT     H140596   1.891   5.754   7.610
 9969WAT     H240597   1.869   5.811   7.488
 9969WAT    EPW40598   1.843   5.774   7.552
 9970WAT      O40599   1.415   6.155   6.112
 9970WAT     H140600   1.390   6.143   6.194
 9970WAT     H240601   1.384   6.086   6.070
 9970WAT    EPW40602   1.407   6.143   6.118
 9971WAT      O40603   1.890   5.227   7.627
 9971WAT     H140604   1.870   5.292   7.682
 9971WAT     H240605   1.818   5.178   7.626
 9971WAT    EPW40606   1.876   5.229   7.635
 9972WAT      O40607   1.880   5.321   6.924
 9972WAT     H140608   1.796   5.346   6.917
 9972WAT     H240609   1.874   5.237   6.947
 9972WAT    EPW40610   1.867   5.313   6.926
 9973WAT      O40611   0.806   5.020   7.443
 9973WAT     H140612   0.829   4.962   7.382
 9973WAT     H240613   0.722   5.002   7.457
 9973WAT    EPW40614   0.797   5.009   7.436
 9974WAT      O40615   1.568   5.782   7.688
 9974WAT     H140616   1.656   5.778   7.685
 9974WAT     H240617   1.547   5.824   7.615
 9974WAT    EPW40618   1.578   5.787   7.677
 9975WAT      O40619   0.544   6.364   6.806
 9975WAT     H140620   0.536   6.283   6.775
 9975WAT     H240621   0.499   6.413   6.749
 9975WAT    EPW40622   0.536   6.360   6.793
 9976WAT      O40623   1.104   5.976   6.055
 9976WAT     H140624   1.176   5.942   6.019
 9976WAT     H240625   1.101   6.056   6.020
 9976WAT    EPW40626   1.114   5.983   6.044
 9977WAT      O40627   0.301   6.589   7.165
 9977WAT     H140628   0.350   6.583   7.236
 9977WAT     H240629   0.320   6.515   7.121
 9977WAT    EPW40630   0.311   6.577   7.169
 9978WAT      O40631   1.245   4.840   4.479
 9978WAT     H140632   1.220   4.889   4.411
 9978WAT     H240633   1.331   4.833   4.469
 9978WAT    EPW40634   1.254   4.846   4.467
 9979WAT      O40635   1.226   5.532   4.946
 9979WAT     H140636   1.173   5.592   4.982
 9979WAT     H240637   1.265   5.495   5.014
 9979WAT    EPW40638   1.224   5.535   4.961
 9980WAT      O40639   1.840   6.276   4.243
 9980WAT     H140640   1.910   6.224   4.242
 9980WAT     H240641   1.781   6.232   4.196
 9980WAT    EPW40642   1.842   6.262   4.236
 9981WAT      O40643   0.501   5.851   4.009
 9981WAT     H140644   0.462   5.814   3.941
 9981WAT     H240645   0.493   5.792   4.072
 9981WAT    EPW40646   0.494   5.837   4.008
 9982WAT      O40647   1.493   5.639   4.613
 9982WAT     H140648   1.501   5.639   4.526
 9982WAT     H240649   1.434   5.575   4.628
 9982WAT    EPW40650   1.485   5.629   4.603
 9983WAT      O40651   0.464   6.016   4.399
 9983WAT     H140652   0.524   5.999   4.460
 9983WAT     H240653   0.388   6.002   4.441
 9983WAT    EPW40654   0.461   6.011   4.414
 9984WAT      O40655   0.892   4.949   4.394
 9984WAT     H140656   0.885   5.017   4.340
 9984WAT     H240657   0.966   4.910   4.369
 9984WAT    EPW40658   0.902   4.953   4.382
 9985WAT      O40659   0.353   6.325   4.007
 9985WAT     H140660   0.399   6.333   3.934
 9985WAT     H240661   0.398   6.267   4.054
 9985WAT    EPW40662   0.366   6.317   4.003
 9986WAT      O40663   0.864   5.972   5.624
 9986WAT     H140664   0.840   5.972   5.708
 9986WAT     H240665   0.789   5.957   5.581
 9986WAT    EPW40666   0.849   5.970   5.630
 9987WAT      O40667   0.351   5.672   4.537
 9987WAT     H140668   0.305   5.632   4.474
 9987WAT     H240669   0.421   5.620   4.546
 9987WAT    EPW40670   0.355   5.658   4.529
 9988WAT      O40671   0.802   5.233   5.072
 9988WAT     H140672   0.870   5.234   5.017
 9988WAT     H240673   0.798   5.149   5.096
 9988WAT    EPW40674   0.811   5.220   5.067
 9989WAT      O40675   0.862   6.291   5.350
 9989WAT     H140676   0.876   6.367   5.309
 9989WAT     H240677   0.941   6.255   5.353
 9989WAT    EPW40678   0.876   6.297   5.344
 9990WAT      O40679   0.551   5.482   4.539
 9990WAT     H140680   0.633   5.463   4.564
 9990WAT     H240681   0.504   5.420   4.579
 9990WAT    EPW40682   0.556   5.470   4.549
 9991WAT      O40683   0.972   6.080   4.800
 9991WAT     H140684   1.007   6.000   4.803
 9991WAT     H240685   1.038   6.130   4.775
 9991WAT    EPW40686   0.987   6.075   4.797
 9992WAT      O40687   0.977   6.025   4.421
 9992WAT     H140688   1.011   5.960   4.470
 9992WAT     H240689   1.001   6.003   4.340
 9992WAT    EPW40690   0.986   6.012   4.417
 9993WAT      O40691   1.174   5.438   5.555
 9993WAT     H140692   1.089   5.428   5.538
 9993WAT     H240693   1.177   5.512   5.601
 9993WAT    EPW40694   1.162   5.447   5.559
 9994WAT      O40695   0.611   4.991   4.466
 9994WAT     H140696   0.581   5.041   4.401
 9994WAT     H240697   0.698   4.999   4.460
 9994WAT    EPW40698   0.619   5.000   4.456
 9995WAT      O40699   1.630   4.734   5.467
 9995WAT     H140700   1.614   4.811   5.429
 9995WAT     H240701   1.553   4.712   5.501
 9995WAT    EPW40702   1.616   4.742   5.466
 9996WAT      O40703   0.909   4.905   4.688
 9996WAT     H140704   0.916   4.991   4.701
 9996WAT     H240705   0.905   4.898   4.601
 9996WAT    EPW40706   0.909   4.917   4.677
 9997WAT      O40707   1.376   5.198   3.918
 9997WAT     H140708   1.331   5.266   3.949
 9997WAT     H240709   1.388   5.147   3.988
 9997WAT    EPW40710   1.371   5.200   3.933
 9998WAT      O40711   0.772   6.203   4.376
 9998WAT     H140712   0.714   6.176   4.436
 9998WAT     H240713   0.834   6.142   4.379
 9998WAT    EPW40714   0.773   6.190   4.385
 9999WAT      O40715   1.386   6.432   4.129
 9999WAT     H140716   1.459   6.479   4.139
 9999WAT     H240717   1.409   6.352   4.157
 9999WAT    EPW40718   1.400   6.427   4.134
10000WAT      O40719   1.203   6.471   4.328
10000WAT     H140720   1.224   6.524   4.394
10000WAT     H240721   1.280   6.454   4.290
10000WAT    EPW40722   1.217   6.476   4.332
10001WAT      O40723   0.500   4.929   4.887
10001WAT     H140724   0.448   4.867   4.857
10001WAT     H240725   0.559   4.886   4.935
10001WAT    EPW40726   0.501   4.914   4.890
10002WAT      O40727   0.830   5.143   5.817
10002WAT     H140728   0.842   5.097   5.744
10002WAT     H240729   0.859   5.222   5.797
10002WAT    EPW40730   0.836   5.148   5.803
10003WAT      O40731   0.342   6.286   4.421
10003WAT     H140732   0.408   6.228   4.423
10003WAT     H240733   0.381   6.361   4.399
10003WAT    EPW40734   0.358   6.288   4.418
10004WAT      O40735   1.916   5.195   4.548
10004WAT     H140736   1.881   5.263   4.590
10004WAT     H240737   1.852   5.135   4.549
10004WAT    EPW40738   1.901   5.196   4.554
10005WAT      O40739   1.447   6.472   5.158
10005WAT     H140740   1.521   6.518   5.157
10005WAT     H240741   1.435   6.451   5.074
10005WAT    EPW40742   1.456   6.476   5.146
10006WAT      O40743   0.404   5.102   5.716
10006WAT     H140744   0.326   5.063   5.708
10006WAT     H240745   0.453   5.061   5.657
10006WAT    EPW40746   0.399   5.090   5.706
10007WAT      O40747   0.424   6.134   4.771
10007WAT     H140748   0.466   6.099   4.704
10007WAT     H240749   0.457   6.092   4.841
10007WAT    EPW40750   0.435   6.123   4.772
10008WAT      O40751   0.747   6.420   4.701
10008WAT     H140752   0.832   6.430   4.682
10008WAT     H240753   0.718   6.501   4.708
10008WAT    EPW40754   0.755   6.433   4.699
10009WAT      O40755   1.069   4.867   5.632
10009WAT     H140756   1.086   4.786   5.605
10009WAT     H240757   1.054   4.911   5.559
10009WAT    EPW40758   1.069   4.861   5.617
10010WAT      O40759   1.128   5.359   4.510
10010WAT     H140760   1.157   5.336   4.431
10010WAT     H240761   1.201   5.367   4.557
10010WAT    EPW40762   1.143   5.357   4.505
10011WAT      O40763   1.200   5.393   4.022
10011WAT     H140764   1.228   5.472   4.047
10011WAT     H240765   1.123   5.410   3.986
10011WAT    EPW40766   1.193   5.407   4.020
10012WAT      O40767   1.604   6.591   4.169
10012WAT     H140768   1.671   6.576   4.114
10012WAT     H240769   1.640   6.582   4.248
10012WAT    EPW40770   1.619   6.587   4.172
10013WAT      O40771   0.647   6.541   5.275
10013WAT     H140772   0.676   6.535   5.357
10013WAT     H240773   0.584   6.481   5.271
10013WAT    EPW40774   0.642   6.532   5.287
10014WAT      O40775   1.883   5.027   5.085
10014WAT     H140776   1.959   5.035   5.042
10014WAT     H240777   1.889   4.950   5.124
10014WAT    EPW40778   1.895   5.017   5.084
10015WAT      O40779   1.372   6.191   5.528
10015WAT     H140780   1.369   6.229   5.607
10015WAT     H240781   1.458   6.186   5.511
10015WAT    EPW40782   1.384   6.196   5.538
10016WAT      O40783   1.086   6.210   4.003
10016WAT     H140784   1.068   6.265   4.069
10016WAT     H240785   1.163   6.239   3.973
10016WAT    EPW40786   1.095   6.223   4.009
10017WAT      O40787   1.437   5.000   4.109
10017WAT     H140788   1.491   4.932   4.116
10017WAT     H240789   1.443   5.040   4.186
10017WAT    EPW40790   1.446   4.996   4.121
10018WAT      O40791   0.232   5.117   4.366
10018WAT     H140792   0.221   5.030   4.369
10018WAT     H240793   0.185   5.146   4.433
10018WAT    EPW40794   0.223   5.108   4.376
10019WAT      O40795   0.446   6.358   5.187
10019WAT     H140796   0.377   6.307   5.200
10019WAT     H240797   0.472   6.337   5.106
10019WAT    EPW40798   0.440   6.347   5.177
10020WAT      O40799   1.163   5.237   4.240
10020WAT     H140800   1.112   5.171   4.215
10020WAT     H240801   1.168   5.288   4.169
10020WAT    EPW40802   1.156   5.235   4.226
10021WAT      O40803   1.217   6.507   5.278
10021WAT     H140804   1.294   6.499   5.238
10021WAT     H240805   1.159   6.495   5.214
10021WAT    EPW40806   1.220   6.504   5.263
10022WAT      O40807   1.163   4.932   4.229
10022WAT     H140808   1.117   4.891   4.167
10022WAT     H240809   1.240   4.947   4.192
10022WAT    EPW40810   1.167   4.928   4.215
10023WAT      O40811   1.845   6.567   4.568
10023WAT     H140812   1.800   6.639   4.588
10023WAT     H240813   1.784   6.510   4.544
10023WAT    EPW40814   1.829   6.569   4.568
10024WAT      O40815   1.022   5.168   4.682
10024WAT     H140816   1.030   5.225   4.616
10024WAT     H240817   1.034   5.217   4.753
10024WAT    EPW40818   1.025   5.184   4.682
10025WAT      O40819   1.545   6.152   4.523
10025WAT     H140820   1.615   6.104   4.542
10025WAT     H240821   1.479   6.095   4.527
10025WAT    EPW40822   1.545   6.136   4.526
10026WAT      O40823   0.582   6.243   5.444
10026WAT     H140824   0.667   6.249   5.422
10026WAT     H240825   0.579   6.282   5.522
10026WAT    EPW40826   0.594   6.250   5.452
10027WAT      O40827   0.483   4.751   4.516
10027WAT     H140828   0.537   4.819   4.515
10027WAT     H240829   0.483   4.723   4.434
10027WAT    EPW40830   0.491   4.757   4.504
10028WAT      O40831   0.779   5.794   4.919
10028WAT     H140832   0.796   5.773   5.002
10028WAT     H240833   0.713   5.740   4.897
10028WAT    EPW40834   0.772   5.783   4.928
10029WAT      O40835   1.402   5.185   5.270
10029WAT     H140836   1.392   5.217   5.351
10029WAT     H240837   1.342   5.121   5.267
10029WAT    EPW40838   1.391   5.180   5.282
10030WAT      O40839   0.854   5.788   5.178
10030WAT     H140840   0.859   5.872   5.198
10030WAT     H240841   0.825   5.751   5.252
10030WAT    EPW40842   0.850   5.795   5.192
10031WAT      O40843   1.471   5.857   5.091
10031WAT     H140844   1.420   5.816   5.148
10031WAT     H240845   1.459   5.942   5.109
10031WAT    EPW40846   1.462   5.864   5.102
10032WAT      O40847   1.527   4.780   4.554
10032WAT     H140848   1.532   4.748   4.635
10032WAT     H240849   1.559   4.715   4.505
10032WAT    EPW40850   1.533   4.765   4.559
10033WAT      O40851   1.774   5.203   5.385
10033WAT     H140852   1.851   5.181   5.418
10033WAT     H240853   1.726   5.225   5.455
10033WAT    EPW40854   1.778   5.203   5.400
10034WAT      O40855   0.528   5.132   4.682
10034WAT     H140856   0.555   5.089   4.611
10034WAT     H240857   0.510   5.068   4.739
10034WAT    EPW40858   0.529   5.116   4.680
10035WAT      O40859   1.797   5.901   4.104
10035WAT     H140860   1.809   5.872   4.185
10035WAT     H240861   1.877   5.903   4.071
10035WAT    EPW40862   1.810   5.897   4.111
10036WAT      O40863   0.510   5.874   4.637
10036WAT     H140864   0.595   5.866   4.619
10036WAT     H240865   0.475   5.806   4.595
10036WAT    EPW40866   0.518   5.863   4.628
10037WAT      O40867   0.387   6.547   4.760
10037WAT     H140868   0.320   6.497   4.736
10037WAT     H240869   0.427   6.565   4.685
10037WAT    EPW40870   0.383   6.542   4.746
10038WAT      O40871   0.342   5.242   4.990
10038WAT     H140872   0.426   5.264   4.986
10038WAT     H240873   0.303   5.299   4.937
10038WAT    EPW40874   0.349   5.253   4.981
10039WAT      O40875   2.020   6.352   5.529
10039WAT     H140876   1.952   6.383   5.484
10039WAT     H240877   1.983   6.306   5.593
10039WAT    EPW40878   2.005   6.350   5.532
10040WAT      O40879   1.586   5.555   4.062
10040WAT     H140880   1.564   5.628   4.020
10040WAT     H240881   1.541   5.560   4.137
10040WAT    EPW40882   1.576   5.566   4.067
10041WAT      O40883   0.747   5.875   4.460
10041WAT     H140884   0.818   5.924   4.469
10041WAT     H240885   0.769   5.818   4.398
10041WAT    EPW40886   0.761   5.874   4.452
10042WAT      O40887   2.005   5.041   4.007
10042WAT     H140888   1.939   4.984   4.010
10042WAT     H240889   1.986   5.092   3.939
10042WAT    EPW40890   1.992   5.040   3.998
10043WAT      O40891   0.927   5.410   5.802
10043WAT     H140892   0.879   5.468   5.846
10043WAT     H240893   0.925   5.440   5.720
10043WAT    EPW40894   0.920   5.423   5.796
10044WAT      O40895   2.037   5.479   5.263
10044WAT     H140896   2.059   5.399   5.235
10044WAT     H240897   1.952   5.485   5.244
10044WAT    EPW40898   2.028   5.468   5.256
10045WAT      O40899   1.805   4.997   4.235
10045WAT     H140900   1.880   4.956   4.255
10045WAT     H240901   1.831   5.068   4.193
10045WAT    EPW40902   1.820   5.001   4.232
10046WAT      O40903   1.199   6.245   4.693
10046WAT     H140904   1.147   6.309   4.664
10046WAT     H240905   1.230   6.209   4.620
10046WAT    EPW40906   1.196   6.249   4.678
10047WAT      O40907   0.607   6.024   4.969
10047WAT     H140908   0.654   6.053   5.037
10047WAT     H240909   0.664   5.976   4.923
10047WAT    EPW40910   0.622   6.021   4.972
10048WAT      O40911   1.451   5.225   4.743
10048WAT     H140912   1.485   5.241   4.821
10048WAT     H240913   1.405   5.152   4.754
10048WAT    EPW40914   1.449   5.217   4.756
10049WAT      O40915   0.264   5.791   4.823
10049WAT     H140916   0.307   5.778   4.749
10049WAT     H240917   0.243   5.876   4.821
10049WAT    EPW40918   0.267   5.802   4.812
10050WAT      O40919   0.898   5.147   4.188
10050WAT     H140920   0.898   5.136   4.102
10050WAT     H240921   0.880   5.232   4.197
10050WAT    EPW40922   0.895   5.158   4.177
10051WAT      O40923   1.804   6.390   5.338
10051WAT     H140924   1.736   6.442   5.360
10051WAT     H240925   1.810   6.400   5.252
10051WAT    EPW40926   1.795   6.399   5.328
10052WAT      O40927   0.672   6.143   4.651
10052WAT     H140928   0.685   6.227   4.670
10052WAT     H240929   0.739   6.103   4.691
10052WAT    EPW40930   0.684   6.149   4.660
10053WAT      O40931   0.485   5.491   5.638
10053WAT     H140932   0.431   5.440   5.684
10053WAT     H240933   0.487   5.452   5.560
10053WAT    EPW40934   0.477   5.478   5.633
10054WAT      O40935   0.533   5.431   4.152
10054WAT     H140936   0.521   5.386   4.225
10054WAT     H240937   0.475   5.396   4.096
10054WAT    EPW40938   0.523   5.419   4.154
10055WAT      O40939   0.550   5.614   4.812
10055WAT     H140940   0.472   5.608   4.773
10055WAT     H240941   0.557   5.538   4.855
10055WAT    EPW40942   0.540   5.602   4.812
10056WAT      O40943   0.593   5.587   5.158
10056WAT     H140944   0.596   5.520   5.103
10056WAT     H240945   0.529   5.637   5.127
10056WAT    EPW40946   0.584   5.585   5.146
10057WAT      O40947   1.583   5.359   4.998
10057WAT     H140948   1.516   5.391   5.044
10057WAT     H240949   1.601   5.422   4.941
10057WAT    EPW40950   1.576   5.373   4.996
10058WAT      O40951   1.003   6.465   5.098
10058WAT     H140952   0.975   6.401   5.045
10058WAT     H240953   0.982   6.538   5.054
10058WAT    EPW40954   0.996   6.466   5.083
10059WAT      O40955   1.247   4.949   5.341
10059WAT     H140956   1.262   4.867   5.317
10059WAT     H240957   1.285   4.955   5.419
10059WAT    EPW40958   1.255   4.938   5.349
10060WAT      O40959   1.402   5.156   4.349
10060WAT     H140960   1.451   5.227   4.341
10060WAT     H240961   1.323   5.182   4.323
10060WAT    EPW40962   1.398   5.170   4.344
10061WAT      O40963   0.373   5.723   5.714
10061WAT     H140964   0.369   5.773   5.643
10061WAT     H240965   0.406   5.648   5.685
10061WAT    EPW40966   0.377   5.719   5.699
10062WAT      O40967   1.533   5.943   5.540
10062WAT     H140968   1.582   6.015   5.550
10062WAT     H240969   1.573   5.901   5.475
10062WAT    EPW40970   1.546   5.948   5.532
10063WAT      O40971   0.963   6.228   5.658
10063WAT     H140972   0.998   6.210   5.735
10063WAT     H240973   0.919   6.155   5.638
10063WAT    EPW40974   0.962   6.214   5.666
10064WAT      O40975   1.060   5.303   4.922
10064WAT     H140976   1.108   5.372   4.942
10064WAT     H240977   1.097   5.238   4.967
10064WAT    EPW40978   1.073   5.303   4.931
10065WAT      O40979   1.279   5.619   4.149
10065WAT     H140980   1.278   5.692   4.100
10065WAT     H240981   1.215   5.633   4.207
10065WAT    EPW40982   1.270   5.632   4.150
10066WAT      O40983   1.776   6.006   4.547
10066WAT     H140984   1.812   5.971   4.619
10066WAT     H240985   1.775   5.940   4.490
10066WAT    EPW40986   1.781   5.991   4.549
10067WAT      O40987   1.381   6.313   4.931
10067WAT     H140988   1.320   6.283   4.876
10067WAT     H240989   1.435   6.358   4.881
10067WAT    EPW40990   1.380   6.315   4.916
10068WAT      O40991   1.382   5.998   4.871
10068WAT     H140992   1.302   6.021   4.899
10068WAT     H240993   1.408   5.939   4.930
10068WAT    EPW40994   1.374   5.993   4.884
10069WAT      O40995   0.771   6.479   4.316
10069WAT     H140996   0.757   6.402   4.353
10069WAT     H240997   0.840   6.465   4.265
10069WAT    EPW40998   0.779   6.466   4.314
10070WAT      O40999   0.738   4.854   4.115
10070WAT     H141000   0.748   4.843   4.201
10070WAT     H241001   0.668   4.904   4.109
10070WAT    EPW41002   0.729   4.860   4.127
10071WAT      O41003   1.000   6.431   4.156
10071WAT     H141004   1.063   6.447   4.215
10071WAT     H241005   1.004   6.500   4.103
10071WAT    EPW41006   1.010   6.444   4.157
10072WAT      O41007   1.708   5.798   5.356
10072WAT     H141008   1.714   5.810   5.270
10072WAT     H241009   1.783   5.830   5.386
10072WAT    EPW41010   1.720   5.804   5.348
10073WAT      O41011   1.327   6.333   5.784
10073WAT     H141012   1.344   6.361   5.865
10073WAT     H241013   1.353   6.399   5.733
10073WAT    EPW41014   1.333   6.347   5.788
10074WAT      O41015   1.811   4.828   5.655
10074WAT     H141016   1.748   4.788   5.611
10074WAT     H241017   1.814   4.785   5.731
10074WAT    EPW41018   1.802   4.816   5.659
10075WAT      O41019   0.451   5.684   4.239
10075WAT     H141020   0.483   5.606   4.217
10075WAT     H241021   0.515   5.721   4.285
10075WAT    EPW41022   0.465   5.678   4.243
10076WAT      O41023   1.281   5.779   5.316
10076WAT     H141024   1.266   5.840   5.376
10076WAT     H241025   1.335   5.723   5.357
10076WAT    EPW41026   1.287   5.779   5.331
10077WAT      O41027   1.120   5.619   4.382
10077WAT     H141028   1.125   5.684   4.440
10077WAT     H241029   1.101   5.549   4.431
10077WAT    EPW41030   1.118   5.618   4.398
10078WAT      O41031   1.642   6.051   4.969
10078WAT     H141032   1.594   6.081   4.902
10078WAT     H241033   1.607   5.974   4.987
10078WAT    EPW41034   1.630   6.044   4.962
10079WAT      O41035   0.569   5.070   4.033
10079WAT     H141036   0.518   5.076   3.962
10079WAT     H241037   0.648   5.094   4.003
10079WAT    EPW41038   0.573   5.075   4.018
10080WAT      O41039   1.042   5.823   4.825
10080WAT     H141040   0.957   5.804   4.833
10080WAT     H241041   1.074   5.807   4.904
10080WAT    EPW41042   1.034   5.818   4.838
10081WAT      O41043   0.717   6.496   3.914
10081WAT     H141044   0.761   6.427   3.942
10081WAT     H241045   0.738   6.559   3.971
10081WAT    EPW41046   0.727   6.495   3.926
10082WAT      O41047   0.427   5.793   5.057
10082WAT     H141048   0.499   5.841   5.053
10082WAT     H241049   0.400   5.790   4.974
10082WAT    EPW41050   0.433   5.799   5.044
10083WAT      O41051   0.750   5.310   4.730
10083WAT     H141052   0.834   5.291   4.740
10083WAT     H241053   0.713   5.232   4.716
10083WAT    EPW41054   0.757   5.295   4.729
10084WAT      O41055   2.011   6.468   4.163
10084WAT     H141056   2.081   6.421   4.138
10084WAT     H241057   1.957   6.408   4.196
10084WAT    EPW41058   2.014   6.452   4.164
10085WAT      O41059   0.232   5.443   4.396
10085WAT     H141060   0.281   5.414   4.462
10085WAT     H241061   0.245   5.384   4.333
10085WAT    EPW41062   0.241   5.430   4.396
10086WAT      O41063   1.735   5.746   5.081
10086WAT     H141064   1.735   5.668   5.120
10086WAT     H241065   1.651   5.769   5.080
10086WAT    EPW41066   1.723   5.738   5.086
10087WAT      O41067   0.684   5.587   3.944
10087WAT     H141068   0.623   5.546   3.992
10087WAT     H241069   0.646   5.599   3.867
10087WAT    EPW41070   0.670   5.583   3.940
10088WAT      O41071   0.366   5.898   5.484
10088WAT     H141072   0.324   5.846   5.428
10088WAT     H241073   0.331   5.976   5.470
10088WAT    EPW41074   0.355   5.902   5.474
10089WAT      O41075   1.861   5.753   4.824
10089WAT     H141076   1.832   5.793   4.896
10089WAT     H241077   1.947   5.747   4.837
10089WAT    EPW41078   1.869   5.758   4.837
10090WAT      O41079   0.830   5.433   4.215
10090WAT     H141080   0.857   5.516   4.222
10090WAT     H241081   0.743   5.440   4.206
10090WAT    EPW41082   0.821   5.446   4.215
10091WAT      O41083   1.627   5.145   5.678
10091WAT     H141084   1.575   5.191   5.731
10091WAT     H241085   1.591   5.066   5.678
10091WAT    EPW41086   1.614   5.140   5.686
10092WAT      O41087   0.178   5.030   4.869
10092WAT     H141088   0.182   5.064   4.789
10092WAT     H241089   0.253   5.054   4.905
10092WAT    EPW41090   0.190   5.039   4.862
10093WAT      O41091   1.974   6.316   4.877
10093WAT     H141092   2.003   6.342   4.799
10093WAT     H241093   2.043   6.326   4.929
10093WAT    EPW41094   1.989   6.321   4.873
10094WAT      O41095   1.476   5.502   5.686
10094WAT     H141096   1.484   5.512   5.772
10094WAT     H241097   1.413   5.558   5.664
10094WAT    EPW41098   1.468   5.512   5.695
10095WAT      O41099   1.703   5.534   5.522
10095WAT     H141100   1.735   5.613   5.543
10095WAT     H241101   1.666   5.507   5.597
10095WAT    EPW41102   1.702   5.542   5.536
10096WAT      O41103   1.634   6.176   4.075
10096WAT     H141104   1.668   6.096   4.079
10096WAT     H241105   1.559   6.169   4.118
10096WAT    EPW41106   1.628   6.163   4.082
10097WAT      O41107   1.683   5.360   4.641
10097WAT     H141108   1.608   5.327   4.673
10097WAT     H241109   1.683   5.442   4.669
10097WAT    EPW41110   1.672   5.367   4.650
10098WAT      O41111   1.973   5.588   5.796
10098WAT     H141112   1.968   5.554   5.716
10098WAT     H241113   2.047   5.635   5.794
10098WAT    EPW41114   1.983   5.590   5.784
10099WAT      O41115   1.927   5.956   5.417
10099WAT     H141116   1.989   5.901   5.391
10099WAT     H241117   1.921   6.012   5.350
10099WAT    EPW41118   1.935   5.956   5.403
10100WAT      O41119   1.372   5.964   4.016
10100WAT     H141120   1.440   5.912   3.999
10100WAT     H241121   1.330   5.968   3.939
10100WAT    EPW41122   1.376   5.957   4.002
10101WAT      O41123   0.840   6.079   5.146
10101WAT     H141124   0.810   6.138   5.203
10101WAT     H241125   0.846   6.123   5.071
10101WAT    EPW41126   0.836   6.094   5.143
10102WAT      O41127   0.638   5.974   5.486
10102WAT     H141128   0.557   5.945   5.503
10102WAT     H241129   0.629   6.061   5.487
10102WAT    EPW41130   0.625   5.982   5.488
10103WAT      O41131   1.574   4.993   5.387
10103WAT     H141132   1.648   5.038   5.381
10103WAT     H241133   1.517   5.040   5.341
10103WAT    EPW41134   1.577   5.006   5.380
10104WAT      O41135   1.092   5.721   5.095
10104WAT     H141136   1.139   5.759   5.158
10104WAT     H241137   1.009   5.735   5.121
10104WAT    EPW41138   1.087   5.729   5.108
10105WAT      O41139   0.763   5.281   5.369
10105WAT     H141140   0.779   5.207   5.412
10105WAT     H241141   0.758   5.257   5.286
10105WAT    EPW41142   0.764   5.267   5.363
10106WAT      O41143   1.018   6.460   4.618
10106WAT     H141144   1.073   6.528   4.623
10106WAT     H241145   0.983   6.469   4.539
10106WAT    EPW41146   1.021   6.472   4.607
10107WAT      O41147   1.702   4.791   5.154
10107WAT     H141148   1.674   4.873   5.150
10107WAT     H241149   1.774   4.796   5.204
10107WAT    EPW41150   1.709   4.804   5.161
10108WAT      O41151   0.938   4.862   5.357
10108WAT     H141152   1.008   4.894   5.317
10108WAT     H241153   0.962   4.782   5.380
10108WAT    EPW41154   0.952   4.855   5.355
10109WAT      O41155   0.836   6.283   4.957
10109WAT     H141156   0.774   6.341   4.939
10109WAT     H241157   0.861   6.255   4.878
10109WAT    EPW41158   0.831   6.288   4.943
10110WAT      O41159   1.267   5.947   5.656
10110WAT     H141160   1.343   5.975   5.623
10110WAT     H241161   1.213   5.952   5.588
10110WAT    EPW41162   1.270   5.952   5.641
10111WAT      O41163   1.658   6.202   5.506
10111WAT     H141164   1.693   6.229   5.582
10111WAT     H241165   1.688   6.260   5.448
10111WAT    EPW41166   1.668   6.214   5.509
10112WAT      O41167   1.844   5.416   4.040
10112WAT     H141168   1.882   5.484   4.000
10112WAT     H241169   1.760   5.439   4.043
10112WAT    EPW41170   1.838   5.430   4.035
10113WAT      O41171   0.996   5.761   3.948
10113WAT     H141172   0.915   5.743   3.920
10113WAT     H241173   0.992   5.846   3.968
10113WAT    EPW41174   0.983   5.771   3.947
10114WAT      O41175   0.589   5.368   4.963
10114WAT     H141176   0.633   5.357   4.889
10114WAT     H241177   0.643   5.336   5.024
10114WAT    EPW41178   0.603   5.361   4.961
10115WAT      O41179   1.390   5.278   5.523
10115WAT     H141180   1.326   5.325   5.557
10115WAT     H241181   1.447   5.269   5.589
10115WAT    EPW41182   1.389   5.283   5.538
10116WAT      O41183   1.359   5.431   5.152
10116WAT     H141184   1.389   5.473   5.223
10116WAT     H241185   1.363   5.347   5.176
10116WAT    EPW41186   1.364   5.425   5.166
10117WAT      O41187   1.102   6.448   5.545
10117WAT     H141188   1.149   6.388   5.503
10117WAT     H241189   1.067   6.404   5.611
10117WAT    EPW41190   1.104   6.433   5.549
10118WAT      O41191   1.614   5.376   4.378
10118WAT     H141192   1.635   5.356   4.460
10118WAT     H241193   1.690   5.403   4.343
10118WAT    EPW41194   1.628   5.377   4.385
10119WAT      O41195   0.943   4.866   4.968
10119WAT     H141196   0.861   4.851   4.992
10119WAT     H241197   0.939   4.870   4.881
10119WAT    EPW41198   0.931   4.864   4.959
10120WAT      O41199   1.716   4.984   4.525
10120WAT     H141200   1.645   4.937   4.542
10120WAT     H241201   1.700   5.019   4.446
10120WAT    EPW41202   1.703   4.983   4.516
10121WAT      O41203   1.760   5.779   4.363
10121WAT     H141204   1.808   5.706   4.358
10121WAT     H241205   1.678   5.750   4.355
10121WAT    EPW41206   1.755   5.764   4.361
10122WAT      O41207   1.108   5.970   5.447
10122WAT     H141208   1.028   5.964   5.482
10122WAT     H241209   1.115   6.055   5.427
10122WAT    EPW41210   1.097   5.982   5.449
10123WAT      O41211   0.691   6.591   4.979
10123WAT     H141212   0.692   6.597   5.066
10123WAT     H241213   0.648   6.516   4.964
10123WAT    EPW41214   0.684   6.581   4.989
10124WAT      O41215   0.506   5.180   4.294
10124WAT     H141216   0.519   5.147   4.214
10124WAT     H241217   0.425   5.155   4.314
10124WAT    EPW41218   0.496   5.172   4.285
10125WAT      O41219   1.382   5.896   4.599
10125WAT     H141220   1.390   5.930   4.678
10125WAT     H241221   1.399   5.811   4.611
10125WAT    EPW41222   1.386   5.888   4.612
10126WAT      O41223   1.134   5.823   4.555
10126WAT     H141224   1.104   5.791   4.631
10126WAT     H241225   1.204   5.870   4.579
10126WAT    EPW41226   1.140   5.825   4.570
10127WAT      O41227   1.156   6.235   5.358
10127WAT     H141228   1.225   6.223   5.410
10127WAT     H241229   1.170   6.314   5.323
10127WAT    EPW41230   1.169   6.245   5.360
10128WAT      O41231   1.974   5.496   5.539
10128WAT     H141232   1.889   5.483   5.551
10128WAT     H241233   1.989   5.456   5.463
10128WAT    EPW41234   1.964   5.488   5.529
10129WAT      O41235   1.425   5.562   5.396
10129WAT     H141236   1.400   5.490   5.439
10129WAT     H241237   1.507   5.574   5.423
10129WAT    EPW41238   1.434   5.553   5.407
10130WAT      O41239   0.367   6.541   5.523
10130WAT     H141240   0.302   6.484   5.533
10130WAT     H241241   0.329   6.618   5.538
10130WAT    EPW41242   0.352   6.544   5.527
10131WAT      O41243   1.219   5.681   5.715
10131WAT     H141244   1.251   5.750   5.672
10131WAT     H241245   1.148   5.713   5.755
10131WAT    EPW41246   1.213   5.696   5.715
10132WAT      O41247   1.527   6.519   4.808
10132WAT     H141248   1.482   6.583   4.846
10132WAT     H241249   1.598   6.511   4.859
10132WAT    EPW41250   1.531   6.527   4.821
10133WAT      O41251   1.197   6.028   5.101
10133WAT     H141252   1.128   6.068   5.135
10133WAT     H241253   1.265   6.071   5.135
10133WAT    EPW41254   1.197   6.040   5.111
10134WAT      O41255   1.735   6.287   5.759
10134WAT     H141256   1.813   6.248   5.767
10134WAT     H241257   1.688   6.253   5.825
10134WAT    EPW41258   1.739   6.276   5.770
10135WAT      O41259   0.504   5.381   5.336
10135WAT     H141260   0.542   5.443   5.287
10135WAT     H241261   0.571   5.334   5.364
10135WAT    EPW41262   0.520   5.384   5.333
10136WAT      O41263   0.282   5.226   5.263
10136WAT     H141264   0.289   5.209   5.178
10136WAT     H241265   0.356   5.267   5.283
10136WAT    EPW41266   0.294   5.230   5.254
10137WAT      O41267   1.837   5.490   4.307
10137WAT     H141268   1.848   5.484   4.221
10137WAT     H241269   1.912   5.457   4.339
10137WAT    EPW41270   1.850   5.484   4.299
10138WAT      O41271   0.537   4.967   5.504
10138WAT     H141272   0.529   4.883   5.525
10138WAT     H241273   0.506   4.972   5.423
10138WAT    EPW41274   0.531   4.955   5.495
10139WAT      O41275   1.229   6.187   4.418
10139WAT     H141276   1.209   6.270   4.402
10139WAT     H241277   1.152   6.148   4.430
10139WAT    EPW41278   1.215   6.193   4.417
10140WAT      O41279   1.748   5.505   5.243
10140WAT     H141280   1.747   5.418   5.255
10140WAT     H241281   1.754   5.537   5.324
10140WAT    EPW41282   1.749   5.497   5.257
10141WAT      O41283   0.221   5.749   5.286
10141WAT     H141284   0.253   5.771   5.208
10141WAT     H241285   0.211   5.662   5.280
10141WAT    EPW41286   0.224   5.739   5.273
10142WAT      O41287   0.367   5.342   3.947
10142WAT     H141288   0.300   5.344   4.003
10142WAT     H241289   0.376   5.258   3.929
10142WAT    EPW41290   0.358   5.330   3.953
10143WAT      O41291   1.336   4.985   5.621
10143WAT     H141292   1.345   5.056   5.670
10143WAT     H241293   1.272   4.940   5.661
10143WAT    EPW41294   1.327   4.989   5.634
10144WAT      O41295   1.235   5.004   4.706
10144WAT     H141296   1.165   5.056   4.701
10144WAT     H241297   1.239   4.966   4.628
10144WAT    EPW41298   1.225   5.006   4.694
10145WAT      O41299   0.766   6.213   4.059
10145WAT     H141300   0.810   6.221   4.134
10145WAT     H241301   0.685   6.191   4.085
10145WAT    EPW41302   0.760   6.211   4.074
10146WAT      O41303   1.595   5.055   4.986
10146WAT     H141304   1.680   5.065   5.001
10146WAT     H241305   1.558   5.111   5.043
10146WAT    EPW41306   1.602   5.065   4.997
10147WAT      O41307   0.698   5.678   5.424
10147WAT     H141308   0.658   5.755   5.432
10147WAT     H241309   0.657   5.641   5.357
10147WAT    EPW41310   0.686   5.684   5.415
10148WAT      O41311   1.625   5.583   4.836
10148WAT     H141312   1.692   5.637   4.852
10148WAT     H241313   1.591   5.614   4.762
10148WAT    EPW41314   1.630   5.596   4.827
10149WAT      O41315   1.656   6.390   4.416
10149WAT     H141316   1.639   6.325   4.471
10149WAT     H241317   1.728   6.363   4.374
10149WAT    EPW41318   1.664   6.376   4.418
10150WAT      O41319   0.499   6.120   4.119
10150WAT     H141320   0.474   6.089   4.197
10150WAT     H241321   0.495   6.050   4.067
10150WAT    EPW41322   0.494   6.105   4.123
10151WAT      O41323   0.780   5.944   3.993
10151WAT     H141324   0.699   5.918   4.007
10151WAT     H241325   0.778   6.030   4.012
10151WAT    EPW41326   0.768   5.953   3.998
10152WAT      O41327   0.740   4.976   5.169
10152WAT     H141328   0.654   4.984   5.177
10152WAT     H241329   0.762   4.924   5.236
10152WAT    EPW41330   0.731   4.969   5.180
10153WAT      O41331   1.942   4.839   5.302
10153WAT     H141332   1.937   4.835   5.389
10153WAT     H241333   2.011   4.789   5.283
10153WAT    EPW41334   1.952   4.831   5.312
10154WAT      O41335   1.151   5.050   5.007
10154WAT     H141336   1.077   5.005   5.018
10154WAT     H241337   1.208   5.010   5.059
10154WAT    EPW41338   1.148   5.038   5.016
10155WAT      O41339   1.424   6.135   5.185
10155WAT     H141340   1.445   6.165   5.265
10155WAT     H241341   1.418   6.207   5.137
10155WAT    EPW41342   1.426   6.150   5.190
10156WAT      O41343   1.377   6.557   5.610
10156WAT     H141344   1.302   6.555   5.566
10156WAT     H241345   1.394   6.642   5.618
10156WAT    EPW41346   1.369   6.569   5.605
10157WAT      O41347   0.901   5.483   5.527
10157WAT     H141348   0.869   5.426   5.470
10157WAT     H241349   0.865   5.559   5.502
10157WAT    EPW41350   0.891   5.486   5.515
10158WAT      O41351   0.981   4.809   3.990
10158WAT     H141352   0.988   4.833   3.906
10158WAT     H241353   0.906   4.846   4.015
10158WAT    EPW41354   0.971   4.818   3.981
10159WAT      O41355   1.905   5.999   5.131
10159WAT     H141356   1.902   5.913   5.118
10159WAT     H241357   1.836   6.029   5.088
10159WAT    EPW41358   1.894   5.991   5.123
10160WAT      O41359   0.745   6.519   5.552
10160WAT     H141360   0.749   6.532   5.638
10160WAT     H241361   0.810   6.463   5.536
10160WAT    EPW41362   0.755   6.513   5.562
10161WAT      O41363   1.716   6.325   5.011
10161WAT     H141364   1.768   6.317   4.942
10161WAT     H241365   1.677   6.247   5.016
10161WAT    EPW41366   1.718   6.312   5.001
10162WAT      O41367   0.462   4.984   5.234
10162WAT     H141368   0.428   4.907   5.211
10162WAT     H241369   0.393   5.036   5.240
10162WAT    EPW41370   0.447   4.980   5.231
10163WAT      O41371   1.367   4.870   4.932
10163WAT     H141372   1.434   4.924   4.944
10163WAT     H241373   1.317   4.912   4.874
10163WAT    EPW41374   1.370   4.884   4.925
10164WAT      O41375   0.504   6.357   5.688
10164WAT     H141376   0.563   6.400   5.735
10164WAT     H241377   0.467   6.420   5.639
10164WAT    EPW41378   0.507   6.373   5.687
10165WAT      O41379   1.303   5.450   4.681
10165WAT     H141380   1.358   5.390   4.711
10165WAT     H241381   1.260   5.477   4.752
10165WAT    EPW41382   1.305   5.445   4.696
10166WAT      O41383   0.328   5.315   4.630
10166WAT     H141384   0.291   5.346   4.703
10166WAT     H241385   0.381   5.252   4.658
10166WAT    EPW41386   0.330   5.311   4.645
10167WAT      O41387   0.297   6.156   5.381
10167WAT     H141388   0.239   6.198   5.432
10167WAT     H241389   0.370   6.203   5.390
10167WAT    EPW41390   0.299   6.169   5.390
10168WAT      O41391   1.500   5.633   4.337
10168WAT     H141392   1.507   5.548   4.355
10168WAT     H241393   1.418   5.642   4.309
10168WAT    EPW41394   1.489   5.622   4.336
10169WAT      O41395   0.475   6.483   4.258
10169WAT     H141396   0.461   6.498   4.174
10169WAT     H241397   0.562   6.491   4.266
10169WAT    EPW41398   0.486   6.486   4.247
10170WAT      O41399   0.892   5.723   4.231
10170WAT     H141400   0.902   5.736   4.145
10170WAT     H241401   0.974   5.717   4.261
10170WAT    EPW41402   0.905   5.724   4.223
10171WAT      O41403   1.808   6.529   3.979
10171WAT     H141404   1.872   6.516   4.037
10171WAT     H241405   1.774   6.450   3.967
10171WAT    EPW41406   1.812   6.515   3.986
10172WAT      O41407   1.827   5.771   5.652
10172WAT     H141408   1.891   5.754   5.710
10172WAT     H241409   1.869   5.811   5.587
10172WAT    EPW41410   1.843   5.774   5.651
10173WAT      O41411   1.415   6.155   4.211
10173WAT     H141412   1.390   6.143   4.294
10173WAT     H241413   1.384   6.086   4.169
10173WAT    EPW41414   1.407   6.143   4.217
10174WAT      O41415   1.890   5.227   5.726
10174WAT     H141416   1.870   5.292   5.782
10174WAT     H241417   1.818   5.178   5.725
10174WAT    EPW41418   1.876   5.229   5.734
10175WAT      O41419   1.880   5.321   5.023
10175WAT     H141420   1.796   5.346   5.016
10175WAT     H241421   1.874   5.237   5.046
10175WAT    EPW41422   1.867   5.313   5.025
10176WAT      O41423   0.806   5.020   5.543
10176WAT     H141424   0.829   4.962   5.481
10176WAT     H241425   0.722   5.002   5.557
10176WAT    EPW41426   0.797   5.009   5.536
10177WAT      O41427   1.568   5.782   5.788
10177WAT     H141428   1.656   5.778   5.784
10177WAT     H241429   1.547   5.824   5.715
10177WAT    EPW41430   1.578   5.787   5.776
10178WAT      O41431   0.544   6.364   4.906
10178WAT     H141432   0.536   6.283   4.874
10178WAT     H241433   0.499   6.413   4.849
10178WAT    EPW41434   0.536   6.360   4.893
10179WAT      O41435   1.104   5.976   4.154
10179WAT     H141436   1.176   5.942   4.119
10179WAT     H241437   1.101   6.056   4.119
10179WAT    EPW41438   1.114   5.983   4.144
10180WAT      O41439   0.301   6.589   5.264
10180WAT     H141440   0.350   6.583   5.336
10180WAT     H241441   0.320   6.515   5.220
10180WAT    EPW41442   0.311   6.577   5.268
10181WAT      O41443   1.245   4.840   2.578
10181WAT     H141444   1.220   4.889   2.510
10181WAT     H241445   1.331   4.833   2.568
10181WAT    EPW41446   1.254   4.846   2.567
10182WAT      O41447   1.226   5.532   3.045
10182WAT     H141448   1.173   5.592   3.081
10182WAT     H241449   1.265   5.495   3.114
10182WAT    EPW41450   1.224   5.535   3.061
10183WAT      O41451   1.840   6.276   2.342
10183WAT     H141452   1.910   6.224   2.342
10183WAT     H241453   1.781   6.232   2.295
10183WAT    EPW41454   1.842   6.262   2.335
10184WAT      O41455   0.501   5.851   2.109
10184WAT     H141456   0.462   5.814   2.040
10184WAT     H241457   0.493   5.792   2.172
10184WAT    EPW41458   0.494   5.837   2.108
10185WAT      O41459   1.493   5.639   2.713
10185WAT     H141460   1.501   5.639   2.626
10185WAT     H241461   1.434   5.575   2.728
10185WAT    EPW41462   1.485   5.629   2.702
10186WAT      O41463   0.464   6.016   2.499
10186WAT     H141464   0.524   5.999   2.559
10186WAT     H241465   0.388   6.002   2.541
10186WAT    EPW41466   0.461   6.011   2.514
10187WAT      O41467   0.892   4.949   2.494
10187WAT     H141468   0.885   5.017   2.439
10187WAT     H241469   0.966   4.910   2.469
10187WAT    EPW41470   0.902   4.953   2.482
10188WAT      O41471   0.353   6.325   2.106
10188WAT     H141472   0.399   6.333   2.033
10188WAT     H241473   0.398   6.267   2.153
10188WAT    EPW41474   0.366   6.317   2.102
10189WAT      O41475   0.864   5.972   3.723
10189WAT     H141476   0.840   5.972   3.807
10189WAT     H241477   0.789   5.957   3.681
10189WAT    EPW41478   0.849   5.970   3.729
10190WAT      O41479   0.351   5.672   2.636
10190WAT     H141480   0.305   5.632   2.574
10190WAT     H241481   0.421   5.620   2.646
10190WAT    EPW41482   0.355   5.658   2.629
10191WAT      O41483   0.802   5.233   3.171
10191WAT     H141484   0.870   5.234   3.116
10191WAT     H241485   0.798   5.149   3.196
10191WAT    EPW41486   0.811   5.220   3.167
10192WAT      O41487   0.862   6.291   3.449
10192WAT     H141488   0.876   6.367   3.409
10192WAT     H241489   0.941   6.255   3.452
10192WAT    EPW41490   0.876   6.297   3.444
10193WAT      O41491   0.551   5.482   2.639
10193WAT     H141492   0.633   5.463   2.663
10193WAT     H241493   0.504   5.420   2.678
10193WAT    EPW41494   0.556   5.470   2.648
10194WAT      O41495   0.972   6.080   2.900
10194WAT     H141496   1.007   6.000   2.903
10194WAT     H241497   1.038   6.130   2.874
10194WAT    EPW41498   0.987   6.075   2.896
10195WAT      O41499   0.977   6.025   2.521
10195WAT     H141500   1.011   5.960   2.569
10195WAT     H241501   1.001   6.003   2.440
10195WAT    EPW41502   0.986   6.012   2.516
10196WAT      O41503   1.174   5.438   3.655
10196WAT     H141504   1.089   5.428   3.637
10196WAT     H241505   1.177   5.512   3.700
10196WAT    EPW41506   1.162   5.447   3.659
10197WAT      O41507   0.611   4.991   2.565
10197WAT     H141508   0.581   5.041   2.500
10197WAT     H241509   0.698   4.999   2.560
10197WAT    EPW41510   0.619   5.000   2.555
10198WAT      O41511   1.630   4.734   3.566
10198WAT     H141512   1.614   4.811   3.528
10198WAT     H241513   1.553   4.712   3.601
10198WAT    EPW41514   1.616   4.742   3.566
10199WAT      O41515   0.909   4.905   2.788
10199WAT     H141516   0.916   4.991   2.801
10199WAT     H241517   0.905   4.898   2.701
10199WAT    EPW41518   0.909   4.917   2.777
10200WAT      O41519   1.376   5.198   2.018
10200WAT     H141520   1.331   5.266   2.048
10200WAT     H241521   1.388   5.147   2.088
10200WAT    EPW41522   1.371   5.200   2.032
10201WAT      O41523   0.772   6.203   2.476
10201WAT     H141524   0.714   6.176   2.535
10201WAT     H241525   0.834   6.142   2.478
10201WAT    EPW41526   0.773   6.190   2.485
10202WAT      O41527   1.386   6.432   2.228
10202WAT     H141528   1.459   6.479   2.238
10202WAT     H241529   1.409   6.352   2.256
10202WAT    EPW41530   1.400   6.427   2.234
10203WAT      O41531   1.203   6.471   2.427
10203WAT     H141532   1.224   6.524   2.493
10203WAT     H241533   1.280   6.454   2.389
10203WAT    EPW41534   1.217   6.476   2.431
10204WAT      O41535   0.500   4.929   2.987
10204WAT     H141536   0.448   4.867   2.956
10204WAT     H241537   0.559   4.886   3.034
10204WAT    EPW41538   0.501   4.914   2.989
10205WAT      O41539   0.830   5.143   3.917
10205WAT     H141540   0.842   5.097   3.843
10205WAT     H241541   0.859   5.222   3.896
10205WAT    EPW41542   0.836   5.148   3.903
10206WAT      O41543   0.342   6.286   2.521
10206WAT     H141544   0.408   6.228   2.522
10206WAT     H241545   0.381   6.361   2.499
10206WAT    EPW41546   0.358   6.288   2.518
10207WAT      O41547   1.916   5.195   2.647
10207WAT     H141548   1.881   5.263   2.690
10207WAT     H241549   1.852   5.135   2.649
10207WAT    EPW41550   1.901   5.196   2.654
10208WAT      O41551   1.447   6.472   3.257
10208WAT     H141552   1.521   6.518   3.256
10208WAT     H241553   1.435   6.451   3.174
10208WAT    EPW41554   1.456   6.476   3.245
10209WAT      O41555   0.404   5.102   3.815
10209WAT     H141556   0.326   5.063   3.808
10209WAT     H241557   0.453   5.061   3.756
10209WAT    EPW41558   0.399   5.090   3.805
10210WAT      O41559   0.424   6.134   2.871
10210WAT     H141560   0.466   6.099   2.803
10210WAT     H241561   0.457   6.092   2.940
10210WAT    EPW41562   0.435   6.123   2.871
10211WAT      O41563   0.747   6.420   2.800
10211WAT     H141564   0.832   6.430   2.781
10211WAT     H241565   0.718   6.501   2.807
10211WAT    EPW41566   0.755   6.433   2.799
10212WAT      O41567   1.069   4.867   3.732
10212WAT     H141568   1.086   4.786   3.704
10212WAT     H241569   1.054   4.911   3.658
10212WAT    EPW41570   1.069   4.861   3.717
10213WAT      O41571   1.128   5.359   2.609
10213WAT     H141572   1.157   5.336   2.530
10213WAT     H241573   1.201   5.367   2.656
10213WAT    EPW41574   1.143   5.357   2.604
10214WAT      O41575   1.200   5.393   2.121
10214WAT     H141576   1.228   5.472   2.146
10214WAT     H241577   1.123   5.410   2.085
10214WAT    EPW41578   1.193   5.407   2.120
10215WAT      O41579   1.604   6.591   2.268
10215WAT     H141580   1.671   6.576   2.213
10215WAT     H241581   1.640   6.582   2.347
10215WAT    EPW41582   1.619   6.587   2.272
10216WAT      O41583   0.647   6.541   3.374
10216WAT     H141584   0.676   6.535   3.456
10216WAT     H241585   0.584   6.481   3.370
10216WAT    EPW41586   0.642   6.532   3.386
10217WAT      O41587   1.883   5.027   3.184
10217WAT     H141588   1.959   5.035   3.141
10217WAT     H241589   1.889   4.950   3.224
10217WAT    EPW41590   1.895   5.017   3.183
10218WAT      O41591   1.372   6.191   3.628
10218WAT     H141592   1.369   6.229   3.706
10218WAT     H241593   1.458   6.186   3.611
10218WAT    EPW41594   1.384   6.196   3.637
10219WAT      O41595   1.086   6.210   2.103
10219WAT     H141596   1.068   6.265   2.169
10219WAT     H241597   1.163   6.239   2.073
10219WAT    EPW41598   1.095   6.223   2.108
10220WAT      O41599   1.437   5.000   2.208
10220WAT     H141600   1.491   4.932   2.216
10220WAT     H241601   1.443   5.040   2.286
10220WAT    EPW41602   1.446   4.996   2.221
10221WAT      O41603   0.232   5.117   2.465
10221WAT     H141604   0.221   5.030   2.468
10221WAT     H241605   0.185   5.146   2.532
10221WAT    EPW41606   0.223   5.108   2.475
10222WAT      O41607   0.446   6.358   3.287
10222WAT     H141608   0.377   6.307   3.299
10222WAT     H241609   0.472   6.337   3.206
10222WAT    EPW41610   0.440   6.347   3.277
10223WAT      O41611   1.163   5.237   2.340
10223WAT     H141612   1.112   5.171   2.314
10223WAT     H241613   1.168   5.288   2.269
10223WAT    EPW41614   1.156   5.235   2.325
10224WAT      O41615   1.217   6.507   3.378
10224WAT     H141616   1.294   6.499   3.337
10224WAT     H241617   1.159   6.495   3.314
10224WAT    EPW41618   1.220   6.504   3.362
10225WAT      O41619   1.163   4.932   2.329
10225WAT     H141620   1.117   4.891   2.266
10225WAT     H241621   1.240   4.947   2.291
10225WAT    EPW41622   1.167   4.928   2.314
10226WAT      O41623   1.845   6.567   2.668
10226WAT     H141624   1.800   6.639   2.688
10226WAT     H241625   1.784   6.510   2.644
10226WAT    EPW41626   1.829   6.569   2.667
10227WAT      O41627   1.022   5.168   2.781
10227WAT     H141628   1.030   5.225   2.715
10227WAT     H241629   1.034   5.217   2.852
10227WAT    EPW41630   1.025   5.184   2.782
10228WAT      O41631   1.545   6.152   2.622
10228WAT     H141632   1.615   6.104   2.641
10228WAT     H241633   1.479   6.095   2.627
10228WAT    EPW41634   1.545   6.136   2.626
10229WAT      O41635   0.582   6.243   3.543
10229WAT     H141636   0.667   6.249   3.521
10229WAT     H241637   0.579   6.282   3.621
10229WAT    EPW41638   0.594   6.250   3.552
10230WAT      O41639   0.483   4.751   2.616
10230WAT     H141640   0.537   4.819   2.615
10230WAT     H241641   0.483   4.723   2.533
10230WAT    EPW41642   0.491   4.757   2.603
10231WAT      O41643   0.779   5.794   3.018
10231WAT     H141644   0.796   5.773   3.101
10231WAT     H241645   0.713   5.740   2.997
10231WAT    EPW41646   0.772   5.783   3.027
10232WAT      O41647   1.402   5.185   3.370
10232WAT     H141648   1.392   5.217   3.450
10232WAT     H241649   1.342   5.121   3.366
10232WAT    EPW41650   1.391   5.180   3.381
10233WAT      O41651   0.854   5.788   3.277
10233WAT     H141652   0.859   5.872   3.297
10233WAT     H241653   0.825   5.751   3.351
10233WAT    EPW41654   0.850   5.795   3.291
10234WAT      O41655   1.471   5.857   3.190
10234WAT     H141656   1.420   5.816   3.247
10234WAT     H241657   1.459   5.942   3.208
10234WAT    EPW41658   1.462   5.864   3.201
10235WAT      O41659   1.527   4.780   2.653
10235WAT     H141660   1.532   4.748   2.734
10235WAT     H241661   1.559   4.715   2.604
10235WAT    EPW41662   1.533   4.765   2.658
10236WAT      O41663   1.774   5.203   3.484
10236WAT     H141664   1.851   5.181   3.518
10236WAT     H241665   1.726   5.225   3.554
10236WAT    EPW41666   1.778   5.203   3.499
10237WAT      O41667   0.528   5.132   2.781
10237WAT     H141668   0.555   5.089   2.710
10237WAT     H241669   0.510   5.068   2.838
10237WAT    EPW41670   0.529   5.116   2.779
10238WAT      O41671   1.797   5.901   2.203
10238WAT     H141672   1.809   5.872   2.284
10238WAT     H241673   1.877   5.903   2.170
10238WAT    EPW41674   1.810   5.897   2.210
10239WAT      O41675   0.510   5.874   2.736
10239WAT     H141676   0.595   5.866   2.719
10239WAT     H241677   0.475   5.806   2.695
10239WAT    EPW41678   0.518   5.863   2.727
10240WAT      O41679   0.387   6.547   2.860
10240WAT     H141680   0.320   6.497   2.835
10240WAT     H241681   0.427   6.565   2.785
10240WAT    EPW41682   0.383   6.542   2.845
10241WAT      O41683   0.342   5.242   3.089
10241WAT     H141684   0.426   5.264   3.085
10241WAT     H241685   0.303   5.299   3.036
10241WAT    EPW41686   0.349   5.253   3.081
10242WAT      O41687   2.020   6.352   3.628
10242WAT     H141688   1.952   6.383   3.584
10242WAT     H241689   1.983   6.306   3.693
10242WAT    EPW41690   2.005   6.350   3.631
10243WAT      O41691   1.586   5.555   2.161
10243WAT     H141692   1.564   5.628   2.119
10243WAT     H241693   1.541   5.560   2.236
10243WAT    EPW41694   1.576   5.566   2.166
10244WAT      O41695   0.747   5.875   2.560
10244WAT     H141696   0.818   5.924   2.569
10244WAT     H241697   0.769   5.818   2.497
10244WAT    EPW41698   0.761   5.874   2.552
10245WAT      O41699   2.005   5.041   2.107
10245WAT     H141700   1.939   4.984   2.109
10245WAT     H241701   1.986   5.092   2.039
10245WAT    EPW41702   1.992   5.040   2.097
10246WAT      O41703   0.927   5.410   3.901
10246WAT     H141704   0.879   5.468   3.945
10246WAT     H241705   0.925   5.440   3.819
10246WAT    EPW41706   0.920   5.423   3.896
10247WAT      O41707   2.037   5.479   3.362
10247WAT     H141708   2.059   5.399   3.335
10247WAT     H241709   1.952   5.485   3.343
10247WAT    EPW41710   2.028   5.468   3.355
10248WAT      O41711   1.805   4.997   2.335
10248WAT     H141712   1.880   4.956   2.355
10248WAT     H241713   1.831   5.068   2.292
10248WAT    EPW41714   1.820   5.001   2.331
10249WAT      O41715   1.199   6.245   2.792
10249WAT     H141716   1.147   6.309   2.763
10249WAT     H241717   1.230   6.209   2.719
10249WAT    EPW41718   1.196   6.249   2.777
10250WAT      O41719   0.607   6.024   3.068
10250WAT     H141720   0.654   6.053   3.136
10250WAT     H241721   0.664   5.976   3.023
10250WAT    EPW41722   0.622   6.021   3.072
10251WAT      O41723   1.451   5.225   2.842
10251WAT     H141724   1.485   5.241   2.921
10251WAT     H241725   1.405   5.152   2.853
10251WAT    EPW41726   1.449   5.217   2.855
10252WAT      O41727   0.264   5.791   2.923
10252WAT     H141728   0.307   5.778   2.848
10252WAT     H241729   0.243   5.876   2.920
10252WAT    EPW41730   0.267   5.802   2.911
10253WAT      O41731   0.898   5.147   2.288
10253WAT     H141732   0.898   5.136   2.201
10253WAT     H241733   0.880   5.232   2.297
10253WAT    EPW41734   0.895   5.158   2.276
10254WAT      O41735   1.804   6.390   3.437
10254WAT     H141736   1.736   6.442   3.459
10254WAT     H241737   1.810   6.400   3.351
10254WAT    EPW41738   1.795   6.399   3.428
10255WAT      O41739   0.672   6.143   2.751
10255WAT     H141740   0.685   6.227   2.770
10255WAT     H241741   0.739   6.103   2.790
10255WAT    EPW41742   0.684   6.149   2.759
10256WAT      O41743   0.485   5.491   3.737
10256WAT     H141744   0.431   5.440   3.784
10256WAT     H241745   0.487   5.452   3.659
10256WAT    EPW41746   0.477   5.478   3.732
10257WAT      O41747   0.533   5.431   2.251
10257WAT     H141748   0.521   5.386   2.325
10257WAT     H241749   0.475   5.396   2.196
10257WAT    EPW41750   0.523   5.419   2.254
10258WAT      O41751   0.550   5.614   2.911
10258WAT     H141752   0.472   5.608   2.873
10258WAT     H241753   0.557   5.538   2.955
10258WAT    EPW41754   0.540   5.602   2.912
10259WAT      O41755   0.593   5.587   3.258
10259WAT     H141756   0.596   5.520   3.203
10259WAT     H241757   0.529   5.637   3.227
10259WAT    EPW41758   0.584   5.585   3.245
10260WAT      O41759   1.583   5.359   3.097
10260WAT     H141760   1.516   5.391   3.144
10260WAT     H241761   1.601   5.422   3.040
10260WAT    EPW41762   1.576   5.373   3.096
10261WAT      O41763   1.003   6.465   3.197
10261WAT     H141764   0.975   6.401   3.145
10261WAT     H241765   0.982   6.538   3.153
10261WAT    EPW41766   0.996   6.466   3.183
10262WAT      O41767   1.247   4.949   3.440
10262WAT     H141768   1.262   4.867   3.416
10262WAT     H241769   1.285   4.955   3.519
10262WAT    EPW41770   1.255   4.938   3.448
10263WAT      O41771   1.402   5.156   2.448
10263WAT     H141772   1.451   5.227   2.441
10263WAT     H241773   1.323   5.182   2.422
10263WAT    EPW41774   1.398   5.170   2.443
10264WAT      O41775   0.373   5.723   3.814
10264WAT     H141776   0.369   5.773   3.742
10264WAT     H241777   0.406   5.648   3.784
10264WAT    EPW41778   0.377   5.719   3.799
10265WAT      O41779   1.533   5.943   3.639
10265WAT     H141780   1.582   6.015   3.649
10265WAT     H241781   1.573   5.901   3.574
10265WAT    EPW41782   1.546   5.948   3.631
10266WAT      O41783   0.963   6.228   3.757
10266WAT     H141784   0.998   6.210   3.835
10266WAT     H241785   0.919   6.155   3.737
10266WAT    EPW41786   0.962   6.214   3.766
10267WAT      O41787   1.060   5.303   3.021
10267WAT     H141788   1.108   5.372   3.042
10267WAT     H241789   1.097   5.238   3.066
10267WAT    EPW41790   1.073   5.303   3.031
10268WAT      O41791   1.279   5.619   2.248
10268WAT     H141792   1.278   5.692   2.199
10268WAT     H241793   1.215   5.633   2.306
10268WAT    EPW41794   1.270   5.632   2.250
10269WAT      O41795   1.776   6.006   2.646
10269WAT     H141796   1.812   5.971   2.718
10269WAT     H241797   1.775   5.940   2.589
10269WAT    EPW41798   1.781   5.991   2.649
10270WAT      O41799   1.381   6.313   3.031
10270WAT     H141800   1.320   6.283   2.975
10270WAT     H241801   1.435   6.358   2.980
10270WAT    EPW41802   1.380   6.315   3.015
10271WAT      O41803   1.382   5.998   2.971
10271WAT     H141804   1.302   6.021   2.998
10271WAT     H241805   1.408   5.939   3.029
10271WAT    EPW41806   1.374   5.993   2.984
10272WAT      O41807   0.771   6.479   2.416
10272WAT     H141808   0.757   6.402   2.453
10272WAT     H241809   0.840   6.465   2.364
10272WAT    EPW41810   0.779   6.466   2.414
10273WAT      O41811   0.738   4.854   2.214
10273WAT     H141812   0.748   4.843   2.301
10273WAT     H241813   0.668   4.904   2.208
10273WAT    EPW41814   0.729   4.860   2.226
10274WAT      O41815   1.000   6.431   2.256
10274WAT     H141816   1.063   6.447   2.315
10274WAT     H241817   1.004   6.500   2.203
10274WAT    EPW41818   1.010   6.444   2.257
10275WAT      O41819   1.708   5.798   3.455
10275WAT     H141820   1.714   5.810   3.369
10275WAT     H241821   1.783   5.830   3.486
10275WAT    EPW41822   1.720   5.804   3.447
10276WAT      O41823   1.327   6.333   3.883
10276WAT     H141824   1.344   6.361   3.964
10276WAT     H241825   1.353   6.399   3.833
10276WAT    EPW41826   1.333   6.347   3.888
10277WAT      O41827   1.811   4.828   3.754
10277WAT     H141828   1.748   4.788   3.710
10277WAT     H241829   1.814   4.785   3.830
10277WAT    EPW41830   1.802   4.816   3.759
10278WAT      O41831   0.451   5.684   2.339
10278WAT     H141832   0.483   5.606   2.317
10278WAT     H241833   0.515   5.721   2.384
10278WAT    EPW41834   0.465   5.678   2.342
10279WAT      O41835   1.281   5.779   3.415
10279WAT     H141836   1.266   5.840   3.476
10279WAT     H241837   1.335   5.723   3.456
10279WAT    EPW41838   1.287   5.779   3.430
10280WAT      O41839   1.120   5.619   2.481
10280WAT     H141840   1.125   5.684   2.539
10280WAT     H241841   1.101   5.549   2.530
10280WAT    EPW41842   1.118   5.618   2.497
10281WAT      O41843   1.642   6.051   3.068
10281WAT     H141844   1.594   6.081   3.002
10281WAT     H241845   1.607   5.974   3.086
10281WAT    EPW41846   1.630   6.044   3.061
10282WAT      O41847   0.569   5.070   2.132
10282WAT     H141848   0.518   5.076   2.062
10282WAT     H241849   0.648   5.094   2.103
10282WAT    EPW41850   0.573   5.075   2.118
10283WAT      O41851   1.042   5.823   2.924
10283WAT     H141852   0.957   5.804   2.932
10283WAT     H241853   1.074   5.807   3.004
10283WAT    EPW41854   1.034   5.818   2.937
10284WAT      O41855   0.717   6.496   2.013
10284WAT     H141856   0.761   6.427   2.042
10284WAT     H241857   0.738   6.559   2.070
10284WAT    EPW41858   0.727   6.495   2.026
10285WAT      O41859   0.427   5.793   3.156
10285WAT     H141860   0.499   5.841   3.152
10285WAT     H241861   0.400   5.790   3.073
10285WAT    EPW41862   0.433   5.799   3.143
10286WAT      O41863   0.750   5.310   2.829
10286WAT     H141864   0.834   5.291   2.839
10286WAT     H241865   0.713   5.232   2.816
10286WAT    EPW41866   0.757   5.295   2.829
10287WAT      O41867   2.011   6.468   2.262
10287WAT     H141868   2.081   6.421   2.237
10287WAT     H241869   1.957   6.408   2.296
10287WAT    EPW41870   2.014   6.452   2.263
10288WAT      O41871   0.232   5.443   2.495
10288WAT     H141872   0.281   5.414   2.561
10288WAT     H241873   0.245   5.384   2.432
10288WAT    EPW41874   0.241   5.430   2.495
10289WAT      O41875   1.735   5.746   3.180
10289WAT     H141876   1.735   5.668   3.220
10289WAT     H241877   1.651   5.769   3.179
10289WAT    EPW41878   1.723   5.738   3.186
10290WAT      O41879   0.684   5.587   2.044
10290WAT     H141880   0.623   5.546   2.091
10290WAT     H241881   0.646   5.599   1.966
10290WAT    EPW41882   0.670   5.583   2.039
10291WAT      O41883   0.366   5.898   3.584
10291WAT     H141884   0.324   5.846   3.528
10291WAT     H241885   0.331   5.976   3.569
10291WAT    EPW41886   0.355   5.902   3.573
10292WAT      O41887   1.861   5.753   2.924
10292WAT     H141888   1.832   5.793   2.996
10292WAT     H241889   1.947   5.747   2.936
10292WAT    EPW41890   1.869   5.758   2.936
10293WAT      O41891   0.830   5.433   2.315
10293WAT     H141892   0.857   5.516   2.321
10293WAT     H241893   0.743   5.440   2.305
10293WAT    EPW41894   0.821   5.446   2.314
10294WAT      O41895   1.627   5.145   3.778
10294WAT     H141896   1.575   5.191   3.830
10294WAT     H241897   1.591   5.066   3.777
10294WAT    EPW41898   1.614   5.140   3.785
10295WAT      O41899   0.178   5.030   2.968
10295WAT     H141900   0.182   5.064   2.888
10295WAT     H241901   0.253   5.054   3.005
10295WAT    EPW41902   0.190   5.039   2.962
10296WAT      O41903   1.974   6.316   2.977
10296WAT     H141904   2.003   6.342   2.899
10296WAT     H241905   2.043   6.326   3.029
10296WAT    EPW41906   1.989   6.321   2.973
10297WAT      O41907   1.476   5.502   3.785
10297WAT     H141908   1.484   5.512   3.872
10297WAT     H241909   1.413   5.558   3.763
10297WAT    EPW41910   1.468   5.512   3.795
10298WAT      O41911   1.703   5.534   3.622
10298WAT     H141912   1.735   5.613   3.642
10298WAT     H241913   1.666   5.507   3.696
10298WAT    EPW41914   1.702   5.542   3.636
10299WAT      O41915   1.634   6.176   2.175
10299WAT     H141916   1.668   6.096   2.178
10299WAT     H241917   1.559   6.169   2.218
10299WAT    EPW41918   1.628   6.163   2.182
10300WAT      O41919   1.683   5.360   2.741
10300WAT     H141920   1.608   5.327   2.773
10300WAT     H241921   1.683   5.442   2.769
10300WAT    EPW41922   1.672   5.367   2.750
10301WAT      O41923   1.973   5.588   3.895
10301WAT     H141924   1.968   5.554   3.815
10301WAT     H241925   2.047   5.635   3.893
10301WAT    EPW41926   1.983   5.590   3.883
10302WAT      O41927   1.927   5.956   3.516
10302WAT     H141928   1.989   5.901   3.490
10302WAT     H241929   1.921   6.012   3.450
10302WAT    EPW41930   1.935   5.956   3.502
10303WAT      O41931   1.372   5.964   2.115
10303WAT     H141932   1.440   5.912   2.098
10303WAT     H241933   1.330   5.968   2.039
10303WAT    EPW41934   1.376   5.957   2.101
10304WAT      O41935   0.840   6.079   3.246
10304WAT     H141936   0.810   6.138   3.302
10304WAT     H241937   0.846   6.123   3.171
10304WAT    EPW41938   0.836   6.094   3.243
10305WAT      O41939   0.638   5.974   3.585
10305WAT     H141940   0.557   5.945   3.602
10305WAT     H241941   0.629   6.061   3.586
10305WAT    EPW41942   0.625   5.982   3.588
10306WAT      O41943   1.574   4.993   3.487
10306WAT     H141944   1.648   5.038   3.481
10306WAT     H241945   1.517   5.040   3.440
10306WAT    EPW41946   1.577   5.006   3.479
10307WAT      O41947   1.092   5.721   3.195
10307WAT     H141948   1.139   5.759   3.257
10307WAT     H241949   1.009   5.735   3.221
10307WAT    EPW41950   1.087   5.729   3.208
10308WAT      O41951   0.763   5.281   3.469
10308WAT     H141952   0.779   5.207   3.511
10308WAT     H241953   0.758   5.257   3.385
10308WAT    EPW41954   0.764   5.267   3.463
10309WAT      O41955   1.018   6.460   2.717
10309WAT     H141956   1.073   6.528   2.723
10309WAT     H241957   0.983   6.469   2.638
10309WAT    EPW41958   1.021   6.472   2.706
10310WAT      O41959   1.702   4.791   3.254
10310WAT     H141960   1.674   4.873   3.249
10310WAT     H241961   1.774   4.796   3.303
10310WAT    EPW41962   1.709   4.804   3.261
10311WAT      O41963   0.938   4.862   3.457
10311WAT     H141964   1.008   4.894   3.417
10311WAT     H241965   0.962   4.782   3.479
10311WAT    EPW41966   0.952   4.855   3.454
10312WAT      O41967   0.836   6.283   3.056
10312WAT     H141968   0.774   6.341   3.038
10312WAT     H241969   0.861   6.255   2.978
10312WAT    EPW41970   0.831   6.288   3.042
10313WAT      O41971   1.267   5.947   3.755
10313WAT     H141972   1.343   5.975   3.723
10313WAT     H241973   1.213   5.952   3.687
10313WAT    EPW41974   1.270   5.952   3.740
10314WAT      O41975   1.658   6.202   3.606
10314WAT     H141976   1.693   6.229   3.681
10314WAT     H241977   1.688   6.260   3.548
10314WAT    EPW41978   1.668   6.214   3.608
10315WAT      O41979   1.844   5.416   2.140
10315WAT     H141980   1.882   5.484   2.100
10315WAT     H241981   1.760   5.439   2.143
10315WAT    EPW41982   1.838   5.430   2.134
10316WAT      O41983   0.996   5.761   2.048
10316WAT     H141984   0.915   5.743   2.019
10316WAT     H241985   0.992   5.846   2.067
10316WAT    EPW41986   0.983   5.771   2.047
10317WAT      O41987   0.589   5.368   3.063
10317WAT     H141988   0.633   5.357   2.988
10317WAT     H241989   0.643   5.336   3.123
10317WAT    EPW41990   0.603   5.361   3.061
10318WAT      O41991   1.390   5.278   3.622
10318WAT     H141992   1.326   5.325   3.657
10318WAT     H241993   1.447   5.269   3.688
10318WAT    EPW41994   1.389   5.283   3.637
10319WAT      O41995   1.359   5.431   3.252
10319WAT     H141996   1.389   5.473   3.322
10319WAT     H241997   1.363   5.347   3.275
10319WAT    EPW41998   1.364   5.425   3.266
10320WAT      O41999   1.102   6.448   3.644
10320WAT     H142000   1.149   6.388   3.603
10320WAT     H242001   1.067   6.404   3.711
10320WAT    EPW42002   1.104   6.433   3.648
10321WAT      O42003   1.614   5.376   2.477
10321WAT     H142004   1.635   5.356   2.559
10321WAT     H242005   1.690   5.403   2.443
10321WAT    EPW42006   1.628   5.377   2.484
10322WAT      O42007   0.943   4.866   3.068
10322WAT     H142008   0.861   4.851   3.091
10322WAT     H242009   0.939   4.870   2.980
10322WAT    EPW42010   0.931   4.864   3.058
10323WAT      O42011   1.716   4.984   2.624
10323WAT     H142012   1.645   4.937   2.642
10323WAT     H242013   1.700   5.019   2.546
10323WAT    EPW42014   1.703   4.983   2.615
10324WAT      O42015   1.760   5.779   2.462
10324WAT     H142016   1.808   5.706   2.458
10324WAT     H242017   1.678   5.750   2.455
10324WAT    EPW42018   1.755   5.764   2.461
10325WAT      O42019   1.108   5.970   3.546
10325WAT     H142020   1.028   5.964   3.581
10325WAT     H242021   1.115   6.055   3.527
10325WAT    EPW42022   1.097   5.982   3.549
10326WAT      O42023   0.691   6.591   3.078
10326WAT     H142024   0.692   6.597   3.165
10326WAT     H242025   0.648   6.516   3.063
10326WAT    EPW42026   0.684   6.581   3.089
10327WAT      O42027   0.506   5.180   2.394
10327WAT     H142028   0.519   5.147   2.314
10327WAT     H242029   0.425   5.155   2.413
10327WAT    EPW42030   0.496   5.172   2.385
10328WAT      O42031   1.382   5.896   2.698
10328WAT     H142032   1.390   5.930   2.778
10328WAT     H242033   1.399   5.811   2.710
10328WAT    EPW42034   1.386   5.888   2.712
10329WAT      O42035   1.134   5.823   2.654
10329WAT     H142036   1.104   5.791   2.730
10329WAT     H242037   1.204   5.870   2.678
10329WAT    EPW42038   1.140   5.825   2.669
10330WAT      O42039   1.156   6.235   3.457
10330WAT     H142040   1.225   6.223   3.510
10330WAT     H242041   1.170   6.314   3.423
10330WAT    EPW42042   1.169   6.245   3.460
10331WAT      O42043   1.974   5.496   3.638
10331WAT     H142044   1.889   5.483   3.651
10331WAT     H242045   1.989   5.456   3.562
10331WAT    EPW42046   1.964   5.488   3.629
10332WAT      O42047   1.425   5.562   3.496
10332WAT     H142048   1.400   5.490   3.538
10332WAT     H242049   1.507   5.574   3.523
10332WAT    EPW42050   1.434   5.553   3.506
10333WAT      O42051   0.367   6.541   3.622
10333WAT     H142052   0.302   6.484   3.632
10333WAT     H242053   0.329   6.618   3.637
10333WAT    EPW42054   0.352   6.544   3.626
10334WAT      O42055   1.219   5.681   3.815
10334WAT     H142056   1.251   5.750   3.771
10334WAT     H242057   1.148   5.713   3.855
10334WAT    EPW42058   1.213   5.696   3.814
10335WAT      O42059   1.527   6.519   2.907
10335WAT     H142060   1.482   6.583   2.945
10335WAT     H242061   1.598   6.511   2.958
10335WAT    EPW42062   1.531   6.527   2.921
10336WAT      O42063   1.197   6.028   3.200
10336WAT     H142064   1.128   6.068   3.235
10336WAT     H242065   1.265   6.071   3.234
10336WAT    EPW42066   1.197   6.040   3.211
10337WAT      O42067   1.735   6.287   3.858
10337WAT     H142068   1.813   6.248   3.867
10337WAT     H242069   1.688   6.253   3.924
10337WAT    EPW42070   1.739   6.276   3.869
10338WAT      O42071   0.504   5.381   3.435
10338WAT     H142072   0.542   5.443   3.386
10338WAT     H242073   0.571   5.334   3.464
10338WAT    EPW42074   0.520   5.384   3.432
10339WAT      O42075   0.282   5.226   3.363
10339WAT     H142076   0.289   5.209   3.277
10339WAT     H242077   0.356   5.267   3.382
10339WAT    EPW42078   0.294   5.230   3.353
10340WAT      O42079   1.837   5.490   2.407
10340WAT     H142080   1.848   5.484   2.320
10340WAT     H242081   1.912   5.457   2.438
10340WAT    EPW42082   1.850   5.484   2.399
10341WAT      O42083   0.537   4.967   3.604
10341WAT     H142084   0.529   4.883   3.624
10341WAT     H242085   0.506   4.972   3.522
10341WAT    EPW42086   0.531   4.955   3.595
10342WAT      O42087   1.229   6.187   2.517
10342WAT     H142088   1.209   6.270   2.501
10342WAT     H242089   1.152   6.148   2.530
10342WAT    EPW42090   1.215   6.193   2.517
10343WAT      O42091   1.748   5.505   3.342
10343WAT     H142092   1.747   5.418   3.355
10343WAT     H242093   1.754   5.537   3.423
10343WAT    EPW42094   1.749   5.497   3.356
10344WAT      O42095   0.221   5.749   3.385
10344WAT     H142096   0.253   5.771   3.307
10344WAT     H242097   0.211   5.662   3.380
10344WAT    EPW42098   0.224   5.739   3.373
10345WAT      O42099   0.367   5.342   2.047
10345WAT     H142100   0.300   5.344   2.102
10345WAT     H242101   0.376   5.258   2.028
10345WAT    EPW42102   0.358   5.330   2.052
10346WAT      O42103   1.336   4.985   3.720
10346WAT     H142104   1.345   5.056   3.770
10346WAT     H242105   1.272   4.940   3.760
10346WAT    EPW42106   1.327   4.989   3.734
10347WAT      O42107   1.235   5.004   2.806
10347WAT     H142108   1.165   5.056   2.800
10347WAT     H242109   1.239   4.966   2.727
10347WAT    EPW42110   1.225   5.006   2.793
10348WAT      O42111   0.766   6.213   2.158
10348WAT     H142112   0.810   6.221   2.233
10348WAT     H242113   0.685   6.191   2.184
10348WAT    EPW42114   0.760   6.211   2.173
10349WAT      O42115   1.595   5.055   3.086
10349WAT     H142116   1.680   5.065   3.100
10349WAT     H242117   1.558   5.111   3.142
10349WAT    EPW42118   1.602   5.065   3.096
10350WAT      O42119   0.698   5.678   3.524
10350WAT     H142120   0.658   5.755   3.531
10350WAT     H242121   0.657   5.641   3.456
10350WAT    EPW42122   0.686   5.684   3.515
10351WAT      O42123   1.625   5.583   2.935
10351WAT     H142124   1.692   5.637   2.951
10351WAT     H242125   1.591   5.614   2.861
10351WAT    EPW42126   1.630   5.596   2.926
10352WAT      O42127   1.656   6.390   2.516
10352WAT     H142128   1.639   6.325   2.571
10352WAT     H242129   1.728   6.363   2.473
10352WAT    EPW42130   1.664   6.376   2.518
10353WAT      O42131   0.499   6.120   2.218
10353WAT     H142132   0.474   6.089   2.296
10353WAT     H242133   0.495   6.050   2.167
10353WAT    EPW42134   0.494   6.105   2.222
10354WAT      O42135   0.780   5.944   2.093
10354WAT     H142136   0.699   5.918   2.107
10354WAT     H242137   0.778   6.030   2.111
10354WAT    EPW42138   0.768   5.953   2.097
10355WAT      O42139   0.740   4.976   3.269
10355WAT     H142140   0.654   4.984   3.277
10355WAT     H242141   0.762   4.924   3.335
10355WAT    EPW42142   0.731   4.969   3.280
10356WAT      O42143   1.942   4.839   3.401
10356WAT     H142144   1.937   4.835   3.488
10356WAT     H242145   2.011   4.789   3.382
10356WAT    EPW42146   1.952   4.831   3.411
10357WAT      O42147   1.151   5.050   3.106
10357WAT     H142148   1.077   5.005   3.117
10357WAT     H242149   1.208   5.010   3.158
10357WAT    EPW42150   1.148   5.038   3.115
10358WAT      O42151   1.424   6.135   3.285
10358WAT     H142152   1.445   6.165   3.364
10358WAT     H242153   1.418   6.207   3.236
10358WAT    EPW42154   1.426   6.150   3.289
10359WAT      O42155   1.377   6.557   3.709
10359WAT     H142156   1.302   6.555   3.665
10359WAT     H242157   1.394   6.642   3.718
10359WAT    EPW42158   1.369   6.569   3.704
10360WAT      O42159   0.901   5.483   3.626
10360WAT     H142160   0.869   5.426   3.569
10360WAT     H242161   0.865   5.559   3.602
10360WAT    EPW42162   0.891   5.486   3.614
10361WAT      O42163   0.981   4.809   2.089
10361WAT     H142164   0.988   4.833   2.006
10361WAT     H242165   0.906   4.846   2.115
10361WAT    EPW42166   0.971   4.818   2.081
10362WAT      O42167   1.905   5.999   3.231
10362WAT     H142168   1.902   5.913   3.217
10362WAT     H242169   1.836   6.029   3.187
10362WAT    EPW42170   1.894   5.991   3.222
10363WAT      O42171   0.745   6.519   3.651
10363WAT     H142172   0.749   6.532   3.737
10363WAT     H242173   0.810   6.463   3.636
10363WAT    EPW42174   0.755   6.513   3.662
10364WAT      O42175   1.716   6.325   3.110
10364WAT     H142176   1.768   6.317   3.041
10364WAT     H242177   1.677   6.247   3.116
10364WAT    EPW42178   1.718   6.312   3.101
10365WAT      O42179   0.462   4.984   3.333
10365WAT     H142180   0.428   4.907   3.310
10365WAT     H242181   0.393   5.036   3.340
10365WAT    EPW42182   0.447   4.980   3.331
10366WAT      O42183   1.367   4.870   3.031
10366WAT     H142184   1.434   4.924   3.044
10366WAT     H242185   1.317   4.912   2.974
10366WAT    EPW42186   1.370   4.884   3.024
10367WAT      O42187   0.504   6.357   3.787
10367WAT     H142188   0.563   6.400   3.834
10367WAT     H242189   0.467   6.420   3.738
10367WAT    EPW42190   0.507   6.373   3.787
10368WAT      O42191   1.303   5.450   2.780
10368WAT     H142192   1.358   5.390   2.810
10368WAT     H242193   1.260   5.477   2.852
10368WAT    EPW42194   1.305   5.445   2.795
10369WAT      O42195   0.328   5.315   2.729
10369WAT     H142196   0.291   5.346   2.802
10369WAT     H242197   0.381   5.252   2.757
10369WAT    EPW42198   0.330   5.311   2.744
10370WAT      O42199   0.297   6.156   3.480
10370WAT     H142200   0.239   6.198   3.531
10370WAT     H242201   0.370   6.203   3.490
10370WAT    EPW42202   0.299   6.169   3.489
10371WAT      O42203   1.500   5.633   2.437
10371WAT     H142204   1.507   5.548   2.455
10371WAT     H242205   1.418   5.642   2.409
10371WAT    EPW42206   1.489   5.622   2.435
10372WAT      O42207   0.475   6.483   2.358
10372WAT     H142208   0.461   6.498   2.273
10372WAT     H242209   0.562   6.491   2.365
10372WAT    EPW42210   0.486   6.486   2.346
10373WAT      O42211   0.892   5.723   2.330
10373WAT     H142212   0.902   5.736   2.245
10373WAT     H242213   0.974   5.717   2.360
10373WAT    EPW42214   0.905   5.724   2.322
10374WAT      O42215   1.808   6.529   2.078
10374WAT     H142216   1.872   6.516   2.136
10374WAT     H242217   1.774   6.450   2.067
10374WAT    EPW42218   1.812   6.515   2.085
10375WAT      O42219   1.827   5.771   3.752
10375WAT     H142220   1.891   5.754   3.809
10375WAT     H242221   1.869   5.811   3.686
10375WAT    EPW42222   1.843   5.774   3.751
10376WAT      O42223   1.415   6.155   2.311
10376WAT     H142224   1.390   6.143   2.393
10376WAT     H242225   1.384   6.086   2.268
10376WAT    EPW42226   1.407   6.143   2.317
10377WAT      O42227   1.890   5.227   3.825
10377WAT     H142228   1.870   5.292   3.881
10377WAT     H242229   1.818   5.178   3.825
10377WAT    EPW42230   1.876   5.229   3.834
10378WAT      O42231   1.880   5.321   3.123
10378WAT     H142232   1.796   5.346   3.115
10378WAT     H242233   1.874   5.237   3.145
10378WAT    EPW42234   1.867   5.313   3.125
10379WAT      O42235   0.806   5.020   3.642
10379WAT     H142236   0.829   4.962   3.581
10379WAT     H242237   0.722   5.002   3.656
10379WAT    EPW42238   0.797   5.009   3.635
10380WAT      O42239   1.568   5.782   3.887
10380WAT     H142240   1.656   5.778   3.884
10380WAT     H242241   1.547   5.824   3.814
10380WAT    EPW42242   1.578   5.787   3.876
10381WAT      O42243   0.544   6.364   3.005
10381WAT     H142244   0.536   6.283   2.974
10381WAT     H242245   0.499   6.413   2.948
10381WAT    EPW42246   0.536   6.360   2.992
10382WAT      O42247   1.104   5.976   2.254
10382WAT     H142248   1.176   5.942   2.218
10382WAT     H242249   1.101   6.056   2.219
10382WAT    EPW42250   1.114   5.983   2.243
10383WAT      O42251   0.301   6.589   3.363
10383WAT     H142252   0.350   6.583   3.435
10383WAT     H242253   0.320   6.515   3.320
10383WAT    EPW42254   0.311   6.577   3.368
10384WAT      O42255   1.245   4.840   0.677
10384WAT     H142256   1.220   4.889   0.609
10384WAT     H242257   1.331   4.833   0.667
10384WAT    EPW42258   1.254   4.846   0.666
10385WAT      O42259   1.226   5.532   1.145
10385WAT     H142260   1.173   5.592   1.181
10385WAT     H242261   1.265   5.495   1.213
10385WAT    EPW42262   1.224   5.535   1.160
10386WAT      O42263   1.840   6.276   0.442
10386WAT     H142264   1.910   6.224   0.441
10386WAT     H242265   1.781   6.232   0.395
10386WAT    EPW42266   1.842   6.262   0.435
10387WAT      O42267   0.501   5.851   0.208
10387WAT     H142268   0.462   5.814   0.139
10387WAT     H242269   0.493   5.792   0.271
10387WAT    EPW42270   0.494   5.837   0.207
10388WAT      O42271   1.493   5.639   0.812
10388WAT     H142272   1.501   5.639   0.725
10388WAT     H242273   1.434   5.575   0.827
10388WAT    EPW42274   1.485   5.629   0.802
10389WAT      O42275   0.464   6.016   0.598
10389WAT     H142276   0.524   5.999   0.658
10389WAT     H242277   0.388   6.002   0.640
10389WAT    EPW42278   0.461   6.011   0.613
10390WAT      O42279   0.892   4.949   0.593
10390WAT     H142280   0.885   5.017   0.538
10390WAT     H242281   0.966   4.910   0.568
10390WAT    EPW42282   0.902   4.953   0.581
10391WAT      O42283   0.353   6.325   0.206
10391WAT     H142284   0.399   6.333   0.133
10391WAT     H242285   0.398   6.267   0.253
10391WAT    EPW42286   0.366   6.317   0.202
10392WAT      O42287   0.864   5.972   1.822
10392WAT     H142288   0.840   5.972   1.906
10392WAT     H242289   0.789   5.957   1.780
10392WAT    EPW42290   0.849   5.970   1.828
10393WAT      O42291   0.351   5.672   0.736
10393WAT     H142292   0.305   5.632   0.673
10393WAT     H242293   0.421   5.620   0.745
10393WAT    EPW42294   0.355   5.658   0.728
10394WAT      O42295   0.802   5.233   1.271
10394WAT     H142296   0.870   5.234   1.216
10394WAT     H242297   0.798   5.149   1.295
10394WAT    EPW42298   0.811   5.220   1.266
10395WAT      O42299   0.862   6.291   1.549
10395WAT     H142300   0.876   6.367   1.508
10395WAT     H242301   0.941   6.255   1.551
10395WAT    EPW42302   0.876   6.297   1.543
10396WAT      O42303   0.551   5.482   0.738
10396WAT     H142304   0.633   5.463   0.762
10396WAT     H242305   0.504   5.420   0.778
10396WAT    EPW42306   0.556   5.470   0.748
10397WAT      O42307   0.972   6.080   0.999
10397WAT     H142308   1.007   6.000   1.002
10397WAT     H242309   1.038   6.130   0.974
10397WAT    EPW42310   0.987   6.075   0.996
10398WAT      O42311   0.977   6.025   0.620
10398WAT     H142312   1.011   5.960   0.669
10398WAT     H242313   1.001   6.003   0.539
10398WAT    EPW42314   0.986   6.012   0.615
10399WAT      O42315   1.174   5.438   1.754
10399WAT     H142316   1.089   5.428   1.736
10399WAT     H242317   1.177   5.512   1.800
10399WAT    EPW42318   1.162   5.447   1.758
10400WAT      O42319   0.611   4.991   0.665
10400WAT     H142320   0.581   5.041   0.600
10400WAT     H242321   0.698   4.999   0.659
10400WAT    EPW42322   0.619   5.000   0.654
10401WAT      O42323   1.630   4.734   1.666
10401WAT     H142324   1.614   4.811   1.627
10401WAT     H242325   1.553   4.712   1.700
10401WAT    EPW42326   1.616   4.742   1.665
10402WAT      O42327   0.909   4.905   0.887
10402WAT     H142328   0.916   4.991   0.900
10402WAT     H242329   0.905   4.898   0.800
10402WAT    EPW42330   0.909   4.917   0.876
10403WAT      O42331   0.772   6.203   0.575
10403WAT     H142332   0.714   6.176   0.634
10403WAT     H242333   0.834   6.142   0.578
10403WAT    EPW42334   0.773   6.190   0.584
10404WAT      O42335   1.386   6.432   0.327
10404WAT     H142336   1.459   6.479   0.338
10404WAT     H242337   1.409   6.352   0.355
10404WAT    EPW42338   1.400   6.427   0.333
10405WAT      O42339   1.203   6.471   0.526
10405WAT     H142340   1.224   6.524   0.593
10405WAT     H242341   1.280   6.454   0.488
10405WAT    EPW42342   1.217   6.476   0.531
10406WAT      O42343   0.500   4.929   1.086
10406WAT     H142344   0.448   4.867   1.055
10406WAT     H242345   0.559   4.886   1.133
10406WAT    EPW42346   0.501   4.914   1.089
10407WAT      O42347   0.830   5.143   2.016
10407WAT     H142348   0.842   5.097   1.942
10407WAT     H242349   0.859   5.222   1.996
10407WAT    EPW42350   0.836   5.148   2.002
10408WAT      O42351   0.342   6.286   0.620
10408WAT     H142352   0.408   6.228   0.622
10408WAT     H242353   0.381   6.361   0.598
10408WAT    EPW42354   0.358   6.288   0.617
10409WAT      O42355   1.916   5.195   0.746
10409WAT     H142356   1.881   5.263   0.789
10409WAT     H242357   1.852   5.135   0.748
10409WAT    EPW42358   1.901   5.196   0.753
10410WAT      O42359   1.447   6.472   1.357
10410WAT     H142360   1.521   6.518   1.356
10410WAT     H242361   1.435   6.451   1.273
10410WAT    EPW42362   1.456   6.476   1.344
10411WAT      O42363   0.404   5.102   1.914
10411WAT     H142364   0.326   5.063   1.907
10411WAT     H242365   0.453   5.061   1.855
10411WAT    EPW42366   0.399   5.090   1.905
10412WAT      O42367   0.424   6.134   0.970
10412WAT     H142368   0.466   6.099   0.903
10412WAT     H242369   0.457   6.092   1.039
10412WAT    EPW42370   0.435   6.123   0.971
10413WAT      O42371   0.747   6.420   0.900
10413WAT     H142372   0.832   6.430   0.880
10413WAT     H242373   0.718   6.501   0.907
10413WAT    EPW42374   0.755   6.433   0.898
10414WAT      O42375   1.069   4.867   1.831
10414WAT     H142376   1.086   4.786   1.804
10414WAT     H242377   1.054   4.911   1.757
10414WAT    EPW42378   1.069   4.861   1.816
10415WAT      O42379   1.128   5.359   0.709
10415WAT     H142380   1.157   5.336   0.630
10415WAT     H242381   1.201   5.367   0.755
10415WAT    EPW42382   1.143   5.357   0.704
10416WAT      O42383   1.200   5.393   0.221
10416WAT     H142384   1.228   5.472   0.246
10416WAT     H242385   1.123   5.410   0.184
10416WAT    EPW42386   1.193   5.407   0.219
10417WAT      O42387   1.604   6.591   0.367
10417WAT     H142388   1.671   6.576   0.313
10417WAT     H242389   1.640   6.582   0.446
10417WAT    EPW42390   1.619   6.587   0.371
10418WAT      O42391   0.647   6.541   1.474
10418WAT     H142392   0.676   6.535   1.556
10418WAT     H242393   0.584   6.481   1.469
10418WAT    EPW42394   0.642   6.532   1.485
10419WAT      O42395   1.883   5.027   1.283
10419WAT     H142396   1.959   5.035   1.241
10419WAT     H242397   1.889   4.950   1.323
10419WAT    EPW42398   1.895   5.017   1.283
10420WAT      O42399   1.372   6.191   1.727
10420WAT     H142400   1.369   6.229   1.806
10420WAT     H242401   1.458   6.186   1.710
10420WAT    EPW42402   1.384   6.196   1.736
10421WAT      O42403   1.086   6.210   0.202
10421WAT     H142404   1.068   6.265   0.268
10421WAT     H242405   1.163   6.239   0.172
10421WAT    EPW42406   1.095   6.223   0.208
10422WAT      O42407   1.437   5.000   0.308
10422WAT     H142408   1.491   4.932   0.315
10422WAT     H242409   1.443   5.040   0.385
10422WAT    EPW42410   1.446   4.996   0.320
10423WAT      O42411   0.232   5.117   0.565
10423WAT     H142412   0.221   5.030   0.568
10423WAT     H242413   0.185   5.146   0.632
10423WAT    EPW42414   0.223   5.108   0.575
10424WAT      O42415   0.446   6.358   1.386
10424WAT     H142416   0.377   6.307   1.399
10424WAT     H242417   0.472   6.337   1.305
10424WAT    EPW42418   0.440   6.347   1.376
10425WAT      O42419   1.163   5.237   0.439
10425WAT     H142420   1.112   5.171   0.414
10425WAT     H242421   1.168   5.288   0.368
10425WAT    EPW42422   1.156   5.235   0.425
10426WAT      O42423   1.217   6.507   1.477
10426WAT     H142424   1.294   6.499   1.436
10426WAT     H242425   1.159   6.495   1.413
10426WAT    EPW42426   1.220   6.504   1.462
10427WAT      O42427   1.163   4.932   0.428
10427WAT     H142428   1.117   4.891   0.366
10427WAT     H242429   1.240   4.947   0.391
10427WAT    EPW42430   1.167   4.928   0.413
10428WAT      O42431   1.845   6.567   0.767
10428WAT     H142432   1.800   6.639   0.787
10428WAT     H242433   1.784   6.510   0.743
10428WAT    EPW42434   1.829   6.569   0.767
10429WAT      O42435   1.022   5.168   0.880
10429WAT     H142436   1.030   5.225   0.815
10429WAT     H242437   1.034   5.217   0.951
10429WAT    EPW42438   1.025   5.184   0.881
10430WAT      O42439   1.545   6.152   0.722
10430WAT     H142440   1.615   6.104   0.740
10430WAT     H242441   1.479   6.095   0.726
10430WAT    EPW42442   1.545   6.136   0.725
10431WAT      O42443   0.582   6.243   1.643
10431WAT     H142444   0.667   6.249   1.621
10431WAT     H242445   0.579   6.282   1.720
10431WAT    EPW42446   0.594   6.250   1.651
10432WAT      O42447   0.483   4.751   0.715
10432WAT     H142448   0.537   4.819   0.714
10432WAT     H242449   0.483   4.723   0.632
10432WAT    EPW42450   0.491   4.757   0.703
10433WAT      O42451   0.779   5.794   1.118
10433WAT     H142452   0.796   5.773   1.201
10433WAT     H242453   0.713   5.740   1.096
10433WAT    EPW42454   0.772   5.783   1.127
10434WAT      O42455   1.402   5.185   1.469
10434WAT     H142456   1.392   5.217   1.550
10434WAT     H242457   1.342   5.121   1.465
10434WAT    EPW42458   1.391   5.180   1.481
10435WAT      O42459   0.854   5.788   1.377
10435WAT     H142460   0.859   5.872   1.397
10435WAT     H242461   0.825   5.751   1.450
10435WAT    EPW42462   0.850   5.795   1.390
10436WAT      O42463   1.471   5.857   1.290
10436WAT     H142464   1.420   5.816   1.347
10436WAT     H242465   1.459   5.942   1.308
10436WAT    EPW42466   1.462   5.864   1.301
10437WAT      O42467   1.527   4.780   0.753
10437WAT     H142468   1.532   4.748   0.834
10437WAT     H242469   1.559   4.715   0.703
10437WAT    EPW42470   1.533   4.765   0.757
10438WAT      O42471   1.774   5.203   1.584
10438WAT     H142472   1.851   5.181   1.617
10438WAT     H242473   1.726   5.225   1.654
10438WAT    EPW42474   1.778   5.203   1.599
10439WAT      O42475   0.528   5.132   0.881
10439WAT     H142476   0.555   5.089   0.810
10439WAT     H242477   0.510   5.068   0.938
10439WAT    EPW42478   0.529   5.116   0.879
10440WAT      O42479   1.797   5.901   0.302
10440WAT     H142480   1.809   5.872   0.384
10440WAT     H242481   1.877   5.903   0.269
10440WAT    EPW42482   1.810   5.897   0.310
10441WAT      O42483   0.510   5.874   0.835
10441WAT     H142484   0.595   5.866   0.818
10441WAT     H242485   0.475   5.806   0.794
10441WAT    EPW42486   0.518   5.863   0.827
10442WAT      O42487   0.387   6.547   0.959
10442WAT     H142488   0.320   6.497   0.935
10442WAT     H242489   0.427   6.565   0.884
10442WAT    EPW42490   0.383   6.542   0.944
10443WAT      O42491   0.342   5.242   1.189
10443WAT     H142492   0.426   5.264   1.184
10443WAT     H242493   0.303   5.299   1.136
10443WAT    EPW42494   0.349   5.253   1.180
10444WAT      O42495   2.020   6.352   1.728
10444WAT     H142496   1.952   6.383   1.683
10444WAT     H242497   1.983   6.306   1.792
10444WAT    EPW42498   2.005   6.350   1.731
10445WAT      O42499   1.586   5.555   0.261
10445WAT     H142500   1.564   5.628   0.219
10445WAT     H242501   1.541   5.560   0.336
10445WAT    EPW42502   1.576   5.566   0.266
10446WAT      O42503   0.747   5.875   0.659
10446WAT     H142504   0.818   5.924   0.668
10446WAT     H242505   0.769   5.818   0.596
10446WAT    EPW42506   0.761   5.874   0.651
10447WAT      O42507   2.005   5.041   0.206
10447WAT     H142508   1.939   4.984   0.208
10447WAT     H242509   1.986   5.092   0.138
10447WAT    EPW42510   1.992   5.040   0.196
10448WAT      O42511   0.927   5.410   2.001
10448WAT     H142512   0.879   5.468   2.045
10448WAT     H242513   0.925   5.440   1.918
10448WAT    EPW42514   0.920   5.423   1.995
10449WAT      O42515   2.037   5.479   1.462
10449WAT     H142516   2.059   5.399   1.434
10449WAT     H242517   1.952   5.485   1.443
10449WAT    EPW42518   2.028   5.468   1.455
10450WAT      O42519   1.805   4.997   0.434
10450WAT     H142520   1.880   4.956   0.454
10450WAT     H242521   1.831   5.068   0.392
10450WAT    EPW42522   1.820   5.001   0.431
10451WAT      O42523   1.199   6.245   0.892
10451WAT     H142524   1.147   6.309   0.862
10451WAT     H242525   1.230   6.209   0.819
10451WAT    EPW42526   1.196   6.249   0.877
10452WAT      O42527   0.607   6.024   1.168
10452WAT     H142528   0.654   6.053   1.235
10452WAT     H242529   0.664   5.976   1.122
10452WAT    EPW42530   0.622   6.021   1.171
10453WAT      O42531   1.451   5.225   0.941
10453WAT     H142532   1.485   5.241   1.020
10453WAT     H242533   1.405   5.152   0.953
10453WAT    EPW42534   1.449   5.217   0.955
10454WAT      O42535   0.264   5.791   1.022
10454WAT     H142536   0.307   5.778   0.947
10454WAT     H242537   0.243   5.876   1.019
10454WAT    EPW42538   0.267   5.802   1.011
10455WAT      O42539   0.898   5.147   0.387
10455WAT     H142540   0.898   5.136   0.301
10455WAT     H242541   0.880   5.232   0.396
10455WAT    EPW42542   0.895   5.158   0.376
10456WAT      O42543   1.804   6.390   1.537
10456WAT     H142544   1.736   6.442   1.559
10456WAT     H242545   1.810   6.400   1.450
10456WAT    EPW42546   1.795   6.399   1.527
10457WAT      O42547   0.672   6.143   0.850
10457WAT     H142548   0.685   6.227   0.869
10457WAT     H242549   0.739   6.103   0.890
10457WAT    EPW42550   0.684   6.149   0.859
10458WAT      O42551   0.485   5.491   1.836
10458WAT     H142552   0.431   5.440   1.883
10458WAT     H242553   0.487   5.452   1.758
10458WAT    EPW42554   0.477   5.478   1.832
10459WAT      O42555   0.533   5.431   0.350
10459WAT     H142556   0.521   5.386   0.424
10459WAT     H242557   0.475   5.396   0.295
10459WAT    EPW42558   0.523   5.419   0.353
10460WAT      O42559   0.550   5.614   1.010
10460WAT     H142560   0.472   5.608   0.972
10460WAT     H242561   0.557   5.538   1.054
10460WAT    EPW42562   0.540   5.602   1.011
10461WAT      O42563   0.593   5.587   1.357
10461WAT     H142564   0.596   5.520   1.302
10461WAT     H242565   0.529   5.637   1.326
10461WAT    EPW42566   0.584   5.585   1.344
10462WAT      O42567   1.583   5.359   1.197
10462WAT     H142568   1.516   5.391   1.243
10462WAT     H242569   1.601   5.422   1.140
10462WAT    EPW42570   1.576   5.373   1.195
10463WAT      O42571   1.003   6.465   1.296
10463WAT     H142572   0.975   6.401   1.244
10463WAT     H242573   0.982   6.538   1.253
10463WAT    EPW42574   0.996   6.466   1.282
10464WAT      O42575   1.247   4.949   1.540
10464WAT     H142576   1.262   4.867   1.515
10464WAT     H242577   1.285   4.955   1.618
10464WAT    EPW42578   1.255   4.938   1.548
10465WAT      O42579   1.402   5.156   0.548
10465WAT     H142580   1.451   5.227   0.540
10465WAT     H242581   1.323   5.182   0.522
10465WAT    EPW42582   1.398   5.170   0.543
10466WAT      O42583   0.373   5.723   1.913
10466WAT     H142584   0.369   5.773   1.842
10466WAT     H242585   0.406   5.648   1.884
10466WAT    EPW42586   0.377   5.719   1.898
10467WAT      O42587   1.533   5.943   1.739
10467WAT     H142588   1.582   6.015   1.749
10467WAT     H242589   1.573   5.901   1.674
10467WAT    EPW42590   1.546   5.948   1.731
10468WAT      O42591   0.963   6.228   1.857
10468WAT     H142592   0.998   6.210   1.934
10468WAT     H242593   0.919   6.155   1.837
10468WAT    EPW42594   0.962   6.214   1.865
10469WAT      O42595   1.060   5.303   1.120
10469WAT     H142596   1.108   5.372   1.141
10469WAT     H242597   1.097   5.238   1.165
10469WAT    EPW42598   1.073   5.303   1.130
10470WAT      O42599   1.279   5.619   0.348
10470WAT     H142600   1.278   5.692   0.299
10470WAT     H242601   1.215   5.633   0.405
10470WAT    EPW42602   1.270   5.632   0.349
10471WAT      O42603   1.776   6.006   0.746
10471WAT     H142604   1.812   5.971   0.817
10471WAT     H242605   1.775   5.940   0.689
10471WAT    EPW42606   1.781   5.991   0.748
10472WAT      O42607   1.381   6.313   1.130
10472WAT     H142608   1.320   6.283   1.075
10472WAT     H242609   1.435   6.358   1.079
10472WAT    EPW42610   1.380   6.315   1.114
10473WAT      O42611   1.382   5.998   1.070
10473WAT     H142612   1.302   6.021   1.098
10473WAT     H242613   1.408   5.939   1.129
10473WAT    EPW42614   1.374   5.993   1.083
10474WAT      O42615   0.771   6.479   0.515
10474WAT     H142616   0.757   6.402   0.552
10474WAT     H242617   0.840   6.465   0.464
10474WAT    EPW42618   0.779   6.466   0.513
10475WAT      O42619   0.738   4.854   0.314
10475WAT     H142620   0.748   4.843   0.400
10475WAT     H242621   0.668   4.904   0.307
10475WAT    EPW42622   0.729   4.860   0.326
10476WAT      O42623   1.000   6.431   0.355
10476WAT     H142624   1.063   6.447   0.414
10476WAT     H242625   1.004   6.500   0.302
10476WAT    EPW42626   1.010   6.444   0.356
10477WAT      O42627   1.708   5.798   1.555
10477WAT     H142628   1.714   5.810   1.469
10477WAT     H242629   1.783   5.830   1.585
10477WAT    EPW42630   1.720   5.804   1.547
10478WAT      O42631   1.327   6.333   1.983
10478WAT     H142632   1.344   6.361   2.063
10478WAT     H242633   1.353   6.399   1.932
10478WAT    EPW42634   1.333   6.347   1.987
10479WAT      O42635   1.811   4.828   1.854
10479WAT     H142636   1.748   4.788   1.809
10479WAT     H242637   1.814   4.785   1.929
10479WAT    EPW42638   1.802   4.816   1.858
10480WAT      O42639   0.451   5.684   0.438
10480WAT     H142640   0.483   5.606   0.416
10480WAT     H242641   0.515   5.721   0.484
10480WAT    EPW42642   0.465   5.678   0.442
10481WAT      O42643   1.281   5.779   1.515
10481WAT     H142644   1.266   5.840   1.575
10481WAT     H242645   1.335   5.723   1.555
10481WAT    EPW42646   1.287   5.779   1.530
10482WAT      O42647   1.120   5.619   0.581
10482WAT     H142648   1.125   5.684   0.639
10482WAT     H242649   1.101   5.549   0.630
10482WAT    EPW42650   1.118   5.618   0.596
10483WAT      O42651   1.642   6.051   1.168
10483WAT     H142652   1.594   6.081   1.101
10483WAT     H242653   1.607   5.974   1.185
10483WAT    EPW42654   1.630   6.044   1.160
10484WAT      O42655   0.569   5.070   0.232
10484WAT     H142656   0.518   5.076   0.161
10484WAT     H242657   0.648   5.094   0.202
10484WAT    EPW42658   0.573   5.075   0.217
10485WAT      O42659   1.042   5.823   1.024
10485WAT     H142660   0.957   5.804   1.032
10485WAT     H242661   1.074   5.807   1.103
10485WAT    EPW42662   1.034   5.818   1.037
10486WAT      O42663   0.427   5.793   1.255
10486WAT     H142664   0.499   5.841   1.252
10486WAT     H242665   0.400   5.790   1.172
10486WAT    EPW42666   0.433   5.799   1.243
10487WAT      O42667   0.750   5.310   0.929
10487WAT     H142668   0.834   5.291   0.939
10487WAT     H242669   0.713   5.232   0.915
10487WAT    EPW42670   0.757   5.295   0.928
10488WAT      O42671   2.011   6.468   0.362
10488WAT     H142672   2.081   6.421   0.337
10488WAT     H242673   1.957   6.408   0.395
10488WAT    EPW42674   2.014   6.452   0.363
10489WAT      O42675   0.232   5.443   0.594
10489WAT     H142676   0.281   5.414   0.660
10489WAT     H242677   0.245   5.384   0.532
10489WAT    EPW42678   0.241   5.430   0.595
10490WAT      O42679   1.735   5.746   1.279
10490WAT     H142680   1.735   5.668   1.319
10490WAT     H242681   1.651   5.769   1.279
10490WAT    EPW42682   1.723   5.738   1.285
10491WAT      O42683   0.366   5.898   1.683
10491WAT     H142684   0.324   5.846   1.627
10491WAT     H242685   0.331   5.976   1.669
10491WAT    EPW42686   0.355   5.902   1.673
10492WAT      O42687   1.861   5.753   1.023
10492WAT     H142688   1.832   5.793   1.095
10492WAT     H242689   1.947   5.747   1.036
10492WAT    EPW42690   1.869   5.758   1.036
10493WAT      O42691   0.830   5.433   0.414
10493WAT     H142692   0.857   5.516   0.421
10493WAT     H242693   0.743   5.440   0.404
10493WAT    EPW42694   0.821   5.446   0.413
10494WAT      O42695   1.627   5.145   1.877
10494WAT     H142696   1.575   5.191   1.930
10494WAT     H242697   1.591   5.066   1.877
10494WAT    EPW42698   1.614   5.140   1.885
10495WAT      O42699   0.178   5.030   1.068
10495WAT     H142700   0.182   5.064   0.987
10495WAT     H242701   0.253   5.054   1.104
10495WAT    EPW42702   0.190   5.039   1.061
10496WAT      O42703   1.974   6.316   1.076
10496WAT     H142704   2.003   6.342   0.998
10496WAT     H242705   2.043   6.326   1.128
10496WAT    EPW42706   1.989   6.321   1.072
10497WAT      O42707   1.476   5.502   1.885
10497WAT     H142708   1.484   5.512   1.971
10497WAT     H242709   1.413   5.558   1.863
10497WAT    EPW42710   1.468   5.512   1.894
10498WAT      O42711   1.703   5.534   1.721
10498WAT     H142712   1.735   5.613   1.742
10498WAT     H242713   1.666   5.507   1.796
10498WAT    EPW42714   1.702   5.542   1.735
10499WAT      O42715   1.634   6.176   0.274
10499WAT     H142716   1.668   6.096   0.278
10499WAT     H242717   1.559   6.169   0.317
10499WAT    EPW42718   1.628   6.163   0.281
10500WAT      O42719   1.683   5.360   0.840
10500WAT     H142720   1.608   5.327   0.872
10500WAT     H242721   1.683   5.442   0.868
10500WAT    EPW42722   1.672   5.367   0.849
10501WAT      O42723   1.973   5.588   1.995
10501WAT     H142724   1.968   5.554   1.915
10501WAT     H242725   2.047   5.635   1.993
10501WAT    EPW42726   1.983   5.590   1.983
10502WAT      O42727   1.927   5.956   1.615
10502WAT     H142728   1.989   5.901   1.590
10502WAT     H242729   1.921   6.012   1.549
10502WAT    EPW42730   1.935   5.956   1.602
10503WAT      O42731   1.372   5.964   0.215
10503WAT     H142732   1.440   5.912   0.198
10503WAT     H242733   1.330   5.968   0.138
10503WAT    EPW42734   1.376   5.957   0.201
10504WAT      O42735   0.840   6.079   1.345
10504WAT     H142736   0.810   6.138   1.402
10504WAT     H242737   0.846   6.123   1.270
10504WAT    EPW42738   0.836   6.094   1.342
10505WAT      O42739   0.638   5.974   1.685
10505WAT     H142740   0.557   5.945   1.701
10505WAT     H242741   0.629   6.061   1.685
10505WAT    EPW42742   0.625   5.982   1.687
10506WAT      O42743   1.574   4.993   1.586
10506WAT     H142744   1.648   5.038   1.580
10506WAT     H242745   1.517   5.040   1.539
10506WAT    EPW42746   1.577   5.006   1.578
10507WAT      O42747   1.092   5.721   1.294
10507WAT     H142748   1.139   5.759   1.357
10507WAT     H242749   1.009   5.735   1.320
10507WAT    EPW42750   1.087   5.729   1.307
10508WAT      O42751   0.763   5.281   1.568
10508WAT     H142752   0.779   5.207   1.611
10508WAT     H242753   0.758   5.257   1.485
10508WAT    EPW42754   0.764   5.267   1.562
10509WAT      O42755   1.018   6.460   0.817
10509WAT     H142756   1.073   6.528   0.822
10509WAT     H242757   0.983   6.469   0.737
10509WAT    EPW42758   1.021   6.472   0.806
10510WAT      O42759   1.702   4.791   1.353
10510WAT     H142760   1.674   4.873   1.349
10510WAT     H242761   1.774   4.796   1.403
10510WAT    EPW42762   1.709   4.804   1.360
10511WAT      O42763   0.938   4.862   1.556
10511WAT     H142764   1.008   4.894   1.516
10511WAT     H242765   0.962   4.782   1.579
10511WAT    EPW42766   0.952   4.855   1.554
10512WAT      O42767   0.836   6.283   1.156
10512WAT     H142768   0.774   6.341   1.138
10512WAT     H242769   0.861   6.255   1.077
10512WAT    EPW42770   0.831   6.288   1.141
10513WAT      O42771   1.267   5.947   1.855
10513WAT     H142772   1.343   5.975   1.822
10513WAT     H242773   1.213   5.952   1.787
10513WAT    EPW42774   1.270   5.952   1.840
10514WAT      O42775   1.658   6.202   1.705
10514WAT     H142776   1.693   6.229   1.780
10514WAT     H242777   1.688   6.260   1.647
10514WAT    EPW42778   1.668   6.214   1.708
10515WAT      O42779   1.844   5.416   0.239
10515WAT     H142780   1.882   5.484   0.199
10515WAT     H242781   1.760   5.439   0.242
10515WAT    EPW42782   1.838   5.430   0.233
10516WAT      O42783   0.589   5.368   1.162
10516WAT     H142784   0.633   5.357   1.088
10516WAT     H242785   0.643   5.336   1.223
10516WAT    EPW42786   0.603   5.361   1.160
10517WAT      O42787   1.390   5.278   1.721
10517WAT     H142788   1.326   5.325   1.756
10517WAT     H242789   1.447   5.269   1.787
10517WAT    EPW42790   1.389   5.283   1.736
10518WAT      O42791   1.359   5.431   1.351
10518WAT     H142792   1.389   5.473   1.422
10518WAT     H242793   1.363   5.347   1.374
10518WAT    EPW42794   1.364   5.425   1.365
10519WAT      O42795   1.102   6.448   1.744
10519WAT     H142796   1.149   6.388   1.702
10519WAT     H242797   1.067   6.404   1.810
10519WAT    EPW42798   1.104   6.433   1.747
10520WAT      O42799   1.614   5.376   0.576
10520WAT     H142800   1.635   5.356   0.659
10520WAT     H242801   1.690   5.403   0.542
10520WAT    EPW42802   1.628   5.377   0.584
10521WAT      O42803   0.943   4.866   1.167
10521WAT     H142804   0.861   4.851   1.191
10521WAT     H242805   0.939   4.870   1.080
10521WAT    EPW42806   0.931   4.864   1.158
10522WAT      O42807   1.716   4.984   0.724
10522WAT     H142808   1.645   4.937   0.741
10522WAT     H242809   1.700   5.019   0.645
10522WAT    EPW42810   1.703   4.983   0.715
10523WAT      O42811   1.760   5.779   0.562
10523WAT     H142812   1.808   5.706   0.557
10523WAT     H242813   1.678   5.750   0.554
10523WAT    EPW42814   1.755   5.764   0.560
10524WAT      O42815   1.108   5.970   1.646
10524WAT     H142816   1.028   5.964   1.681
10524WAT     H242817   1.115   6.055   1.626
10524WAT    EPW42818   1.097   5.982   1.648
10525WAT      O42819   0.691   6.591   1.177
10525WAT     H142820   0.692   6.597   1.264
10525WAT     H242821   0.648   6.516   1.162
10525WAT    EPW42822   0.684   6.581   1.188
10526WAT      O42823   0.506   5.180   0.493
10526WAT     H142824   0.519   5.147   0.413
10526WAT     H242825   0.425   5.155   0.513
10526WAT    EPW42826   0.496   5.172   0.484
10527WAT      O42827   1.382   5.896   0.797
10527WAT     H142828   1.390   5.930   0.877
10527WAT     H242829   1.399   5.811   0.809
10527WAT    EPW42830   1.386   5.888   0.811
10528WAT      O42831   1.134   5.823   0.754
10528WAT     H142832   1.104   5.791   0.830
10528WAT     H242833   1.204   5.870   0.777
10528WAT    EPW42834   1.140   5.825   0.769
10529WAT      O42835   1.156   6.235   1.557
10529WAT     H142836   1.225   6.223   1.609
10529WAT     H242837   1.170   6.314   1.522
10529WAT    EPW42838   1.169   6.245   1.559
10530WAT      O42839   1.974   5.496   1.738
10530WAT     H142840   1.889   5.483   1.750
10530WAT     H242841   1.989   5.456   1.661
10530WAT    EPW42842   1.964   5.488   1.728
10531WAT      O42843   1.425   5.562   1.595
10531WAT     H142844   1.400   5.490   1.637
10531WAT     H242845   1.507   5.574   1.622
10531WAT    EPW42846   1.434   5.553   1.605
10532WAT      O42847   0.367   6.541   1.722
10532WAT     H142848   0.302   6.484   1.731
10532WAT     H242849   0.329   6.618   1.737
10532WAT    EPW42850   0.352   6.544   1.725
10533WAT      O42851   1.219   5.681   1.914
10533WAT     H142852   1.251   5.750   1.871
10533WAT     H242853   1.148   5.713   1.954
10533WAT    EPW42854   1.213   5.696   1.913
10534WAT      O42855   1.527   6.519   1.007
10534WAT     H142856   1.482   6.583   1.045
10534WAT     H242857   1.598   6.511   1.057
10534WAT    EPW42858   1.531   6.527   1.020
10535WAT      O42859   1.197   6.028   1.300
10535WAT     H142860   1.128   6.068   1.334
10535WAT     H242861   1.265   6.071   1.334
10535WAT    EPW42862   1.197   6.040   1.310
10536WAT      O42863   1.735   6.287   1.958
10536WAT     H142864   1.813   6.248   1.966
10536WAT     H242865   1.688   6.253   2.023
10536WAT    EPW42866   1.739   6.276   1.969
10537WAT      O42867   0.504   5.381   1.535
10537WAT     H142868   0.542   5.443   1.486
10537WAT     H242869   0.571   5.334   1.563
10537WAT    EPW42870   0.520   5.384   1.532
10538WAT      O42871   0.282   5.226   1.462
10538WAT     H142872   0.289   5.209   1.377
10538WAT     H242873   0.356   5.267   1.482
10538WAT    EPW42874   0.294   5.230   1.452
10539WAT      O42875   1.837   5.490   0.506
10539WAT     H142876   1.848   5.484   0.420
10539WAT     H242877   1.912   5.457   0.538
10539WAT    EPW42878   1.850   5.484   0.498
10540WAT      O42879   0.537   4.967   1.703
10540WAT     H142880   0.529   4.883   1.724
10540WAT     H242881   0.506   4.972   1.622
10540WAT    EPW42882   0.531   4.955   1.694
10541WAT      O42883   1.229   6.187   0.617
10541WAT     H142884   1.209   6.270   0.601
10541WAT     H242885   1.152   6.148   0.629
10541WAT    EPW42886   1.215   6.193   0.616
10542WAT      O42887   1.748   5.505   1.442
10542WAT     H142888   1.747   5.418   1.454
10542WAT     H242889   1.754   5.537   1.522
10542WAT    EPW42890   1.749   5.497   1.455
10543WAT      O42891   0.221   5.749   1.484
10543WAT     H142892   0.253   5.771   1.406
10543WAT     H242893   0.211   5.662   1.479
10543WAT    EPW42894   0.224   5.739   1.472
10544WAT      O42895   1.336   4.985   1.820
10544WAT     H142896   1.345   5.056   1.869
10544WAT     H242897   1.272   4.940   1.860
10544WAT    EPW42898   1.327   4.989   1.833
10545WAT      O42899   1.235   5.004   0.905
10545WAT     H142900   1.165   5.056   0.900
10545WAT     H242901   1.239   4.966   0.827
10545WAT    EPW42902   1.225   5.006   0.893
10546WAT      O42903   0.766   6.213   0.258
10546WAT     H142904   0.810   6.221   0.332
10546WAT     H242905   0.685   6.191   0.283
10546WAT    EPW42906   0.760   6.211   0.273
10547WAT      O42907   1.595   5.055   1.185
10547WAT     H142908   1.680   5.065   1.200
10547WAT     H242909   1.558   5.111   1.242
10547WAT    EPW42910   1.602   5.065   1.196
10548WAT      O42911   0.698   5.678   1.623
10548WAT     H142912   0.658   5.755   1.630
10548WAT     H242913   0.657   5.641   1.555
10548WAT    EPW42914   0.686   5.684   1.614
10549WAT      O42915   1.625   5.583   1.034
10549WAT     H142916   1.692   5.637   1.050
10549WAT     H242917   1.591   5.614   0.960
10549WAT    EPW42918   1.630   5.596   1.026
10550WAT      O42919   1.656   6.390   0.615
10550WAT     H142920   1.639   6.325   0.670
10550WAT     H242921   1.728   6.363   0.573
10550WAT    EPW42922   1.664   6.376   0.617
10551WAT      O42923   0.499   6.120   0.318
10551WAT     H142924   0.474   6.089   0.396
10551WAT     H242925   0.495   6.050   0.266
10551WAT    EPW42926   0.494   6.105   0.322
10552WAT      O42927   0.780   5.944   0.192
10552WAT     H142928   0.699   5.918   0.206
10552WAT     H242929   0.778   6.030   0.211
10552WAT    EPW42930   0.768   5.953   0.197
10553WAT      O42931   0.740   4.976   1.368
10553WAT     H142932   0.654   4.984   1.376
10553WAT     H242933   0.762   4.924   1.435
10553WAT    EPW42934   0.731   4.969   1.379
10554WAT      O42935   1.942   4.839   1.501
10554WAT     H142936   1.937   4.835   1.588
10554WAT     H242937   2.011   4.789   1.482
10554WAT    EPW42938   1.952   4.831   1.511
10555WAT      O42939   1.151   5.050   1.205
10555WAT     H142940   1.077   5.005   1.217
10555WAT     H242941   1.208   5.010   1.258
10555WAT    EPW42942   1.148   5.038   1.215
10556WAT      O42943   1.424   6.135   1.384
10556WAT     H142944   1.445   6.165   1.463
10556WAT     H242945   1.418   6.207   1.336
10556WAT    EPW42946   1.426   6.150   1.389
10557WAT      O42947   1.377   6.557   1.809
10557WAT     H142948   1.302   6.555   1.765
10557WAT     H242949   1.394   6.642   1.817
10557WAT    EPW42950   1.369   6.569   1.803
10558WAT      O42951   0.901   5.483   1.726
10558WAT     H142952   0.869   5.426   1.669
10558WAT     H242953   0.865   5.559   1.701
10558WAT    EPW42954   0.891   5.486   1.714
10559WAT      O42955   1.905   5.999   1.330
10559WAT     H142956   1.902   5.913   1.316
10559WAT     H242957   1.836   6.029   1.287
10559WAT    EPW42958   1.894   5.991   1.322
10560WAT      O42959   0.745   6.519   1.751
10560WAT     H142960   0.749   6.532   1.837
10560WAT     H242961   0.810   6.463   1.735
10560WAT    EPW42962   0.755   6.513   1.761
10561WAT      O42963   1.716   6.325   1.210
10561WAT     H142964   1.768   6.317   1.141
10561WAT     H242965   1.677   6.247   1.215
10561WAT    EPW42966   1.718   6.312   1.200
10562WAT      O42967   0.462   4.984   1.433
10562WAT     H142968   0.428   4.907   1.409
10562WAT     H242969   0.393   5.036   1.439
10562WAT    EPW42970   0.447   4.980   1.430
10563WAT      O42971   1.367   4.870   1.130
10563WAT     H142972   1.434   4.924   1.143
10563WAT     H242973   1.317   4.912   1.073
10563WAT    EPW42974   1.370   4.884   1.124
10564WAT      O42975   0.504   6.357   1.887
10564WAT     H142976   0.563   6.400   1.934
10564WAT     H242977   0.467   6.420   1.838
10564WAT    EPW42978   0.507   6.373   1.886
10565WAT      O42979   1.303   5.450   0.880
10565WAT     H142980   1.358   5.390   0.910
10565WAT     H242981   1.260   5.477   0.951
10565WAT    EPW42982   1.305   5.445   0.895
10566WAT      O42983   0.328   5.315   0.828
10566WAT     H142984   0.291   5.346   0.901
10566WAT     H242985   0.381   5.252   0.857
10566WAT    EPW42986   0.330   5.311   0.843
10567WAT      O42987   0.297   6.156   1.579
10567WAT     H142988   0.239   6.198   1.630
10567WAT     H242989   0.370   6.203   1.589
10567WAT    EPW42990   0.299   6.169   1.588
10568WAT      O42991   1.500   5.633   0.536
10568WAT     H142992   1.507   5.548   0.554
10568WAT     H242993   1.418   5.642   0.508
10568WAT    EPW42994   1.489   5.622   0.535
10569WAT      O42995   0.475   6.483   0.457
10569WAT     H142996   0.461   6.498   0.372
10569WAT     H242997   0.562   6.491   0.465
10569WAT    EPW42998   0.486   6.486   0.446
10570WAT      O42999   0.892   5.723   0.430
10570WAT     H143000   0.902   5.736   0.344
10570WAT     H243001   0.974   5.717   0.459
10570WAT    EPW43002   0.905   5.724   0.421
10571WAT      O43003   1.808   6.529   0.178
10571WAT     H143004   1.872   6.516   0.236
10571WAT     H243005   1.774   6.450   0.166
10571WAT    EPW43006   1.812   6.515   0.185
10572WAT      O43007   1.827   5.771   1.851
10572WAT     H143008   1.891   5.754   1.908
10572WAT     H243009   1.869   5.811   1.786
10572WAT    EPW43010   1.843   5.774   1.850
10573WAT      O43011   1.415   6.155   0.410
10573WAT     H143012   1.390   6.143   0.493
10573WAT     H243013   1.384   6.086   0.368
10573WAT    EPW43014   1.407   6.143   0.416
10574WAT      O43015   1.890   5.227   1.925
10574WAT     H143016   1.870   5.292   1.980
10574WAT     H243017   1.818   5.178   1.924
10574WAT    EPW43018   1.876   5.229   1.933
10575WAT      O43019   1.880   5.321   1.222
10575WAT     H143020   1.796   5.346   1.215
10575WAT     H243021   1.874   5.237   1.245
10575WAT    EPW43022   1.867   5.313   1.224
10576WAT      O43023   0.806   5.020   1.741
10576WAT     H143024   0.829   4.962   1.680
10576WAT     H243025   0.722   5.002   1.755
10576WAT    EPW43026   0.797   5.009   1.734
10577WAT      O43027   1.568   5.782   1.987
10577WAT     H143028   1.656   5.778   1.983
10577WAT     H243029   1.547   5.824   1.913
10577WAT    EPW43030   1.578   5.787   1.975
10578WAT      O43031   0.544   6.364   1.105
10578WAT     H143032   0.536   6.283   1.073
10578WAT     H243033   0.499   6.413   1.047
10578WAT    EPW43034   0.536   6.360   1.092
10579WAT      O43035   1.104   5.976   0.353
10579WAT     H143036   1.176   5.942   0.317
10579WAT     H243037   1.101   6.056   0.318
10579WAT    EPW43038   1.114   5.983   0.343
10580WAT      O43039   0.301   6.589   1.463
10580WAT     H143040   0.350   6.583   1.535
10580WAT     H243041   0.320   6.515   1.419
10580WAT    EPW43042   0.311   6.577   1.467
10581WAT      O43043   1.245   2.993   6.379
10581WAT     H143044   1.220   3.041   6.311
10581WAT     H243045   1.331   2.985   6.369
10581WAT    EPW43046   1.254   2.999   6.368
10582WAT      O43047   1.226   3.684   6.846
10582WAT     H143048   1.173   3.744   6.883
10582WAT     H243049   1.265   3.647   6.915
10582WAT    EPW43050   1.224   3.688   6.862
10583WAT      O43051   1.840   4.428   6.143
10583WAT     H143052   1.910   4.376   6.143
10583WAT     H243053   1.781   4.384   6.097
10583WAT    EPW43054   1.842   4.414   6.136
10584WAT      O43055   0.501   4.004   5.910
10584WAT     H143056   0.462   3.967   5.841
10584WAT     H243057   0.493   3.944   5.973
10584WAT    EPW43058   0.494   3.989   5.909
10585WAT      O43059   1.493   3.791   6.514
10585WAT     H143060   1.501   3.791   6.427
10585WAT     H243061   1.434   3.728   6.529
10585WAT    EPW43062   1.485   3.782   6.503
10586WAT      O43063   0.464   4.168   6.300
10586WAT     H143064   0.524   4.151   6.360
10586WAT     H243065   0.388   4.154   6.342
10586WAT    EPW43066   0.461   4.163   6.315
10587WAT      O43067   0.892   3.101   6.295
10587WAT     H143068   0.885   3.169   6.240
10587WAT     H243069   0.966   3.062   6.270
10587WAT    EPW43070   0.902   3.106   6.283
10588WAT      O43071   0.353   4.477   5.908
10588WAT     H143072   0.399   4.485   5.834
10588WAT     H243073   0.398   4.419   5.954
10588WAT    EPW43074   0.366   4.470   5.904
10589WAT      O43075   0.864   4.124   7.524
10589WAT     H143076   0.840   4.124   7.608
10589WAT     H243077   0.789   4.109   7.482
10589WAT    EPW43078   0.849   4.122   7.530
10590WAT      O43079   0.351   3.824   6.438
10590WAT     H143080   0.305   3.785   6.375
10590WAT     H243081   0.421   3.772   6.447
10590WAT    EPW43082   0.355   3.810   6.430
10591WAT      O43083   0.802   3.385   6.972
10591WAT     H143084   0.870   3.387   6.917
10591WAT     H243085   0.798   3.301   6.997
10591WAT    EPW43086   0.811   3.373   6.968
10592WAT      O43087   0.862   4.443   7.250
10592WAT     H143088   0.876   4.519   7.210
10592WAT     H243089   0.941   4.407   7.253
10592WAT    EPW43090   0.876   4.449   7.245
10593WAT      O43091   0.551   3.634   6.440
10593WAT     H143092   0.633   3.615   6.464
10593WAT     H243093   0.504   3.572   6.480
10593WAT    EPW43094   0.556   3.622   6.449
10594WAT      O43095   0.972   4.232   6.701
10594WAT     H143096   1.007   4.152   6.704
10594WAT     H243097   1.038   4.282   6.675
10594WAT    EPW43098   0.987   4.227   6.698
10595WAT      O43099   0.977   4.177   6.322
10595WAT     H143100   1.011   4.112   6.371
10595WAT     H243101   1.001   4.156   6.241
10595WAT    EPW43102   0.986   4.164   6.317
10596WAT      O43103   1.174   3.590   7.456
10596WAT     H143104   1.089   3.580   7.438
10596WAT     H243105   1.177   3.664   7.501
10596WAT    EPW43106   1.162   3.599   7.460
10597WAT      O43107   0.611   3.143   6.367
10597WAT     H143108   0.581   3.193   6.302
10597WAT     H243109   0.698   3.151   6.361
10597WAT    EPW43110   0.619   3.152   6.356
10598WAT      O43111   1.630   2.886   7.367
10598WAT     H143112   1.614   2.963   7.329
10598WAT     H243113   1.553   2.864   7.402
10598WAT    EPW43114   1.616   2.894   7.367
10599WAT      O43115   0.909   3.057   6.589
10599WAT     H143116   0.916   3.143   6.602
10599WAT     H243117   0.905   3.050   6.502
10599WAT    EPW43118   0.909   3.069   6.578
10600WAT      O43119   1.376   3.350   5.819
10600WAT     H143120   1.331   3.418   5.849
10600WAT     H243121   1.388   3.300   5.889
10600WAT    EPW43122   1.371   3.353   5.834
10601WAT      O43123   0.772   4.355   6.277
10601WAT     H143124   0.714   4.328   6.336
10601WAT     H243125   0.834   4.294   6.279
10601WAT    EPW43126   0.773   4.342   6.286
10602WAT      O43127   1.386   4.584   6.029
10602WAT     H143128   1.459   4.631   6.039
10602WAT     H243129   1.409   4.505   6.057
10602WAT    EPW43130   1.400   4.579   6.035
10603WAT      O43131   1.203   4.623   6.228
10603WAT     H143132   1.224   4.676   6.294
10603WAT     H243133   1.280   4.606   6.190
10603WAT    EPW43134   1.217   4.628   6.232
10604WAT      O43135   0.500   3.082   6.788
10604WAT     H143136   0.448   3.019   6.757
10604WAT     H243137   0.559   3.038   6.835
10604WAT    EPW43138   0.501   3.066   6.790
10605WAT      O43139   0.342   4.438   6.322
10605WAT     H143140   0.408   4.380   6.324
10605WAT     H243141   0.381   4.513   6.300
10605WAT    EPW43142   0.358   4.440   6.319
10606WAT      O43143   1.916   3.347   6.448
10606WAT     H143144   1.881   3.415   6.491
10606WAT     H243145   1.852   3.287   6.450
10606WAT    EPW43146   1.901   3.348   6.455
10607WAT      O43147   1.447   4.624   7.059
10607WAT     H143148   1.521   4.670   7.058
10607WAT     H243149   1.435   4.603   6.975
10607WAT    EPW43150   1.456   4.628   7.046
10608WAT      O43151   0.404   3.255   7.616
10608WAT     H143152   0.326   3.216   7.609
10608WAT     H243153   0.453   3.213   7.557
10608WAT    EPW43154   0.399   3.243   7.606
10609WAT      O43155   0.424   4.287   6.672
10609WAT     H143156   0.466   4.251   6.605
10609WAT     H243157   0.457   4.244   6.741
10609WAT    EPW43158   0.435   4.275   6.672
10610WAT      O43159   0.747   4.572   6.602
10610WAT     H143160   0.832   4.582   6.582
10610WAT     H243161   0.718   4.654   6.608
10610WAT    EPW43162   0.755   4.585   6.600
10611WAT      O43163   1.069   3.019   7.533
10611WAT     H143164   1.086   2.938   7.506
10611WAT     H243165   1.054   3.063   7.459
10611WAT    EPW43166   1.069   3.013   7.518
10612WAT      O43167   1.128   3.511   6.410
10612WAT     H143168   1.157   3.488   6.331
10612WAT     H243169   1.201   3.519   6.457
10612WAT    EPW43170   1.143   3.509   6.406
10613WAT      O43171   1.200   3.545   5.922
10613WAT     H143172   1.228   3.624   5.947
10613WAT     H243173   1.123   3.562   5.886
10613WAT    EPW43174   1.193   3.559   5.921
10614WAT      O43175   1.604   4.743   6.069
10614WAT     H143176   1.671   4.728   6.015
10614WAT     H243177   1.640   4.734   6.148
10614WAT    EPW43178   1.619   4.739   6.073
10615WAT      O43179   0.647   4.694   7.176
10615WAT     H143180   0.676   4.687   7.258
10615WAT     H243181   0.584   4.633   7.171
10615WAT    EPW43182   0.642   4.684   7.187
10616WAT      O43183   1.883   3.180   6.985
10616WAT     H143184   1.959   3.187   6.942
10616WAT     H243185   1.889   3.102   7.025
10616WAT    EPW43186   1.895   3.169   6.985
10617WAT      O43187   1.372   4.343   7.429
10617WAT     H143188   1.369   4.381   7.507
10617WAT     H243189   1.458   4.339   7.412
10617WAT    EPW43190   1.384   4.348   7.438
10618WAT      O43191   1.086   4.362   5.904
10618WAT     H143192   1.068   4.417   5.970
10618WAT     H243193   1.163   4.391   5.874
10618WAT    EPW43194   1.095   4.375   5.909
10619WAT      O43195   1.437   3.152   6.009
10619WAT     H143196   1.491   3.084   6.017
10619WAT     H243197   1.443   3.192   6.087
10619WAT    EPW43198   1.446   3.148   6.022
10620WAT      O43199   0.232   3.269   6.266
10620WAT     H143200   0.221   3.182   6.269
10620WAT     H243201   0.185   3.298   6.333
10620WAT    EPW43202   0.223   3.260   6.277
10621WAT      O43203   0.446   4.510   7.088
10621WAT     H143204   0.377   4.459   7.100
10621WAT     H243205   0.472   4.489   7.007
10621WAT    EPW43206   0.440   4.499   7.078
10622WAT      O43207   1.163   3.390   6.141
10622WAT     H143208   1.112   3.323   6.115
10622WAT     H243209   1.168   3.440   6.070
10622WAT    EPW43210   1.156   3.387   6.127
10623WAT      O43211   1.217   4.659   7.179
10623WAT     H143212   1.294   4.651   7.138
10623WAT     H243213   1.159   4.647   7.115
10623WAT    EPW43214   1.220   4.656   7.163
10624WAT      O43215   1.163   3.084   6.130
10624WAT     H143216   1.117   3.044   6.067
10624WAT     H243217   1.240   3.099   6.092
10624WAT    EPW43218   1.167   3.080   6.115
10625WAT      O43219   1.845   4.719   6.469
10625WAT     H143220   1.800   4.791   6.489
10625WAT     H243221   1.784   4.662   6.445
10625WAT    EPW43222   1.829   4.722   6.468
10626WAT      O43223   1.022   3.320   6.582
10626WAT     H143224   1.030   3.377   6.516
10626WAT     H243225   1.034   3.370   6.653
10626WAT    EPW43226   1.025   3.336   6.583
10627WAT      O43227   1.545   4.304   6.423
10627WAT     H143228   1.615   4.256   6.442
10627WAT     H243229   1.479   4.247   6.428
10627WAT    EPW43230   1.545   4.288   6.427
10628WAT      O43231   0.582   4.395   7.345
10628WAT     H143232   0.667   4.401   7.322
10628WAT     H243233   0.579   4.435   7.422
10628WAT    EPW43234   0.594   4.402   7.353
10629WAT      O43235   0.483   2.903   6.417
10629WAT     H143236   0.537   2.972   6.416
10629WAT     H243237   0.483   2.875   6.334
10629WAT    EPW43238   0.491   2.909   6.405
10630WAT      O43239   0.779   3.946   6.819
10630WAT     H143240   0.796   3.925   6.902
10630WAT     H243241   0.713   3.893   6.798
10630WAT    EPW43242   0.772   3.935   6.829
10631WAT      O43243   1.402   3.337   7.171
10631WAT     H143244   1.392   3.369   7.252
10631WAT     H243245   1.342   3.274   7.167
10631WAT    EPW43246   1.391   3.333   7.182
10632WAT      O43247   0.854   3.940   7.078
10632WAT     H143248   0.859   4.025   7.099
10632WAT     H243249   0.825   3.903   7.152
10632WAT    EPW43250   0.850   3.947   7.092
10633WAT      O43251   1.471   4.009   6.991
10633WAT     H143252   1.420   3.968   7.049
10633WAT     H243253   1.459   4.094   7.010
10633WAT    EPW43254   1.462   4.016   7.003
10634WAT      O43255   1.527   2.932   6.455
10634WAT     H143256   1.532   2.900   6.536
10634WAT     H243257   1.559   2.867   6.405
10634WAT    EPW43258   1.533   2.918   6.459
10635WAT      O43259   1.774   3.355   7.285
10635WAT     H143260   1.851   3.333   7.319
10635WAT     H243261   1.726   3.377   7.355
10635WAT    EPW43262   1.778   3.355   7.301
10636WAT      O43263   0.528   3.284   6.582
10636WAT     H143264   0.555   3.241   6.512
10636WAT     H243265   0.510   3.220   6.639
10636WAT    EPW43266   0.529   3.268   6.580
10637WAT      O43267   1.797   4.053   6.004
10637WAT     H143268   1.809   4.025   6.086
10637WAT     H243269   1.877   4.055   5.971
10637WAT    EPW43270   1.810   4.049   6.011
10638WAT      O43271   0.510   4.026   6.537
10638WAT     H143272   0.595   4.018   6.520
10638WAT     H243273   0.475   3.958   6.496
10638WAT    EPW43274   0.518   4.015   6.529
10639WAT      O43275   0.387   4.699   6.661
10639WAT     H143276   0.320   4.649   6.636
10639WAT     H243277   0.427   4.717   6.586
10639WAT    EPW43278   0.383   4.694   6.646
10640WAT      O43279   0.342   3.394   6.891
10640WAT     H143280   0.426   3.416   6.886
10640WAT     H243281   0.303   3.451   6.837
10640WAT    EPW43282   0.349   3.406   6.882
10641WAT      O43283   2.020   4.504   7.430
10641WAT     H143284   1.952   4.535   7.385
10641WAT     H243285   1.983   4.458   7.494
10641WAT    EPW43286   2.005   4.502   7.432
10642WAT      O43287   1.586   3.707   5.963
10642WAT     H143288   1.564   3.780   5.920
10642WAT     H243289   1.541   3.712   6.037
10642WAT    EPW43290   1.576   3.718   5.967
10643WAT      O43291   0.747   4.027   6.361
10643WAT     H143292   0.818   4.077   6.370
10643WAT     H243293   0.769   3.970   6.298
10643WAT    EPW43294   0.761   4.026   6.353
10644WAT      O43295   2.005   3.193   5.908
10644WAT     H143296   1.939   3.136   5.910
10644WAT     H243297   1.986   3.244   5.840
10644WAT    EPW43298   1.992   3.192   5.898
10645WAT      O43299   2.037   3.631   7.164
10645WAT     H143300   2.059   3.551   7.136
10645WAT     H243301   1.952   3.637   7.145
10645WAT    EPW43302   2.028   3.620   7.157
10646WAT      O43303   1.805   3.149   6.136
10646WAT     H143304   1.880   3.108   6.156
10646WAT     H243305   1.831   3.220   6.093
10646WAT    EPW43306   1.820   3.153   6.133
10647WAT      O43307   1.199   4.397   6.593
10647WAT     H143308   1.147   4.461   6.564
10647WAT     H243309   1.230   4.361   6.521
10647WAT    EPW43310   1.196   4.401   6.578
10648WAT      O43311   0.607   4.176   6.869
10648WAT     H143312   0.654   4.205   6.937
10648WAT     H243313   0.664   4.128   6.824
10648WAT    EPW43314   0.622   4.173   6.873
10649WAT      O43315   1.451   3.378   6.643
10649WAT     H143316   1.485   3.393   6.722
10649WAT     H243317   1.405   3.304   6.654
10649WAT    EPW43318   1.449   3.369   6.656
10650WAT      O43319   0.264   3.943   6.724
10650WAT     H143320   0.307   3.930   6.649
10650WAT     H243321   0.243   4.028   6.721
10650WAT    EPW43322   0.267   3.954   6.712
10651WAT      O43323   0.898   3.300   6.089
10651WAT     H143324   0.898   3.288   6.002
10651WAT     H243325   0.880   3.384   6.098
10651WAT    EPW43326   0.895   3.310   6.077
10652WAT      O43327   1.804   4.542   7.239
10652WAT     H143328   1.736   4.594   7.260
10652WAT     H243329   1.810   4.552   7.152
10652WAT    EPW43330   1.795   4.551   7.229
10653WAT      O43331   0.672   4.295   6.552
10653WAT     H143332   0.685   4.379   6.571
10653WAT     H243333   0.739   4.255   6.592
10653WAT    EPW43334   0.684   4.301   6.561
10654WAT      O43335   0.485   3.643   7.538
10654WAT     H143336   0.431   3.593   7.585
10654WAT     H243337   0.487   3.604   7.460
10654WAT    EPW43338   0.477   3.630   7.534
10655WAT      O43339   0.533   3.583   6.052
10655WAT     H143340   0.521   3.538   6.126
10655WAT     H243341   0.475   3.549   5.997
10655WAT    EPW43342   0.523   3.571   6.055
10656WAT      O43343   0.550   3.766   6.712
10656WAT     H143344   0.472   3.760   6.674
10656WAT     H243345   0.557   3.691   6.756
10656WAT    EPW43346   0.540   3.754   6.713
10657WAT      O43347   0.593   3.740   7.059
10657WAT     H143348   0.596   3.672   7.004
10657WAT     H243349   0.529   3.789   7.028
10657WAT    EPW43350   0.584   3.737   7.046
10658WAT      O43351   1.583   3.511   6.899
10658WAT     H143352   1.516   3.544   6.945
10658WAT     H243353   1.601   3.574   6.842
10658WAT    EPW43354   1.576   3.525   6.897
10659WAT      O43355   1.003   4.617   6.998
10659WAT     H143356   0.975   4.553   6.946
10659WAT     H243357   0.982   4.690   6.954
10659WAT    EPW43358   0.996   4.619   6.984
10660WAT      O43359   1.247   3.101   7.241
10660WAT     H143360   1.262   3.019   7.217
10660WAT     H243361   1.285   3.107   7.320
10660WAT    EPW43362   1.255   3.090   7.249
10661WAT      O43363   1.402   3.308   6.250
10661WAT     H143364   1.451   3.379   6.242
10661WAT     H243365   1.323   3.334   6.223
10661WAT    EPW43366   1.398   3.322   6.245
10662WAT      O43367   0.373   3.875   7.615
10662WAT     H143368   0.369   3.925   7.543
10662WAT     H243369   0.406   3.800   7.585
10662WAT    EPW43370   0.377   3.871   7.600
10663WAT      O43371   1.533   4.096   7.441
10663WAT     H143372   1.582   4.167   7.450
10663WAT     H243373   1.573   4.053   7.376
10663WAT    EPW43374   1.546   4.100   7.432
10664WAT      O43375   0.963   4.380   7.558
10664WAT     H143376   0.998   4.362   7.636
10664WAT     H243377   0.919   4.307   7.538
10664WAT    EPW43378   0.962   4.367   7.567
10665WAT      O43379   1.060   3.455   6.822
10665WAT     H143380   1.108   3.525   6.843
10665WAT     H243381   1.097   3.390   6.867
10665WAT    EPW43382   1.073   3.456   6.832
10666WAT      O43383   1.279   3.772   6.050
10666WAT     H143384   1.278   3.844   6.001
10666WAT     H243385   1.215   3.785   6.107
10666WAT    EPW43386   1.270   3.784   6.051
10667WAT      O43387   1.776   4.159   6.448
10667WAT     H143388   1.812   4.124   6.519
10667WAT     H243389   1.775   4.093   6.391
10667WAT    EPW43390   1.781   4.144   6.450
10668WAT      O43391   1.381   4.465   6.832
10668WAT     H143392   1.320   4.436   6.776
10668WAT     H243393   1.435   4.510   6.781
10668WAT    EPW43394   1.380   4.468   6.816
10669WAT      O43395   1.382   4.150   6.772
10669WAT     H143396   1.302   4.173   6.799
10669WAT     H243397   1.408   4.091   6.831
10669WAT    EPW43398   1.374   4.145   6.785
10670WAT      O43399   0.771   4.632   6.217
10670WAT     H143400   0.757   4.554   6.254
10670WAT     H243401   0.840   4.617   6.165
10670WAT    EPW43402   0.779   4.618   6.215
10671WAT      O43403   0.738   3.006   6.016
10671WAT     H143404   0.748   2.995   6.102
10671WAT     H243405   0.668   3.056   6.009
10671WAT    EPW43406   0.729   3.012   6.027
10672WAT      O43407   1.000   4.583   6.057
10672WAT     H143408   1.063   4.599   6.116
10672WAT     H243409   1.004   4.652   6.004
10672WAT    EPW43410   1.010   4.596   6.058
10673WAT      O43411   1.708   3.950   7.257
10673WAT     H143412   1.714   3.963   7.170
10673WAT     H243413   1.783   3.982   7.287
10673WAT    EPW43414   1.720   3.957   7.248
10674WAT      O43415   1.811   2.980   7.555
10674WAT     H143416   1.748   2.940   7.511
10674WAT     H243417   1.814   2.937   7.631
10674WAT    EPW43418   1.802   2.968   7.560
10675WAT      O43419   0.451   3.837   6.140
10675WAT     H143420   0.483   3.759   6.118
10675WAT     H243421   0.515   3.873   6.185
10675WAT    EPW43422   0.465   3.830   6.143
10676WAT      O43423   1.281   3.931   7.217
10676WAT     H143424   1.266   3.992   7.277
10676WAT     H243425   1.335   3.875   7.257
10676WAT    EPW43426   1.287   3.932   7.232
10677WAT      O43427   1.120   3.771   6.282
10677WAT     H143428   1.125   3.836   6.340
10677WAT     H243429   1.101   3.701   6.332
10677WAT    EPW43430   1.118   3.770   6.298
10678WAT      O43431   1.642   4.204   6.869
10678WAT     H143432   1.594   4.233   6.803
10678WAT     H243433   1.607   4.126   6.887
10678WAT    EPW43434   1.630   4.197   6.862
10679WAT      O43435   0.569   3.222   5.934
10679WAT     H143436   0.518   3.228   5.863
10679WAT     H243437   0.648   3.246   5.904
10679WAT    EPW43438   0.573   3.227   5.919
10680WAT      O43439   1.042   3.975   6.726
10680WAT     H143440   0.957   3.956   6.734
10680WAT     H243441   1.074   3.959   6.805
10680WAT    EPW43442   1.034   3.970   6.738
10681WAT      O43443   0.717   4.648   5.814
10681WAT     H143444   0.761   4.579   5.843
10681WAT     H243445   0.738   4.711   5.871
10681WAT    EPW43446   0.727   4.647   5.827
10682WAT      O43447   0.427   3.945   6.957
10682WAT     H143448   0.499   3.994   6.953
10682WAT     H243449   0.400   3.942   6.874
10682WAT    EPW43450   0.433   3.952   6.944
10683WAT      O43451   0.750   3.462   6.631
10683WAT     H143452   0.834   3.443   6.640
10683WAT     H243453   0.713   3.384   6.617
10683WAT    EPW43454   0.757   3.448   6.630
10684WAT      O43455   2.011   4.620   6.063
10684WAT     H143456   2.081   4.574   6.039
10684WAT     H243457   1.957   4.560   6.097
10684WAT    EPW43458   2.014   4.604   6.065
10685WAT      O43459   0.232   3.596   6.296
10685WAT     H143460   0.281   3.566   6.362
10685WAT     H243461   0.245   3.536   6.233
10685WAT    EPW43462   0.241   3.583   6.297
10686WAT      O43463   1.735   3.898   6.981
10686WAT     H143464   1.735   3.820   7.021
10686WAT     H243465   1.651   3.921   6.981
10686WAT    EPW43466   1.723   3.890   6.987
10687WAT      O43467   0.684   3.739   5.845
10687WAT     H143468   0.623   3.699   5.892
10687WAT     H243469   0.646   3.751   5.767
10687WAT    EPW43470   0.670   3.735   5.840
10688WAT      O43471   0.366   4.050   7.385
10688WAT     H143472   0.324   3.998   7.329
10688WAT     H243473   0.331   4.129   7.371
10688WAT    EPW43474   0.355   4.054   7.375
10689WAT      O43475   1.861   3.905   6.725
10689WAT     H143476   1.832   3.945   6.797
10689WAT     H243477   1.947   3.899   6.738
10689WAT    EPW43478   1.869   3.910   6.737
10690WAT      O43479   0.830   3.585   6.116
10690WAT     H143480   0.857   3.668   6.122
10690WAT     H243481   0.743   3.593   6.106
10690WAT    EPW43482   0.821   3.598   6.115
10691WAT      O43483   1.627   3.297   7.579
10691WAT     H143484   1.575   3.343   7.631
10691WAT     H243485   1.591   3.218   7.578
10691WAT    EPW43486   1.614   3.292   7.587
10692WAT      O43487   0.178   3.182   6.769
10692WAT     H143488   0.182   3.217   6.689
10692WAT     H243489   0.253   3.206   6.806
10692WAT    EPW43490   0.190   3.191   6.763
10693WAT      O43491   1.974   4.468   6.778
10693WAT     H143492   2.003   4.494   6.700
10693WAT     H243493   2.043   4.478   6.830
10693WAT    EPW43494   1.989   4.473   6.774
10694WAT      O43495   1.476   3.654   7.587
10694WAT     H143496   1.484   3.665   7.673
10694WAT     H243497   1.413   3.710   7.564
10694WAT    EPW43498   1.468   3.664   7.596
10695WAT      O43499   1.703   3.686   7.423
10695WAT     H143500   1.735   3.765   7.443
10695WAT     H243501   1.666   3.659   7.497
10695WAT    EPW43502   1.702   3.694   7.437
10696WAT      O43503   1.634   4.329   5.976
10696WAT     H143504   1.668   4.248   5.980
10696WAT     H243505   1.559   4.321   6.019
10696WAT    EPW43506   1.628   4.316   5.983
10697WAT      O43507   1.683   3.512   6.542
10697WAT     H143508   1.608   3.480   6.574
10697WAT     H243509   1.683   3.595   6.570
10697WAT    EPW43510   1.672   3.519   6.551
10698WAT      O43511   1.927   4.108   7.317
10698WAT     H143512   1.989   4.053   7.292
10698WAT     H243513   1.921   4.164   7.251
10698WAT    EPW43514   1.935   4.108   7.304
10699WAT      O43515   1.372   4.116   5.916
10699WAT     H143516   1.440   4.065   5.899
10699WAT     H243517   1.330   4.121   5.840
10699WAT    EPW43518   1.376   4.109   5.903
10700WAT      O43519   0.840   4.231   7.047
10700WAT     H143520   0.810   4.290   7.103
10700WAT     H243521   0.846   4.275   6.972
10700WAT    EPW43522   0.836   4.246   7.044
10701WAT      O43523   0.638   4.126   7.387
10701WAT     H143524   0.557   4.097   7.403
10701WAT     H243525   0.629   4.213   7.387
10701WAT    EPW43526   0.625   4.135   7.389
10702WAT      O43527   1.574   3.145   7.288
10702WAT     H143528   1.648   3.190   7.282
10702WAT     H243529   1.517   3.192   7.241
10702WAT    EPW43530   1.577   3.159   7.280
10703WAT      O43531   1.092   3.873   6.996
10703WAT     H143532   1.139   3.911   7.059
10703WAT     H243533   1.009   3.887   7.022
10703WAT    EPW43534   1.087   3.881   7.009
10704WAT      O43535   0.763   3.434   7.270
10704WAT     H143536   0.779   3.359   7.313
10704WAT     H243537   0.758   3.409   7.186
10704WAT    EPW43538   0.764   3.419   7.264
10705WAT      O43539   1.018   4.613   6.519
10705WAT     H143540   1.073   4.681   6.524
10705WAT     H243541   0.983   4.621   6.439
10705WAT    EPW43542   1.021   4.624   6.508
10706WAT      O43543   1.702   2.943   7.055
10706WAT     H143544   1.674   3.025   7.051
10706WAT     H243545   1.774   2.948   7.105
10706WAT    EPW43546   1.709   2.956   7.062
10707WAT      O43547   0.938   3.014   7.258
10707WAT     H143548   1.008   3.046   7.218
10707WAT     H243549   0.962   2.934   7.281
10707WAT    EPW43550   0.952   3.007   7.255
10708WAT      O43551   0.836   4.435   6.858
10708WAT     H143552   0.774   4.494   6.839
10708WAT     H243553   0.861   4.407   6.779
10708WAT    EPW43554   0.831   4.440   6.843
10709WAT      O43555   1.267   4.099   7.556
10709WAT     H143556   1.343   4.127   7.524
10709WAT     H243557   1.213   4.104   7.489
10709WAT    EPW43558   1.270   4.104   7.542
10710WAT      O43559   1.658   4.354   7.407
10710WAT     H143560   1.693   4.381   7.482
10710WAT     H243561   1.688   4.412   7.349
10710WAT    EPW43562   1.668   4.366   7.409
10711WAT      O43563   1.844   3.568   5.941
10711WAT     H143564   1.882   3.636   5.901
10711WAT     H243565   1.760   3.591   5.944
10711WAT    EPW43566   1.838   3.582   5.935
10712WAT      O43567   0.996   3.913   5.849
10712WAT     H143568   0.915   3.895   5.821
10712WAT     H243569   0.992   3.998   5.868
10712WAT    EPW43570   0.983   3.923   5.848
10713WAT      O43571   0.589   3.520   6.864
10713WAT     H143572   0.633   3.509   6.789
10713WAT     H243573   0.643   3.488   6.925
10713WAT    EPW43574   0.603   3.514   6.862
10714WAT      O43575   1.390   3.430   7.423
10714WAT     H143576   1.326   3.477   7.458
10714WAT     H243577   1.447   3.421   7.489
10714WAT    EPW43578   1.389   3.436   7.438
10715WAT      O43579   1.359   3.584   7.053
10715WAT     H143580   1.389   3.626   7.123
10715WAT     H243581   1.363   3.500   7.076
10715WAT    EPW43582   1.364   3.577   7.067
10716WAT      O43583   1.102   4.600   7.446
10716WAT     H143584   1.149   4.540   7.404
10716WAT     H243585   1.067   4.556   7.512
10716WAT    EPW43586   1.104   4.585   7.449
10717WAT      O43587   1.614   3.528   6.278
10717WAT     H143588   1.635   3.508   6.361
10717WAT     H243589   1.690   3.555   6.244
10717WAT    EPW43590   1.628   3.529   6.285
10718WAT      O43591   0.943   3.018   6.869
10718WAT     H143592   0.861   3.003   6.892
10718WAT     H243593   0.939   3.022   6.782
10718WAT    EPW43594   0.931   3.017   6.859
10719WAT      O43595   1.716   3.137   6.426
10719WAT     H143596   1.645   3.090   6.443
10719WAT     H243597   1.700   3.171   6.347
10719WAT    EPW43598   1.703   3.135   6.417
10720WAT      O43599   1.760   3.931   6.264
10720WAT     H143600   1.808   3.858   6.259
10720WAT     H243601   1.678   3.902   6.256
10720WAT    EPW43602   1.755   3.916   6.262
10721WAT      O43603   1.108   4.122   7.348
10721WAT     H143604   1.028   4.116   7.383
10721WAT     H243605   1.115   4.207   7.328
10721WAT    EPW43606   1.097   4.134   7.350
10722WAT      O43607   0.691   4.743   6.879
10722WAT     H143608   0.692   4.749   6.966
10722WAT     H243609   0.648   4.668   6.864
10722WAT    EPW43610   0.684   4.733   6.890
10723WAT      O43611   0.506   3.332   6.195
10723WAT     H143612   0.519   3.300   6.115
10723WAT     H243613   0.425   3.308   6.215
10723WAT    EPW43614   0.496   3.324   6.186
10724WAT      O43615   1.382   4.048   6.499
10724WAT     H143616   1.390   4.082   6.579
10724WAT     H243617   1.399   3.963   6.511
10724WAT    EPW43618   1.386   4.040   6.513
10725WAT      O43619   1.134   3.975   6.456
10725WAT     H143620   1.104   3.944   6.531
10725WAT     H243621   1.204   4.022   6.479
10725WAT    EPW43622   1.140   3.977   6.470
10726WAT      O43623   1.156   4.387   7.258
10726WAT     H143624   1.225   4.376   7.311
10726WAT     H243625   1.170   4.466   7.224
10726WAT    EPW43626   1.169   4.397   7.261
10727WAT      O43627   1.974   3.648   7.439
10727WAT     H143628   1.889   3.636   7.452
10727WAT     H243629   1.989   3.608   7.363
10727WAT    EPW43630   1.964   3.640   7.430
10728WAT      O43631   1.425   3.714   7.297
10728WAT     H143632   1.400   3.642   7.339
10728WAT     H243633   1.507   3.726   7.324
10728WAT    EPW43634   1.434   3.705   7.307
10729WAT      O43635   0.367   4.693   7.423
10729WAT     H143636   0.302   4.636   7.433
10729WAT     H243637   0.329   4.770   7.439
10729WAT    EPW43638   0.352   4.696   7.427
10730WAT      O43639   1.219   3.833   7.616
10730WAT     H143640   1.251   3.902   7.573
10730WAT     H243641   1.148   3.866   7.656
10730WAT    EPW43642   1.213   3.848   7.615
10731WAT      O43643   1.527   4.671   6.709
10731WAT     H143644   1.482   4.735   6.747
10731WAT     H243645   1.598   4.663   6.759
10731WAT    EPW43646   1.531   4.679   6.722
10732WAT      O43647   1.197   4.180   7.002
10732WAT     H143648   1.128   4.220   7.036
10732WAT     H243649   1.265   4.223   7.036
10732WAT    EPW43650   1.197   4.192   7.012
10733WAT      O43651   0.504   3.534   7.236
10733WAT     H143652   0.542   3.595   7.188
10733WAT     H243653   0.571   3.486   7.265
10733WAT    EPW43654   0.520   3.536   7.233
10734WAT      O43655   0.282   3.378   7.164
10734WAT     H143656   0.289   3.361   7.079
10734WAT     H243657   0.356   3.419   7.184
10734WAT    EPW43658   0.294   3.382   7.154
10735WAT      O43659   1.837   3.642   6.208
10735WAT     H143660   1.848   3.637   6.121
10735WAT     H243661   1.912   3.609   6.240
10735WAT    EPW43662   1.850   3.637   6.200
10736WAT      O43663   0.537   3.119   7.405
10736WAT     H143664   0.529   3.035   7.426
10736WAT     H243665   0.506   3.124   7.324
10736WAT    EPW43666   0.531   3.108   7.396
10737WAT      O43667   1.229   4.339   6.319
10737WAT     H143668   1.209   4.422   6.303
10737WAT     H243669   1.152   4.301   6.331
10737WAT    EPW43670   1.215   4.346   6.318
10738WAT      O43671   1.748   3.657   7.143
10738WAT     H143672   1.747   3.571   7.156
10738WAT     H243673   1.754   3.689   7.224
10738WAT    EPW43674   1.749   3.649   7.157
10739WAT      O43675   0.221   3.901   7.186
10739WAT     H143676   0.253   3.923   7.108
10739WAT     H243677   0.211   3.814   7.181
10739WAT    EPW43678   0.224   3.891   7.174
10740WAT      O43679   0.367   3.495   5.848
10740WAT     H143680   0.300   3.496   5.904
10740WAT     H243681   0.376   3.410   5.830
10740WAT    EPW43682   0.358   3.482   5.854
10741WAT      O43683   1.336   3.137   7.522
10741WAT     H143684   1.345   3.208   7.571
10741WAT     H243685   1.272   3.092   7.561
10741WAT    EPW43686   1.327   3.141   7.535
10742WAT      O43687   1.235   3.156   6.607
10742WAT     H143688   1.165   3.208   6.601
10742WAT     H243689   1.239   3.118   6.529
10742WAT    EPW43690   1.225   3.158   6.595
10743WAT      O43691   0.766   4.365   5.959
10743WAT     H143692   0.810   4.373   6.034
10743WAT     H243693   0.685   4.343   5.985
10743WAT    EPW43694   0.760   4.363   5.974
10744WAT      O43695   1.595   3.208   6.887
10744WAT     H143696   1.680   3.217   6.902
10744WAT     H243697   1.558   3.263   6.944
10744WAT    EPW43698   1.602   3.217   6.898
10745WAT      O43699   0.698   3.830   7.325
10745WAT     H143700   0.658   3.908   7.332
10745WAT     H243701   0.657   3.793   7.257
10745WAT    EPW43702   0.686   3.836   7.316
10746WAT      O43703   1.625   3.736   6.736
10746WAT     H143704   1.692   3.790   6.752
10746WAT     H243705   1.591   3.767   6.662
10746WAT    EPW43706   1.630   3.748   6.728
10747WAT      O43707   1.656   4.542   6.317
10747WAT     H143708   1.639   4.477   6.372
10747WAT     H243709   1.728   4.515   6.275
10747WAT    EPW43710   1.664   4.528   6.319
10748WAT      O43711   0.499   4.272   6.020
10748WAT     H143712   0.474   4.241   6.098
10748WAT     H243713   0.495   4.202   5.968
10748WAT    EPW43714   0.494   4.257   6.023
10749WAT      O43715   0.780   4.097   5.894
10749WAT     H143716   0.699   4.070   5.908
10749WAT     H243717   0.778   4.182   5.912
10749WAT    EPW43718   0.768   4.105   5.899
10750WAT      O43719   0.740   3.128   7.070
10750WAT     H143720   0.654   3.136   7.078
10750WAT     H243721   0.762   3.076   7.137
10750WAT    EPW43722   0.731   3.122   7.081
10751WAT      O43723   1.942   2.991   7.203
10751WAT     H143724   1.937   2.987   7.290
10751WAT     H243725   2.011   2.941   7.184
10751WAT    EPW43726   1.952   2.983   7.213
10752WAT      O43727   1.151   3.203   6.907
10752WAT     H143728   1.077   3.157   6.918
10752WAT     H243729   1.208   3.162   6.959
10752WAT    EPW43730   1.148   3.190   6.917
10753WAT      O43731   1.424   4.287   7.086
10753WAT     H143732   1.445   4.318   7.165
10753WAT     H243733   1.418   4.360   7.037
10753WAT    EPW43734   1.426   4.303   7.090
10754WAT      O43735   1.377   4.709   7.511
10754WAT     H143736   1.302   4.707   7.466
10754WAT     H243737   1.394   4.794   7.519
10754WAT    EPW43738   1.369   4.721   7.505
10755WAT      O43739   0.901   3.636   7.428
10755WAT     H143740   0.869   3.578   7.371
10755WAT     H243741   0.865   3.711   7.403
10755WAT    EPW43742   0.891   3.638   7.416
10756WAT      O43743   0.981   2.961   5.890
10756WAT     H143744   0.988   2.985   5.807
10756WAT     H243745   0.906   2.998   5.916
10756WAT    EPW43746   0.971   2.970   5.882
10757WAT      O43747   1.905   4.151   7.032
10757WAT     H143748   1.902   4.065   7.018
10757WAT     H243749   1.836   4.182   6.988
10757WAT    EPW43750   1.894   4.143   7.023
10758WAT      O43751   0.745   4.671   7.452
10758WAT     H143752   0.749   4.684   7.539
10758WAT     H243753   0.810   4.615   7.437
10758WAT    EPW43754   0.755   4.665   7.463
10759WAT      O43755   1.716   4.477   6.911
10759WAT     H143756   1.768   4.469   6.842
10759WAT     H243757   1.677   4.400   6.917
10759WAT    EPW43758   1.718   4.465   6.902
10760WAT      O43759   0.462   3.136   7.135
10760WAT     H143760   0.428   3.059   7.111
10760WAT     H243761   0.393   3.189   7.141
10760WAT    EPW43762   0.447   3.133   7.132
10761WAT      O43763   1.367   3.022   6.832
10761WAT     H143764   1.434   3.076   6.845
10761WAT     H243765   1.317   3.064   6.775
10761WAT    EPW43766   1.370   3.036   6.826
10762WAT      O43767   0.504   4.509   7.588
10762WAT     H143768   0.563   4.553   7.636
10762WAT     H243769   0.467   4.572   7.539
10762WAT    EPW43770   0.507   4.525   7.588
10763WAT      O43771   1.303   3.603   6.582
10763WAT     H143772   1.358   3.542   6.612
10763WAT     H243773   1.260   3.629   6.653
10763WAT    EPW43774   1.305   3.597   6.596
10764WAT      O43775   0.328   3.468   6.530
10764WAT     H143776   0.291   3.498   6.603
10764WAT     H243777   0.381   3.405   6.559
10764WAT    EPW43778   0.330   3.463   6.545
10765WAT      O43779   0.297   4.308   7.281
10765WAT     H143780   0.239   4.350   7.332
10765WAT     H243781   0.370   4.355   7.291
10765WAT    EPW43782   0.299   4.321   7.290
10766WAT      O43783   1.500   3.786   6.238
10766WAT     H143784   1.507   3.701   6.256
10766WAT     H243785   1.418   3.794   6.210
10766WAT    EPW43786   1.489   3.774   6.236
10767WAT      O43787   0.475   4.635   6.159
10767WAT     H143788   0.461   4.651   6.074
10767WAT     H243789   0.562   4.643   6.167
10767WAT    EPW43790   0.486   4.639   6.147
10768WAT      O43791   0.892   3.875   6.132
10768WAT     H143792   0.902   3.889   6.046
10768WAT     H243793   0.974   3.869   6.161
10768WAT    EPW43794   0.905   3.876   6.123
10769WAT      O43795   1.808   4.681   5.880
10769WAT     H143796   1.872   4.668   5.938
10769WAT     H243797   1.774   4.602   5.868
10769WAT    EPW43798   1.812   4.667   5.886
10770WAT      O43799   1.827   3.923   7.553
10770WAT     H143800   1.891   3.906   7.610
10770WAT     H243801   1.869   3.963   7.488
10770WAT    EPW43802   1.843   3.926   7.552
10771WAT      O43803   1.415   4.308   6.112
10771WAT     H143804   1.390   4.295   6.194
10771WAT     H243805   1.384   4.238   6.070
10771WAT    EPW43806   1.407   4.296   6.118
10772WAT      O43807   1.890   3.379   7.627
10772WAT     H143808   1.870   3.444   7.682
10772WAT     H243809   1.818   3.330   7.626
10772WAT    EPW43810   1.876   3.382   7.635
10773WAT      O43811   1.880   3.473   6.924
10773WAT     H143812   1.796   3.498   6.917
10773WAT     H243813   1.874   3.389   6.947
10773WAT    EPW43814   1.867   3.465   6.926
10774WAT      O43815   0.806   3.172   7.443
10774WAT     H143816   0.829   3.115   7.382
10774WAT     H243817   0.722   3.154   7.457
10774WAT    EPW43818   0.797   3.161   7.436
10775WAT      O43819   1.568   3.934   7.688
10775WAT     H143820   1.656   3.930   7.685
10775WAT     H243821   1.547   3.976   7.615
10775WAT    EPW43822   1.578   3.940   7.677
10776WAT      O43823   0.544   4.517   6.806
10776WAT     H143824   0.536   4.436   6.775
10776WAT     H243825   0.499   4.565   6.749
10776WAT    EPW43826   0.536   4.512   6.793
10777WAT      O43827   1.104   4.128   6.055
10777WAT     H143828   1.176   4.094   6.019
10777WAT     H243829   1.101   4.208   6.020
10777WAT    EPW43830   1.114   4.135   6.044
10778WAT      O43831   0.301   4.741   7.165
10778WAT     H143832   0.350   4.735   7.236
10778WAT     H243833   0.320   4.668   7.121
10778WAT    EPW43834   0.311   4.729   7.169
10779WAT      O43835   1.245   2.993   4.479
10779WAT     H143836   1.220   3.041   4.411
10779WAT     H243837   1.331   2.985   4.469
10779WAT    EPW43838   1.254   2.999   4.467
10780WAT      O43839   1.226   3.684   4.946
10780WAT     H143840   1.173   3.744   4.982
10780WAT     H243841   1.265   3.647   5.014
10780WAT    EPW43842   1.224   3.688   4.961
10781WAT      O43843   1.840   4.428   4.243
10781WAT     H143844   1.910   4.376   4.242
10781WAT     H243845   1.781   4.384   4.196
10781WAT    EPW43846   1.842   4.414   4.236
10782WAT      O43847   0.501   4.004   4.009
10782WAT     H143848   0.462   3.967   3.941
10782WAT     H243849   0.493   3.944   4.072
10782WAT    EPW43850   0.494   3.989   4.008
10783WAT      O43851   1.493   3.791   4.613
10783WAT     H143852   1.501   3.791   4.526
10783WAT     H243853   1.434   3.728   4.628
10783WAT    EPW43854   1.485   3.782   4.603
10784WAT      O43855   0.464   4.168   4.399
10784WAT     H143856   0.524   4.151   4.460
10784WAT     H243857   0.388   4.154   4.441
10784WAT    EPW43858   0.461   4.163   4.414
10785WAT      O43859   0.892   3.101   4.394
10785WAT     H143860   0.885   3.169   4.340
10785WAT     H243861   0.966   3.062   4.369
10785WAT    EPW43862   0.902   3.106   4.382
10786WAT      O43863   0.353   4.477   4.007
10786WAT     H143864   0.399   4.485   3.934
10786WAT     H243865   0.398   4.419   4.054
10786WAT    EPW43866   0.366   4.470   4.003
10787WAT      O43867   0.864   4.124   5.624
10787WAT     H143868   0.840   4.124   5.708
10787WAT     H243869   0.789   4.109   5.581
10787WAT    EPW43870   0.849   4.122   5.630
10788WAT      O43871   0.351   3.824   4.537
10788WAT     H143872   0.305   3.785   4.474
10788WAT     H243873   0.421   3.772   4.546
10788WAT    EPW43874   0.355   3.810   4.529
10789WAT      O43875   0.802   3.385   5.072
10789WAT     H143876   0.870   3.387   5.017
10789WAT     H243877   0.798   3.301   5.096
10789WAT    EPW43878   0.811   3.373   5.067
10790WAT      O43879   0.862   4.443   5.350
10790WAT     H143880   0.876   4.519   5.309
10790WAT     H243881   0.941   4.407   5.353
10790WAT    EPW43882   0.876   4.449   5.344
10791WAT      O43883   0.551   3.634   4.539
10791WAT     H143884   0.633   3.615   4.564
10791WAT     H243885   0.504   3.572   4.579
10791WAT    EPW43886   0.556   3.622   4.549
10792WAT      O43887   0.972   4.232   4.800
10792WAT     H143888   1.007   4.152   4.803
10792WAT     H243889   1.038   4.282   4.775
10792WAT    EPW43890   0.987   4.227   4.797
10793WAT      O43891   0.977   4.177   4.421
10793WAT     H143892   1.011   4.112   4.470
10793WAT     H243893   1.001   4.156   4.340
10793WAT    EPW43894   0.986   4.164   4.417
10794WAT      O43895   1.174   3.590   5.555
10794WAT     H143896   1.089   3.580   5.538
10794WAT     H243897   1.177   3.664   5.601
10794WAT    EPW43898   1.162   3.599   5.559
10795WAT      O43899   0.611   3.143   4.466
10795WAT     H143900   0.581   3.193   4.401
10795WAT     H243901   0.698   3.151   4.460
10795WAT    EPW43902   0.619   3.152   4.456
10796WAT      O43903   1.630   2.886   5.467
10796WAT     H143904   1.614   2.963   5.429
10796WAT     H243905   1.553   2.864   5.501
10796WAT    EPW43906   1.616   2.894   5.466
10797WAT      O43907   0.909   3.057   4.688
10797WAT     H143908   0.916   3.143   4.701
10797WAT     H243909   0.905   3.050   4.601
10797WAT    EPW43910   0.909   3.069   4.677
10798WAT      O43911   1.376   3.350   3.918
10798WAT     H143912   1.331   3.418   3.949
10798WAT     H243913   1.388   3.300   3.988
10798WAT    EPW43914   1.371   3.353   3.933
10799WAT      O43915   0.772   4.355   4.376
10799WAT     H143916   0.714   4.328   4.436
10799WAT     H243917   0.834   4.294   4.379
10799WAT    EPW43918   0.773   4.342   4.385
10800WAT      O43919   1.386   4.584   4.129
10800WAT     H143920   1.459   4.631   4.139
10800WAT     H243921   1.409   4.505   4.157
10800WAT    EPW43922   1.400   4.579   4.134
10801WAT      O43923   1.203   4.623   4.328
10801WAT     H143924   1.224   4.676   4.394
10801WAT     H243925   1.280   4.606   4.290
10801WAT    EPW43926   1.217   4.628   4.332
10802WAT      O43927   0.500   3.082   4.887
10802WAT     H143928   0.448   3.019   4.857
10802WAT     H243929   0.559   3.038   4.935
10802WAT    EPW43930   0.501   3.066   4.890
10803WAT      O43931   0.830   3.295   5.817
10803WAT     H143932   0.842   3.249   5.744
10803WAT     H243933   0.859   3.375   5.797
10803WAT    EPW43934   0.836   3.300   5.803
10804WAT      O43935   0.342   4.438   4.421
10804WAT     H143936   0.408   4.380   4.423
10804WAT     H243937   0.381   4.513   4.399
10804WAT    EPW43938   0.358   4.440   4.418
10805WAT      O43939   1.916   3.347   4.548
10805WAT     H143940   1.881   3.415   4.590
10805WAT     H243941   1.852   3.287   4.549
10805WAT    EPW43942   1.901   3.348   4.554
10806WAT      O43943   1.447   4.624   5.158
10806WAT     H143944   1.521   4.670   5.157
10806WAT     H243945   1.435   4.603   5.074
10806WAT    EPW43946   1.456   4.628   5.146
10807WAT      O43947   0.404   3.255   5.716
10807WAT     H143948   0.326   3.216   5.708
10807WAT     H243949   0.453   3.213   5.657
10807WAT    EPW43950   0.399   3.243   5.706
10808WAT      O43951   0.424   4.287   4.771
10808WAT     H143952   0.466   4.251   4.704
10808WAT     H243953   0.457   4.244   4.841
10808WAT    EPW43954   0.435   4.275   4.772
10809WAT      O43955   0.747   4.572   4.701
10809WAT     H143956   0.832   4.582   4.682
10809WAT     H243957   0.718   4.654   4.708
10809WAT    EPW43958   0.755   4.585   4.699
10810WAT      O43959   1.069   3.019   5.632
10810WAT     H143960   1.086   2.938   5.605
10810WAT     H243961   1.054   3.063   5.559
10810WAT    EPW43962   1.069   3.013   5.617
10811WAT      O43963   1.128   3.511   4.510
10811WAT     H143964   1.157   3.488   4.431
10811WAT     H243965   1.201   3.519   4.557
10811WAT    EPW43966   1.143   3.509   4.505
10812WAT      O43967   1.200   3.545   4.022
10812WAT     H143968   1.228   3.624   4.047
10812WAT     H243969   1.123   3.562   3.986
10812WAT    EPW43970   1.193   3.559   4.020
10813WAT      O43971   1.604   4.743   4.169
10813WAT     H143972   1.671   4.728   4.114
10813WAT     H243973   1.640   4.734   4.248
10813WAT    EPW43974   1.619   4.739   4.172
10814WAT      O43975   0.647   4.694   5.275
10814WAT     H143976   0.676   4.687   5.357
10814WAT     H243977   0.584   4.633   5.271
10814WAT    EPW43978   0.642   4.684   5.287
10815WAT      O43979   1.883   3.180   5.085
10815WAT     H143980   1.959   3.187   5.042
10815WAT     H243981   1.889   3.102   5.124
10815WAT    EPW43982   1.895   3.169   5.084
10816WAT      O43983   1.372   4.343   5.528
10816WAT     H143984   1.369   4.381   5.607
10816WAT     H243985   1.458   4.339   5.511
10816WAT    EPW43986   1.384   4.348   5.538
10817WAT      O43987   1.086   4.362   4.003
10817WAT     H143988   1.068   4.417   4.069
10817WAT     H243989   1.163   4.391   3.973
10817WAT    EPW43990   1.095   4.375   4.009
10818WAT      O43991   1.437   3.152   4.109
10818WAT     H143992   1.491   3.084   4.116
10818WAT     H243993   1.443   3.192   4.186
10818WAT    EPW43994   1.446   3.148   4.121
10819WAT      O43995   0.232   3.269   4.366
10819WAT     H143996   0.221   3.182   4.369
10819WAT     H243997   0.185   3.298   4.433
10819WAT    EPW43998   0.223   3.260   4.376
10820WAT      O43999   0.446   4.510   5.187
10820WAT     H144000   0.377   4.459   5.200
10820WAT     H244001   0.472   4.489   5.106
10820WAT    EPW44002   0.440   4.499   5.177
10821WAT      O44003   1.163   3.390   4.240
10821WAT     H144004   1.112   3.323   4.215
10821WAT     H244005   1.168   3.440   4.169
10821WAT    EPW44006   1.156   3.387   4.226
10822WAT      O44007   1.217   4.659   5.278
10822WAT     H144008   1.294   4.651   5.238
10822WAT     H244009   1.159   4.647   5.214
10822WAT    EPW44010   1.220   4.656   5.263
10823WAT      O44011   1.163   3.084   4.229
10823WAT     H144012   1.117   3.044   4.167
10823WAT     H244013   1.240   3.099   4.192
10823WAT    EPW44014   1.167   3.080   4.215
10824WAT      O44015   1.845   4.719   4.568
10824WAT     H144016   1.800   4.791   4.588
10824WAT     H244017   1.784   4.662   4.544
10824WAT    EPW44018   1.829   4.722   4.568
10825WAT      O44019   1.022   3.320   4.682
10825WAT     H144020   1.030   3.377   4.616
10825WAT     H244021   1.034   3.370   4.753
10825WAT    EPW44022   1.025   3.336   4.682
10826WAT      O44023   1.545   4.304   4.523
10826WAT     H144024   1.615   4.256   4.542
10826WAT     H244025   1.479   4.247   4.527
10826WAT    EPW44026   1.545   4.288   4.526
10827WAT      O44027   0.582   4.395   5.444
10827WAT     H144028   0.667   4.401   5.422
10827WAT     H244029   0.579   4.435   5.522
10827WAT    EPW44030   0.594   4.402   5.452
10828WAT      O44031   0.483   2.903   4.516
10828WAT     H144032   0.537   2.972   4.515
10828WAT     H244033   0.483   2.875   4.434
10828WAT    EPW44034   0.491   2.909   4.504
10829WAT      O44035   0.779   3.946   4.919
10829WAT     H144036   0.796   3.925   5.002
10829WAT     H244037   0.713   3.893   4.897
10829WAT    EPW44038   0.772   3.935   4.928
10830WAT      O44039   1.402   3.337   5.270
10830WAT     H144040   1.392   3.369   5.351
10830WAT     H244041   1.342   3.274   5.267
10830WAT    EPW44042   1.391   3.333   5.282
10831WAT      O44043   0.854   3.940   5.178
10831WAT     H144044   0.859   4.025   5.198
10831WAT     H244045   0.825   3.903   5.252
10831WAT    EPW44046   0.850   3.947   5.192
10832WAT      O44047   1.471   4.009   5.091
10832WAT     H144048   1.420   3.968   5.148
10832WAT     H244049   1.459   4.094   5.109
10832WAT    EPW44050   1.462   4.016   5.102
10833WAT      O44051   1.527   2.932   4.554
10833WAT     H144052   1.532   2.900   4.635
10833WAT     H244053   1.559   2.867   4.505
10833WAT    EPW44054   1.533   2.918   4.559
10834WAT      O44055   1.774   3.355   5.385
10834WAT     H144056   1.851   3.333   5.418
10834WAT     H244057   1.726   3.377   5.455
10834WAT    EPW44058   1.778   3.355   5.400
10835WAT      O44059   0.528   3.284   4.682
10835WAT     H144060   0.555   3.241   4.611
10835WAT     H244061   0.510   3.220   4.739
10835WAT    EPW44062   0.529   3.268   4.680
10836WAT      O44063   1.797   4.053   4.104
10836WAT     H144064   1.809   4.025   4.185
10836WAT     H244065   1.877   4.055   4.071
10836WAT    EPW44066   1.810   4.049   4.111
10837WAT      O44067   0.510   4.026   4.637
10837WAT     H144068   0.595   4.018   4.619
10837WAT     H244069   0.475   3.958   4.595
10837WAT    EPW44070   0.518   4.015   4.628
10838WAT      O44071   0.387   4.699   4.760
10838WAT     H144072   0.320   4.649   4.736
10838WAT     H244073   0.427   4.717   4.685
10838WAT    EPW44074   0.383   4.694   4.746
10839WAT      O44075   0.342   3.394   4.990
10839WAT     H144076   0.426   3.416   4.986
10839WAT     H244077   0.303   3.451   4.937
10839WAT    EPW44078   0.349   3.406   4.981
10840WAT      O44079   2.020   4.504   5.529
10840WAT     H144080   1.952   4.535   5.484
10840WAT     H244081   1.983   4.458   5.593
10840WAT    EPW44082   2.005   4.502   5.532
10841WAT      O44083   1.586   3.707   4.062
10841WAT     H144084   1.564   3.780   4.020
10841WAT     H244085   1.541   3.712   4.137
10841WAT    EPW44086   1.576   3.718   4.067
10842WAT      O44087   0.747   4.027   4.460
10842WAT     H144088   0.818   4.077   4.469
10842WAT     H244089   0.769   3.970   4.398
10842WAT    EPW44090   0.761   4.026   4.452
10843WAT      O44091   2.005   3.193   4.007
10843WAT     H144092   1.939   3.136   4.010
10843WAT     H244093   1.986   3.244   3.939
10843WAT    EPW44094   1.992   3.192   3.998
10844WAT      O44095   0.927   3.562   5.802
10844WAT     H144096   0.879   3.620   5.846
10844WAT     H244097   0.925   3.592   5.720
10844WAT    EPW44098   0.920   3.575   5.796
10845WAT      O44099   2.037   3.631   5.263
10845WAT     H144100   2.059   3.551   5.235
10845WAT     H244101   1.952   3.637   5.244
10845WAT    EPW44102   2.028   3.620   5.256
10846WAT      O44103   1.805   3.149   4.235
10846WAT     H144104   1.880   3.108   4.255
10846WAT     H244105   1.831   3.220   4.193
10846WAT    EPW44106   1.820   3.153   4.232
10847WAT      O44107   1.199   4.397   4.693
10847WAT     H144108   1.147   4.461   4.664
10847WAT     H244109   1.230   4.361   4.620
10847WAT    EPW44110   1.196   4.401   4.678
10848WAT      O44111   0.607   4.176   4.969
10848WAT     H144112   0.654   4.205   5.037
10848WAT     H244113   0.664   4.128   4.923
10848WAT    EPW44114   0.622   4.173   4.972
10849WAT      O44115   1.451   3.378   4.743
10849WAT     H144116   1.485   3.393   4.821
10849WAT     H244117   1.405   3.304   4.754
10849WAT    EPW44118   1.449   3.369   4.756
10850WAT      O44119   0.264   3.943   4.823
10850WAT     H144120   0.307   3.930   4.749
10850WAT     H244121   0.243   4.028   4.821
10850WAT    EPW44122   0.267   3.954   4.812
10851WAT      O44123   0.898   3.300   4.188
10851WAT     H144124   0.898   3.288   4.102
10851WAT     H244125   0.880   3.384   4.197
10851WAT    EPW44126   0.895   3.310   4.177
10852WAT      O44127   1.804   4.542   5.338
10852WAT     H144128   1.736   4.594   5.360
10852WAT     H244129   1.810   4.552   5.252
10852WAT    EPW44130   1.795   4.551   5.328
10853WAT      O44131   0.672   4.295   4.651
10853WAT     H144132   0.685   4.379   4.670
10853WAT     H244133   0.739   4.255   4.691
10853WAT    EPW44134   0.684   4.301   4.660
10854WAT      O44135   0.485   3.643   5.638
10854WAT     H144136   0.431   3.593   5.684
10854WAT     H244137   0.487   3.604   5.560
10854WAT    EPW44138   0.477   3.630   5.633
10855WAT      O44139   0.533   3.583   4.152
10855WAT     H144140   0.521   3.538   4.225
10855WAT     H244141   0.475   3.549   4.096
10855WAT    EPW44142   0.523   3.571   4.154
10856WAT      O44143   0.550   3.766   4.812
10856WAT     H144144   0.472   3.760   4.773
10856WAT     H244145   0.557   3.691   4.855
10856WAT    EPW44146   0.540   3.754   4.812
10857WAT      O44147   0.593   3.740   5.158
10857WAT     H144148   0.596   3.672   5.103
10857WAT     H244149   0.529   3.789   5.127
10857WAT    EPW44150   0.584   3.737   5.146
10858WAT      O44151   1.583   3.511   4.998
10858WAT     H144152   1.516   3.544   5.044
10858WAT     H244153   1.601   3.574   4.941
10858WAT    EPW44154   1.576   3.525   4.996
10859WAT      O44155   1.003   4.617   5.098
10859WAT     H144156   0.975   4.553   5.045
10859WAT     H244157   0.982   4.690   5.054
10859WAT    EPW44158   0.996   4.619   5.083
10860WAT      O44159   1.247   3.101   5.341
10860WAT     H144160   1.262   3.019   5.317
10860WAT     H244161   1.285   3.107   5.419
10860WAT    EPW44162   1.255   3.090   5.349
10861WAT      O44163   1.402   3.308   4.349
10861WAT     H144164   1.451   3.379   4.341
10861WAT     H244165   1.323   3.334   4.323
10861WAT    EPW44166   1.398   3.322   4.344
10862WAT      O44167   0.373   3.875   5.714
10862WAT     H144168   0.369   3.925   5.643
10862WAT     H244169   0.406   3.800   5.685
10862WAT    EPW44170   0.377   3.871   5.699
10863WAT      O44171   1.533   4.096   5.540
10863WAT     H144172   1.582   4.167   5.550
10863WAT     H244173   1.573   4.053   5.475
10863WAT    EPW44174   1.546   4.100   5.532
10864WAT      O44175   0.963   4.380   5.658
10864WAT     H144176   0.998   4.362   5.735
10864WAT     H244177   0.919   4.307   5.638
10864WAT    EPW44178   0.962   4.367   5.666
10865WAT      O44179   1.060   3.455   4.922
10865WAT     H144180   1.108   3.525   4.942
10865WAT     H244181   1.097   3.390   4.967
10865WAT    EPW44182   1.073   3.456   4.931
10866WAT      O44183   1.279   3.772   4.149
10866WAT     H144184   1.278   3.844   4.100
10866WAT     H244185   1.215   3.785   4.207
10866WAT    EPW44186   1.270   3.784   4.150
10867WAT      O44187   1.776   4.159   4.547
10867WAT     H144188   1.812   4.124   4.619
10867WAT     H244189   1.775   4.093   4.490
10867WAT    EPW44190   1.781   4.144   4.549
10868WAT      O44191   1.381   4.465   4.931
10868WAT     H144192   1.320   4.436   4.876
10868WAT     H244193   1.435   4.510   4.881
10868WAT    EPW44194   1.380   4.468   4.916
10869WAT      O44195   1.382   4.150   4.871
10869WAT     H144196   1.302   4.173   4.899
10869WAT     H244197   1.408   4.091   4.930
10869WAT    EPW44198   1.374   4.145   4.884
10870WAT      O44199   0.771   4.632   4.316
10870WAT     H144200   0.757   4.554   4.353
10870WAT     H244201   0.840   4.617   4.265
10870WAT    EPW44202   0.779   4.618   4.314
10871WAT      O44203   0.738   3.006   4.115
10871WAT     H144204   0.748   2.995   4.201
10871WAT     H244205   0.668   3.056   4.109
10871WAT    EPW44206   0.729   3.012   4.127
10872WAT      O44207   1.000   4.583   4.156
10872WAT     H144208   1.063   4.599   4.215
10872WAT     H244209   1.004   4.652   4.103
10872WAT    EPW44210   1.010   4.596   4.157
10873WAT      O44211   1.708   3.950   5.356
10873WAT     H144212   1.714   3.963   5.270
10873WAT     H244213   1.783   3.982   5.386
10873WAT    EPW44214   1.720   3.957   5.348
10874WAT      O44215   1.327   4.485   5.784
10874WAT     H144216   1.344   4.513   5.865
10874WAT     H244217   1.353   4.551   5.733
10874WAT    EPW44218   1.333   4.499   5.788
10875WAT      O44219   1.811   2.980   5.655
10875WAT     H144220   1.748   2.940   5.611
10875WAT     H244221   1.814   2.937   5.731
10875WAT    EPW44222   1.802   2.968   5.659
10876WAT      O44223   0.451   3.837   4.239
10876WAT     H144224   0.483   3.759   4.217
10876WAT     H244225   0.515   3.873   4.285
10876WAT    EPW44226   0.465   3.830   4.243
10877WAT      O44227   1.281   3.931   5.316
10877WAT     H144228   1.266   3.992   5.376
10877WAT     H244229   1.335   3.875   5.357
10877WAT    EPW44230   1.287   3.932   5.331
10878WAT      O44231   1.120   3.771   4.382
10878WAT     H144232   1.125   3.836   4.440
10878WAT     H244233   1.101   3.701   4.431
10878WAT    EPW44234   1.118   3.770   4.398
10879WAT      O44235   1.642   4.204   4.969
10879WAT     H144236   1.594   4.233   4.902
10879WAT     H244237   1.607   4.126   4.987
10879WAT    EPW44238   1.630   4.197   4.962
10880WAT      O44239   0.569   3.222   4.033
10880WAT     H144240   0.518   3.228   3.962
10880WAT     H244241   0.648   3.246   4.003
10880WAT    EPW44242   0.573   3.227   4.018
10881WAT      O44243   1.042   3.975   4.825
10881WAT     H144244   0.957   3.956   4.833
10881WAT     H244245   1.074   3.959   4.904
10881WAT    EPW44246   1.034   3.970   4.838
10882WAT      O44247   0.717   4.648   3.914
10882WAT     H144248   0.761   4.579   3.942
10882WAT     H244249   0.738   4.711   3.971
10882WAT    EPW44250   0.727   4.647   3.926
10883WAT      O44251   0.427   3.945   5.057
10883WAT     H144252   0.499   3.994   5.053
10883WAT     H244253   0.400   3.942   4.974
10883WAT    EPW44254   0.433   3.952   5.044
10884WAT      O44255   0.750   3.462   4.730
10884WAT     H144256   0.834   3.443   4.740
10884WAT     H244257   0.713   3.384   4.716
10884WAT    EPW44258   0.757   3.448   4.729
10885WAT      O44259   2.011   4.620   4.163
10885WAT     H144260   2.081   4.574   4.138
10885WAT     H244261   1.957   4.560   4.196
10885WAT    EPW44262   2.014   4.604   4.164
10886WAT      O44263   0.232   3.596   4.396
10886WAT     H144264   0.281   3.566   4.462
10886WAT     H244265   0.245   3.536   4.333
10886WAT    EPW44266   0.241   3.583   4.396
10887WAT      O44267   1.735   3.898   5.081
10887WAT     H144268   1.735   3.820   5.120
10887WAT     H244269   1.651   3.921   5.080
10887WAT    EPW44270   1.723   3.890   5.086
10888WAT      O44271   0.684   3.739   3.944
10888WAT     H144272   0.623   3.699   3.992
10888WAT     H244273   0.646   3.751   3.867
10888WAT    EPW44274   0.670   3.735   3.940
10889WAT      O44275   0.366   4.050   5.484
10889WAT     H144276   0.324   3.998   5.428
10889WAT     H244277   0.331   4.129   5.470
10889WAT    EPW44278   0.355   4.054   5.474
10890WAT      O44279   1.861   3.905   4.824
10890WAT     H144280   1.832   3.945   4.896
10890WAT     H244281   1.947   3.899   4.837
10890WAT    EPW44282   1.869   3.910   4.837
10891WAT      O44283   0.830   3.585   4.215
10891WAT     H144284   0.857   3.668   4.222
10891WAT     H244285   0.743   3.593   4.206
10891WAT    EPW44286   0.821   3.598   4.215
10892WAT      O44287   1.627   3.297   5.678
10892WAT     H144288   1.575   3.343   5.731
10892WAT     H244289   1.591   3.218   5.678
10892WAT    EPW44290   1.614   3.292   5.686
10893WAT      O44291   0.178   3.182   4.869
10893WAT     H144292   0.182   3.217   4.789
10893WAT     H244293   0.253   3.206   4.905
10893WAT    EPW44294   0.190   3.191   4.862
10894WAT      O44295   1.974   4.468   4.877
10894WAT     H144296   2.003   4.494   4.799
10894WAT     H244297   2.043   4.478   4.929
10894WAT    EPW44298   1.989   4.473   4.873
10895WAT      O44299   1.476   3.654   5.686
10895WAT     H144300   1.484   3.665   5.772
10895WAT     H244301   1.413   3.710   5.664
10895WAT    EPW44302   1.468   3.664   5.695
10896WAT      O44303   1.703   3.686   5.522
10896WAT     H144304   1.735   3.765   5.543
10896WAT     H244305   1.666   3.659   5.597
10896WAT    EPW44306   1.702   3.694   5.536
10897WAT      O44307   1.634   4.329   4.075
10897WAT     H144308   1.668   4.248   4.079
10897WAT     H244309   1.559   4.321   4.118
10897WAT    EPW44310   1.628   4.316   4.082
10898WAT      O44311   1.683   3.512   4.641
10898WAT     H144312   1.608   3.480   4.673
10898WAT     H244313   1.683   3.595   4.669
10898WAT    EPW44314   1.672   3.519   4.650
10899WAT      O44315   1.973   3.740   5.796
10899WAT     H144316   1.968   3.706   5.716
10899WAT     H244317   2.047   3.787   5.794
10899WAT    EPW44318   1.983   3.742   5.784
10900WAT      O44319   1.927   4.108   5.417
10900WAT     H144320   1.989   4.053   5.391
10900WAT     H244321   1.921   4.164   5.350
10900WAT    EPW44322   1.935   4.108   5.403
10901WAT      O44323   1.372   4.116   4.016
10901WAT     H144324   1.440   4.065   3.999
10901WAT     H244325   1.330   4.121   3.939
10901WAT    EPW44326   1.376   4.109   4.002
10902WAT      O44327   0.840   4.231   5.146
10902WAT     H144328   0.810   4.290   5.203
10902WAT     H244329   0.846   4.275   5.071
10902WAT    EPW44330   0.836   4.246   5.143
10903WAT      O44331   0.638   4.126   5.486
10903WAT     H144332   0.557   4.097   5.503
10903WAT     H244333   0.629   4.213   5.487
10903WAT    EPW44334   0.625   4.135   5.488
10904WAT      O44335   1.574   3.145   5.387
10904WAT     H144336   1.648   3.190   5.381
10904WAT     H244337   1.517   3.192   5.341
10904WAT    EPW44338   1.577   3.159   5.380
10905WAT      O44339   1.092   3.873   5.095
10905WAT     H144340   1.139   3.911   5.158
10905WAT     H244341   1.009   3.887   5.121
10905WAT    EPW44342   1.087   3.881   5.108
10906WAT      O44343   0.763   3.434   5.369
10906WAT     H144344   0.779   3.359   5.412
10906WAT     H244345   0.758   3.409   5.286
10906WAT    EPW44346   0.764   3.419   5.363
10907WAT      O44347   1.018   4.613   4.618
10907WAT     H144348   1.073   4.681   4.623
10907WAT     H244349   0.983   4.621   4.539
10907WAT    EPW44350   1.021   4.624   4.607
10908WAT      O44351   1.702   2.943   5.154
10908WAT     H144352   1.674   3.025   5.150
10908WAT     H244353   1.774   2.948   5.204
10908WAT    EPW44354   1.709   2.956   5.161
10909WAT      O44355   0.938   3.014   5.357
10909WAT     H144356   1.008   3.046   5.317
10909WAT     H244357   0.962   2.934   5.380
10909WAT    EPW44358   0.952   3.007   5.355
10910WAT      O44359   0.836   4.435   4.957
10910WAT     H144360   0.774   4.494   4.939
10910WAT     H244361   0.861   4.407   4.878
10910WAT    EPW44362   0.831   4.440   4.943
10911WAT      O44363   1.267   4.099   5.656
10911WAT     H144364   1.343   4.127   5.623
10911WAT     H244365   1.213   4.104   5.588
10911WAT    EPW44366   1.270   4.104   5.641
10912WAT      O44367   1.658   4.354   5.506
10912WAT     H144368   1.693   4.381   5.582
10912WAT     H244369   1.688   4.412   5.448
10912WAT    EPW44370   1.668   4.366   5.509
10913WAT      O44371   0.996   3.913   3.948
10913WAT     H144372   0.915   3.895   3.920
10913WAT     H244373   0.992   3.998   3.968
10913WAT    EPW44374   0.983   3.923   3.947
10914WAT      O44375   0.589   3.520   4.963
10914WAT     H144376   0.633   3.509   4.889
10914WAT     H244377   0.643   3.488   5.024
10914WAT    EPW44378   0.603   3.514   4.961
10915WAT      O44379   1.390   3.430   5.523
10915WAT     H144380   1.326   3.477   5.557
10915WAT     H244381   1.447   3.421   5.589
10915WAT    EPW44382   1.389   3.436   5.538
10916WAT      O44383   1.359   3.584   5.152
10916WAT     H144384   1.389   3.626   5.223
10916WAT     H244385   1.363   3.500   5.176
10916WAT    EPW44386   1.364   3.577   5.166
10917WAT      O44387   1.102   4.600   5.545
10917WAT     H144388   1.149   4.540   5.503
10917WAT     H244389   1.067   4.556   5.611
10917WAT    EPW44390   1.104   4.585   5.549
10918WAT      O44391   1.614   3.528   4.378
10918WAT     H144392   1.635   3.508   4.460
10918WAT     H244393   1.690   3.555   4.343
10918WAT    EPW44394   1.628   3.529   4.385
10919WAT      O44395   0.943   3.018   4.968
10919WAT     H144396   0.861   3.003   4.992
10919WAT     H244397   0.939   3.022   4.881
10919WAT    EPW44398   0.931   3.017   4.959
10920WAT      O44399   1.716   3.137   4.525
10920WAT     H144400   1.645   3.090   4.542
10920WAT     H244401   1.700   3.171   4.446
10920WAT    EPW44402   1.703   3.135   4.516
10921WAT      O44403   1.760   3.931   4.363
10921WAT     H144404   1.808   3.858   4.358
10921WAT     H244405   1.678   3.902   4.355
10921WAT    EPW44406   1.755   3.916   4.361
10922WAT      O44407   1.108   4.122   5.447
10922WAT     H144408   1.028   4.116   5.482
10922WAT     H244409   1.115   4.207   5.427
10922WAT    EPW44410   1.097   4.134   5.449
10923WAT      O44411   0.691   4.743   4.979
10923WAT     H144412   0.692   4.749   5.066
10923WAT     H244413   0.648   4.668   4.964
10923WAT    EPW44414   0.684   4.733   4.989
10924WAT      O44415   0.506   3.332   4.294
10924WAT     H144416   0.519   3.300   4.214
10924WAT     H244417   0.425   3.308   4.314
10924WAT    EPW44418   0.496   3.324   4.285
10925WAT      O44419   1.382   4.048   4.599
10925WAT     H144420   1.390   4.082   4.678
10925WAT     H244421   1.399   3.963   4.611
10925WAT    EPW44422   1.386   4.040   4.612
10926WAT      O44423   1.134   3.975   4.555
10926WAT     H144424   1.104   3.944   4.631
10926WAT     H244425   1.204   4.022   4.579
10926WAT    EPW44426   1.140   3.977   4.570
10927WAT      O44427   1.156   4.387   5.358
10927WAT     H144428   1.225   4.376   5.410
10927WAT     H244429   1.170   4.466   5.323
10927WAT    EPW44430   1.169   4.397   5.360
10928WAT      O44431   1.974   3.648   5.539
10928WAT     H144432   1.889   3.636   5.551
10928WAT     H244433   1.989   3.608   5.463
10928WAT    EPW44434   1.964   3.640   5.529
10929WAT      O44435   1.425   3.714   5.396
10929WAT     H144436   1.400   3.642   5.439
10929WAT     H244437   1.507   3.726   5.423
10929WAT    EPW44438   1.434   3.705   5.407
10930WAT      O44439   0.367   4.693   5.523
10930WAT     H144440   0.302   4.636   5.533
10930WAT     H244441   0.329   4.770   5.538
10930WAT    EPW44442   0.352   4.696   5.527
10931WAT      O44443   1.219   3.833   5.715
10931WAT     H144444   1.251   3.902   5.672
10931WAT     H244445   1.148   3.866   5.755
10931WAT    EPW44446   1.213   3.848   5.715
10932WAT      O44447   1.527   4.671   4.808
10932WAT     H144448   1.482   4.735   4.846
10932WAT     H244449   1.598   4.663   4.859
10932WAT    EPW44450   1.531   4.679   4.821
10933WAT      O44451   1.197   4.180   5.101
10933WAT     H144452   1.128   4.220   5.135
10933WAT     H244453   1.265   4.223   5.135
10933WAT    EPW44454   1.197   4.192   5.111
10934WAT      O44455   1.735   4.439   5.759
10934WAT     H144456   1.813   4.400   5.767
10934WAT     H244457   1.688   4.405   5.825
10934WAT    EPW44458   1.739   4.428   5.770
10935WAT      O44459   0.504   3.534   5.336
10935WAT     H144460   0.542   3.595   5.287
10935WAT     H244461   0.571   3.486   5.364
10935WAT    EPW44462   0.520   3.536   5.333
10936WAT      O44463   0.282   3.378   5.263
10936WAT     H144464   0.289   3.361   5.178
10936WAT     H244465   0.356   3.419   5.283
10936WAT    EPW44466   0.294   3.382   5.254
10937WAT      O44467   1.837   3.642   4.307
10937WAT     H144468   1.848   3.637   4.221
10937WAT     H244469   1.912   3.609   4.339
10937WAT    EPW44470   1.850   3.637   4.299
10938WAT      O44471   0.537   3.119   5.504
10938WAT     H144472   0.529   3.035   5.525
10938WAT     H244473   0.506   3.124   5.423
10938WAT    EPW44474   0.531   3.108   5.495
10939WAT      O44475   1.229   4.339   4.418
10939WAT     H144476   1.209   4.422   4.402
10939WAT     H244477   1.152   4.301   4.430
10939WAT    EPW44478   1.215   4.346   4.417
10940WAT      O44479   1.748   3.657   5.243
10940WAT     H144480   1.747   3.571   5.255
10940WAT     H244481   1.754   3.689   5.324
10940WAT    EPW44482   1.749   3.649   5.257
10941WAT      O44483   0.221   3.901   5.286
10941WAT     H144484   0.253   3.923   5.208
10941WAT     H244485   0.211   3.814   5.280
10941WAT    EPW44486   0.224   3.891   5.273
10942WAT      O44487   0.367   3.495   3.947
10942WAT     H144488   0.300   3.496   4.003
10942WAT     H244489   0.376   3.410   3.929
10942WAT    EPW44490   0.358   3.482   3.953
10943WAT      O44491   1.336   3.137   5.621
10943WAT     H144492   1.345   3.208   5.670
10943WAT     H244493   1.272   3.092   5.661
10943WAT    EPW44494   1.327   3.141   5.634
10944WAT      O44495   1.235   3.156   4.706
10944WAT     H144496   1.165   3.208   4.701
10944WAT     H244497   1.239   3.118   4.628
10944WAT    EPW44498   1.225   3.158   4.694
10945WAT      O44499   0.766   4.365   4.059
10945WAT     H144500   0.810   4.373   4.134
10945WAT     H244501   0.685   4.343   4.085
10945WAT    EPW44502   0.760   4.363   4.074
10946WAT      O44503   1.595   3.208   4.986
10946WAT     H144504   1.680   3.217   5.001
10946WAT     H244505   1.558   3.263   5.043
10946WAT    EPW44506   1.602   3.217   4.997
10947WAT      O44507   0.698   3.830   5.424
10947WAT     H144508   0.658   3.908   5.432
10947WAT     H244509   0.657   3.793   5.357
10947WAT    EPW44510   0.686   3.836   5.415
10948WAT      O44511   1.656   4.542   4.416
10948WAT     H144512   1.639   4.477   4.471
10948WAT     H244513   1.728   4.515   4.374
10948WAT    EPW44514   1.664   4.528   4.418
10949WAT      O44515   0.499   4.272   4.119
10949WAT     H144516   0.474   4.241   4.197
10949WAT     H244517   0.495   4.202   4.067
10949WAT    EPW44518   0.494   4.257   4.123
10950WAT      O44519   0.780   4.097   3.993
10950WAT     H144520   0.699   4.070   4.007
10950WAT     H244521   0.778   4.182   4.012
10950WAT    EPW44522   0.768   4.105   3.998
10951WAT      O44523   0.740   3.128   5.169
10951WAT     H144524   0.654   3.136   5.177
10951WAT     H244525   0.762   3.076   5.236
10951WAT    EPW44526   0.731   3.122   5.180
10952WAT      O44527   1.942   2.991   5.302
10952WAT     H144528   1.937   2.987   5.389
10952WAT     H244529   2.011   2.941   5.283
10952WAT    EPW44530   1.952   2.983   5.312
10953WAT      O44531   1.151   3.203   5.007
10953WAT     H144532   1.077   3.157   5.018
10953WAT     H244533   1.208   3.162   5.059
10953WAT    EPW44534   1.148   3.190   5.016
10954WAT      O44535   1.424   4.287   5.185
10954WAT     H144536   1.445   4.318   5.265
10954WAT     H244537   1.418   4.360   5.137
10954WAT    EPW44538   1.426   4.303   5.190
10955WAT      O44539   1.377   4.709   5.610
10955WAT     H144540   1.302   4.707   5.566
10955WAT     H244541   1.394   4.794   5.618
10955WAT    EPW44542   1.369   4.721   5.605
10956WAT      O44543   0.901   3.636   5.527
10956WAT     H144544   0.869   3.578   5.470
10956WAT     H244545   0.865   3.711   5.502
10956WAT    EPW44546   0.891   3.638   5.515
10957WAT      O44547   0.981   2.961   3.990
10957WAT     H144548   0.988   2.985   3.906
10957WAT     H244549   0.906   2.998   4.015
10957WAT    EPW44550   0.971   2.970   3.981
10958WAT      O44551   1.905   4.151   5.131
10958WAT     H144552   1.902   4.065   5.118
10958WAT     H244553   1.836   4.182   5.088
10958WAT    EPW44554   1.894   4.143   5.123
10959WAT      O44555   0.745   4.671   5.552
10959WAT     H144556   0.749   4.684   5.638
10959WAT     H244557   0.810   4.615   5.536
10959WAT    EPW44558   0.755   4.665   5.562
10960WAT      O44559   1.716   4.477   5.011
10960WAT     H144560   1.768   4.469   4.942
10960WAT     H244561   1.677   4.400   5.016
10960WAT    EPW44562   1.718   4.465   5.001
10961WAT      O44563   0.462   3.136   5.234
10961WAT     H144564   0.428   3.059   5.211
10961WAT     H244565   0.393   3.189   5.240
10961WAT    EPW44566   0.447   3.133   5.231
10962WAT      O44567   1.367   3.022   4.932
10962WAT     H144568   1.434   3.076   4.944
10962WAT     H244569   1.317   3.064   4.874
10962WAT    EPW44570   1.370   3.036   4.925
10963WAT      O44571   0.504   4.509   5.688
10963WAT     H144572   0.563   4.553   5.735
10963WAT     H244573   0.467   4.572   5.639
10963WAT    EPW44574   0.507   4.525   5.687
10964WAT      O44575   1.303   3.603   4.681
10964WAT     H144576   1.358   3.542   4.711
10964WAT     H244577   1.260   3.629   4.752
10964WAT    EPW44578   1.305   3.597   4.696
10965WAT      O44579   0.328   3.468   4.630
10965WAT     H144580   0.291   3.498   4.703
10965WAT     H244581   0.381   3.405   4.658
10965WAT    EPW44582   0.330   3.463   4.645
10966WAT      O44583   0.297   4.308   5.381
10966WAT     H144584   0.239   4.350   5.432
10966WAT     H244585   0.370   4.355   5.390
10966WAT    EPW44586   0.299   4.321   5.390
10967WAT      O44587   1.500   3.786   4.337
10967WAT     H144588   1.507   3.701   4.355
10967WAT     H244589   1.418   3.794   4.309
10967WAT    EPW44590   1.489   3.774   4.336
10968WAT      O44591   0.475   4.635   4.258
10968WAT     H144592   0.461   4.651   4.174
10968WAT     H244593   0.562   4.643   4.266
10968WAT    EPW44594   0.486   4.639   4.247
10969WAT      O44595   0.892   3.875   4.231
10969WAT     H144596   0.902   3.889   4.145
10969WAT     H244597   0.974   3.869   4.261
10969WAT    EPW44598   0.905   3.876   4.223
10970WAT      O44599   1.808   4.681   3.979
10970WAT     H144600   1.872   4.668   4.037
10970WAT     H244601   1.774   4.602   3.967
10970WAT    EPW44602   1.812   4.667   3.986
10971WAT      O44603   1.827   3.923   5.652
10971WAT     H144604   1.891   3.906   5.710
10971WAT     H244605   1.869   3.963   5.587
10971WAT    EPW44606   1.843   3.926   5.651
10972WAT      O44607   1.415   4.308   4.211
10972WAT     H144608   1.390   4.295   4.294
10972WAT     H244609   1.384   4.238   4.169
10972WAT    EPW44610   1.407   4.296   4.217
10973WAT      O44611   1.890   3.379   5.726
10973WAT     H144612   1.870   3.444   5.782
10973WAT     H244613   1.818   3.330   5.725
10973WAT    EPW44614   1.876   3.382   5.734
10974WAT      O44615   1.880   3.473   5.023
10974WAT     H144616   1.796   3.498   5.016
10974WAT     H244617   1.874   3.389   5.046
10974WAT    EPW44618   1.867   3.465   5.025
10975WAT      O44619   0.806   3.172   5.543
10975WAT     H144620   0.829   3.115   5.481
10975WAT     H244621   0.722   3.154   5.557
10975WAT    EPW44622   0.797   3.161   5.536
10976WAT      O44623   1.568   3.934   5.788
10976WAT     H144624   1.656   3.930   5.784
10976WAT     H244625   1.547   3.976   5.715
10976WAT    EPW44626   1.578   3.940   5.776
10977WAT      O44627   0.544   4.517   4.906
10977WAT     H144628   0.536   4.436   4.874
10977WAT     H244629   0.499   4.565   4.849
10977WAT    EPW44630   0.536   4.512   4.893
10978WAT      O44631   1.104   4.128   4.154
10978WAT     H144632   1.176   4.094   4.119
10978WAT     H244633   1.101   4.208   4.119
10978WAT    EPW44634   1.114   4.135   4.144
10979WAT      O44635   0.301   4.741   5.264
10979WAT     H144636   0.350   4.735   5.336
10979WAT     H244637   0.320   4.668   5.220
10979WAT    EPW44638   0.311   4.729   5.268
10980WAT      O44639   1.245   2.993   2.578
10980WAT     H144640   1.220   3.041   2.510
10980WAT     H244641   1.331   2.985   2.568
10980WAT    EPW44642   1.254   2.999   2.567
10981WAT      O44643   1.226   3.684   3.045
10981WAT     H144644   1.173   3.744   3.081
10981WAT     H244645   1.265   3.647   3.114
10981WAT    EPW44646   1.224   3.688   3.061
10982WAT      O44647   1.840   4.428   2.342
10982WAT     H144648   1.910   4.376   2.342
10982WAT     H244649   1.781   4.384   2.295
10982WAT    EPW44650   1.842   4.414   2.335
10983WAT      O44651   0.501   4.004   2.109
10983WAT     H144652   0.462   3.967   2.040
10983WAT     H244653   0.493   3.944   2.172
10983WAT    EPW44654   0.494   3.989   2.108
10984WAT      O44655   1.493   3.791   2.713
10984WAT     H144656   1.501   3.791   2.626
10984WAT     H244657   1.434   3.728   2.728
10984WAT    EPW44658   1.485   3.782   2.702
10985WAT      O44659   0.464   4.168   2.499
10985WAT     H144660   0.524   4.151   2.559
10985WAT     H244661   0.388   4.154   2.541
10985WAT    EPW44662   0.461   4.163   2.514
10986WAT      O44663   0.892   3.101   2.494
10986WAT     H144664   0.885   3.169   2.439
10986WAT     H244665   0.966   3.062   2.469
10986WAT    EPW44666   0.902   3.106   2.482
10987WAT      O44667   0.353   4.477   2.106
10987WAT     H144668   0.399   4.485   2.033
10987WAT     H244669   0.398   4.419   2.153
10987WAT    EPW44670   0.366   4.470   2.102
10988WAT      O44671   0.864   4.124   3.723
10988WAT     H144672   0.840   4.124   3.807
10988WAT     H244673   0.789   4.109   3.681
10988WAT    EPW44674   0.849   4.122   3.729
10989WAT      O44675   0.351   3.824   2.636
10989WAT     H144676   0.305   3.785   2.574
10989WAT     H244677   0.421   3.772   2.646
10989WAT    EPW44678   0.355   3.810   2.629
10990WAT      O44679   0.802   3.385   3.171
10990WAT     H144680   0.870   3.387   3.116
10990WAT     H244681   0.798   3.301   3.196
10990WAT    EPW44682   0.811   3.373   3.167
10991WAT      O44683   0.862   4.443   3.449
10991WAT     H144684   0.876   4.519   3.409
10991WAT     H244685   0.941   4.407   3.452
10991WAT    EPW44686   0.876   4.449   3.444
10992WAT      O44687   0.551   3.634   2.639
10992WAT     H144688   0.633   3.615   2.663
10992WAT     H244689   0.504   3.572   2.678
10992WAT    EPW44690   0.556   3.622   2.648
10993WAT      O44691   0.972   4.232   2.900
10993WAT     H144692   1.007   4.152   2.903
10993WAT     H244693   1.038   4.282   2.874
10993WAT    EPW44694   0.987   4.227   2.896
10994WAT      O44695   0.977   4.177   2.521
10994WAT     H144696   1.011   4.112   2.569
10994WAT     H244697   1.001   4.156   2.440
10994WAT    EPW44698   0.986   4.164   2.516
10995WAT      O44699   1.174   3.590   3.655
10995WAT     H144700   1.089   3.580   3.637
10995WAT     H244701   1.177   3.664   3.700
10995WAT    EPW44702   1.162   3.599   3.659
10996WAT      O44703   0.611   3.143   2.565
10996WAT     H144704   0.581   3.193   2.500
10996WAT     H244705   0.698   3.151   2.560
10996WAT    EPW44706   0.619   3.152   2.555
10997WAT      O44707   1.630   2.886   3.566
10997WAT     H144708   1.614   2.963   3.528
10997WAT     H244709   1.553   2.864   3.601
10997WAT    EPW44710   1.616   2.894   3.566
10998WAT      O44711   0.909   3.057   2.788
10998WAT     H144712   0.916   3.143   2.801
10998WAT     H244713   0.905   3.050   2.701
10998WAT    EPW44714   0.909   3.069   2.777
10999WAT      O44715   1.376   3.350   2.018
10999WAT     H144716   1.331   3.418   2.048
10999WAT     H244717   1.388   3.300   2.088
10999WAT    EPW44718   1.371   3.353   2.032
11000WAT      O44719   0.772   4.355   2.476
11000WAT     H144720   0.714   4.328   2.535
11000WAT     H244721   0.834   4.294   2.478
11000WAT    EPW44722   0.773   4.342   2.485
11001WAT      O44723   1.386   4.584   2.228
11001WAT     H144724   1.459   4.631   2.238
11001WAT     H244725   1.409   4.505   2.256
11001WAT    EPW44726   1.400   4.579   2.234
11002WAT      O44727   1.203   4.623   2.427
11002WAT     H144728   1.224   4.676   2.493
11002WAT     H244729   1.280   4.606   2.389
11002WAT    EPW44730   1.217   4.628   2.431
11003WAT      O44731   0.500   3.082   2.987
11003WAT     H144732   0.448   3.019   2.956
11003WAT     H244733   0.559   3.038   3.034
11003WAT    EPW44734   0.501   3.066   2.989
11004WAT      O44735   0.830   3.295   3.917
11004WAT     H144736   0.842   3.249   3.843
11004WAT     H244737   0.859   3.375   3.896
11004WAT    EPW44738   0.836   3.300   3.903
11005WAT      O44739   0.342   4.438   2.521
11005WAT     H144740   0.408   4.380   2.522
11005WAT     H244741   0.381   4.513   2.499
11005WAT    EPW44742   0.358   4.440   2.518
11006WAT      O44743   1.916   3.347   2.647
11006WAT     H144744   1.881   3.415   2.690
11006WAT     H244745   1.852   3.287   2.649
11006WAT    EPW44746   1.901   3.348   2.654
11007WAT      O44747   1.447   4.624   3.257
11007WAT     H144748   1.521   4.670   3.256
11007WAT     H244749   1.435   4.603   3.174
11007WAT    EPW44750   1.456   4.628   3.245
11008WAT      O44751   0.404   3.255   3.815
11008WAT     H144752   0.326   3.216   3.808
11008WAT     H244753   0.453   3.213   3.756
11008WAT    EPW44754   0.399   3.243   3.805
11009WAT      O44755   0.424   4.287   2.871
11009WAT     H144756   0.466   4.251   2.803
11009WAT     H244757   0.457   4.244   2.940
11009WAT    EPW44758   0.435   4.275   2.871
11010WAT      O44759   0.747   4.572   2.800
11010WAT     H144760   0.832   4.582   2.781
11010WAT     H244761   0.718   4.654   2.807
11010WAT    EPW44762   0.755   4.585   2.799
11011WAT      O44763   1.069   3.019   3.732
11011WAT     H144764   1.086   2.938   3.704
11011WAT     H244765   1.054   3.063   3.658
11011WAT    EPW44766   1.069   3.013   3.717
11012WAT      O44767   1.128   3.511   2.609
11012WAT     H144768   1.157   3.488   2.530
11012WAT     H244769   1.201   3.519   2.656
11012WAT    EPW44770   1.143   3.509   2.604
11013WAT      O44771   1.200   3.545   2.121
11013WAT     H144772   1.228   3.624   2.146
11013WAT     H244773   1.123   3.562   2.085
11013WAT    EPW44774   1.193   3.559   2.120
11014WAT      O44775   1.604   4.743   2.268
11014WAT     H144776   1.671   4.728   2.213
11014WAT     H244777   1.640   4.734   2.347
11014WAT    EPW44778   1.619   4.739   2.272
11015WAT      O44779   0.647   4.694   3.374
11015WAT     H144780   0.676   4.687   3.456
11015WAT     H244781   0.584   4.633   3.370
11015WAT    EPW44782   0.642   4.684   3.386
11016WAT      O44783   1.883   3.180   3.184
11016WAT     H144784   1.959   3.187   3.141
11016WAT     H244785   1.889   3.102   3.224
11016WAT    EPW44786   1.895   3.169   3.183
11017WAT      O44787   1.372   4.343   3.628
11017WAT     H144788   1.369   4.381   3.706
11017WAT     H244789   1.458   4.339   3.611
11017WAT    EPW44790   1.384   4.348   3.637
11018WAT      O44791   1.086   4.362   2.103
11018WAT     H144792   1.068   4.417   2.169
11018WAT     H244793   1.163   4.391   2.073
11018WAT    EPW44794   1.095   4.375   2.108
11019WAT      O44795   1.437   3.152   2.208
11019WAT     H144796   1.491   3.084   2.216
11019WAT     H244797   1.443   3.192   2.286
11019WAT    EPW44798   1.446   3.148   2.221
11020WAT      O44799   0.232   3.269   2.465
11020WAT     H144800   0.221   3.182   2.468
11020WAT     H244801   0.185   3.298   2.532
11020WAT    EPW44802   0.223   3.260   2.475
11021WAT      O44803   0.446   4.510   3.287
11021WAT     H144804   0.377   4.459   3.299
11021WAT     H244805   0.472   4.489   3.206
11021WAT    EPW44806   0.440   4.499   3.277
11022WAT      O44807   1.163   3.390   2.340
11022WAT     H144808   1.112   3.323   2.314
11022WAT     H244809   1.168   3.440   2.269
11022WAT    EPW44810   1.156   3.387   2.325
11023WAT      O44811   1.217   4.659   3.378
11023WAT     H144812   1.294   4.651   3.337
11023WAT     H244813   1.159   4.647   3.314
11023WAT    EPW44814   1.220   4.656   3.362
11024WAT      O44815   1.163   3.084   2.329
11024WAT     H144816   1.117   3.044   2.266
11024WAT     H244817   1.240   3.099   2.291
11024WAT    EPW44818   1.167   3.080   2.314
11025WAT      O44819   1.845   4.719   2.668
11025WAT     H144820   1.800   4.791   2.688
11025WAT     H244821   1.784   4.662   2.644
11025WAT    EPW44822   1.829   4.722   2.667
11026WAT      O44823   1.022   3.320   2.781
11026WAT     H144824   1.030   3.377   2.715
11026WAT     H244825   1.034   3.370   2.852
11026WAT    EPW44826   1.025   3.336   2.782
11027WAT      O44827   1.545   4.304   2.622
11027WAT     H144828   1.615   4.256   2.641
11027WAT     H244829   1.479   4.247   2.627
11027WAT    EPW44830   1.545   4.288   2.626
11028WAT      O44831   0.582   4.395   3.543
11028WAT     H144832   0.667   4.401   3.521
11028WAT     H244833   0.579   4.435   3.621
11028WAT    EPW44834   0.594   4.402   3.552
11029WAT      O44835   0.483   2.903   2.616
11029WAT     H144836   0.537   2.972   2.615
11029WAT     H244837   0.483   2.875   2.533
11029WAT    EPW44838   0.491   2.909   2.603
11030WAT      O44839   0.779   3.946   3.018
11030WAT     H144840   0.796   3.925   3.101
11030WAT     H244841   0.713   3.893   2.997
11030WAT    EPW44842   0.772   3.935   3.027
11031WAT      O44843   1.402   3.337   3.370
11031WAT     H144844   1.392   3.369   3.450
11031WAT     H244845   1.342   3.274   3.366
11031WAT    EPW44846   1.391   3.333   3.381
11032WAT      O44847   0.854   3.940   3.277
11032WAT     H144848   0.859   4.025   3.297
11032WAT     H244849   0.825   3.903   3.351
11032WAT    EPW44850   0.850   3.947   3.291
11033WAT      O44851   1.471   4.009   3.190
11033WAT     H144852   1.420   3.968   3.247
11033WAT     H244853   1.459   4.094   3.208
11033WAT    EPW44854   1.462   4.016   3.201
11034WAT      O44855   1.527   2.932   2.653
11034WAT     H144856   1.532   2.900   2.734
11034WAT     H244857   1.559   2.867   2.604
11034WAT    EPW44858   1.533   2.918   2.658
11035WAT      O44859   1.774   3.355   3.484
11035WAT     H144860   1.851   3.333   3.518
11035WAT     H244861   1.726   3.377   3.554
11035WAT    EPW44862   1.778   3.355   3.499
11036WAT      O44863   0.528   3.284   2.781
11036WAT     H144864   0.555   3.241   2.710
11036WAT     H244865   0.510   3.220   2.838
11036WAT    EPW44866   0.529   3.268   2.779
11037WAT      O44867   1.797   4.053   2.203
11037WAT     H144868   1.809   4.025   2.284
11037WAT     H244869   1.877   4.055   2.170
11037WAT    EPW44870   1.810   4.049   2.210
11038WAT      O44871   0.510   4.026   2.736
11038WAT     H144872   0.595   4.018   2.719
11038WAT     H244873   0.475   3.958   2.695
11038WAT    EPW44874   0.518   4.015   2.727
11039WAT      O44875   0.387   4.699   2.860
11039WAT     H144876   0.320   4.649   2.835
11039WAT     H244877   0.427   4.717   2.785
11039WAT    EPW44878   0.383   4.694   2.845
11040WAT      O44879   0.342   3.394   3.089
11040WAT     H144880   0.426   3.416   3.085
11040WAT     H244881   0.303   3.451   3.036
11040WAT    EPW44882   0.349   3.406   3.081
11041WAT      O44883   2.020   4.504   3.628
11041WAT     H144884   1.952   4.535   3.584
11041WAT     H244885   1.983   4.458   3.693
11041WAT    EPW44886   2.005   4.502   3.631
11042WAT      O44887   1.586   3.707   2.161
11042WAT     H144888   1.564   3.780   2.119
11042WAT     H244889   1.541   3.712   2.236
11042WAT    EPW44890   1.576   3.718   2.166
11043WAT      O44891   0.747   4.027   2.560
11043WAT     H144892   0.818   4.077   2.569
11043WAT     H244893   0.769   3.970   2.497
11043WAT    EPW44894   0.761   4.026   2.552
11044WAT      O44895   2.005   3.193   2.107
11044WAT     H144896   1.939   3.136   2.109
11044WAT     H244897   1.986   3.244   2.039
11044WAT    EPW44898   1.992   3.192   2.097
11045WAT      O44899   0.927   3.562   3.901
11045WAT     H144900   0.879   3.620   3.945
11045WAT     H244901   0.925   3.592   3.819
11045WAT    EPW44902   0.920   3.575   3.896
11046WAT      O44903   2.037   3.631   3.362
11046WAT     H144904   2.059   3.551   3.335
11046WAT     H244905   1.952   3.637   3.343
11046WAT    EPW44906   2.028   3.620   3.355
11047WAT      O44907   1.805   3.149   2.335
11047WAT     H144908   1.880   3.108   2.355
11047WAT     H244909   1.831   3.220   2.292
11047WAT    EPW44910   1.820   3.153   2.331
11048WAT      O44911   1.199   4.397   2.792
11048WAT     H144912   1.147   4.461   2.763
11048WAT     H244913   1.230   4.361   2.719
11048WAT    EPW44914   1.196   4.401   2.777
11049WAT      O44915   0.607   4.176   3.068
11049WAT     H144916   0.654   4.205   3.136
11049WAT     H244917   0.664   4.128   3.023
11049WAT    EPW44918   0.622   4.173   3.072
11050WAT      O44919   1.451   3.378   2.842
11050WAT     H144920   1.485   3.393   2.921
11050WAT     H244921   1.405   3.304   2.853
11050WAT    EPW44922   1.449   3.369   2.855
11051WAT      O44923   0.264   3.943   2.923
11051WAT     H144924   0.307   3.930   2.848
11051WAT     H244925   0.243   4.028   2.920
11051WAT    EPW44926   0.267   3.954   2.911
11052WAT      O44927   0.898   3.300   2.288
11052WAT     H144928   0.898   3.288   2.201
11052WAT     H244929   0.880   3.384   2.297
11052WAT    EPW44930   0.895   3.310   2.276
11053WAT      O44931   1.804   4.542   3.437
11053WAT     H144932   1.736   4.594   3.459
11053WAT     H244933   1.810   4.552   3.351
11053WAT    EPW44934   1.795   4.551   3.428
11054WAT      O44935   0.672   4.295   2.751
11054WAT     H144936   0.685   4.379   2.770
11054WAT     H244937   0.739   4.255   2.790
11054WAT    EPW44938   0.684   4.301   2.759
11055WAT      O44939   0.485   3.643   3.737
11055WAT     H144940   0.431   3.593   3.784
11055WAT     H244941   0.487   3.604   3.659
11055WAT    EPW44942   0.477   3.630   3.732
11056WAT      O44943   0.533   3.583   2.251
11056WAT     H144944   0.521   3.538   2.325
11056WAT     H244945   0.475   3.549   2.196
11056WAT    EPW44946   0.523   3.571   2.254
11057WAT      O44947   0.550   3.766   2.911
11057WAT     H144948   0.472   3.760   2.873
11057WAT     H244949   0.557   3.691   2.955
11057WAT    EPW44950   0.540   3.754   2.912
11058WAT      O44951   0.593   3.740   3.258
11058WAT     H144952   0.596   3.672   3.203
11058WAT     H244953   0.529   3.789   3.227
11058WAT    EPW44954   0.584   3.737   3.245
11059WAT      O44955   1.583   3.511   3.097
11059WAT     H144956   1.516   3.544   3.144
11059WAT     H244957   1.601   3.574   3.040
11059WAT    EPW44958   1.576   3.525   3.096
11060WAT      O44959   1.003   4.617   3.197
11060WAT     H144960   0.975   4.553   3.145
11060WAT     H244961   0.982   4.690   3.153
11060WAT    EPW44962   0.996   4.619   3.183
11061WAT      O44963   1.247   3.101   3.440
11061WAT     H144964   1.262   3.019   3.416
11061WAT     H244965   1.285   3.107   3.519
11061WAT    EPW44966   1.255   3.090   3.448
11062WAT      O44967   1.402   3.308   2.448
11062WAT     H144968   1.451   3.379   2.441
11062WAT     H244969   1.323   3.334   2.422
11062WAT    EPW44970   1.398   3.322   2.443
11063WAT      O44971   0.373   3.875   3.814
11063WAT     H144972   0.369   3.925   3.742
11063WAT     H244973   0.406   3.800   3.784
11063WAT    EPW44974   0.377   3.871   3.799
11064WAT      O44975   1.533   4.096   3.639
11064WAT     H144976   1.582   4.167   3.649
11064WAT     H244977   1.573   4.053   3.574
11064WAT    EPW44978   1.546   4.100   3.631
11065WAT      O44979   0.963   4.380   3.757
11065WAT     H144980   0.998   4.362   3.835
11065WAT     H244981   0.919   4.307   3.737
11065WAT    EPW44982   0.962   4.367   3.766
11066WAT      O44983   1.060   3.455   3.021
11066WAT     H144984   1.108   3.525   3.042
11066WAT     H244985   1.097   3.390   3.066
11066WAT    EPW44986   1.073   3.456   3.031
11067WAT      O44987   1.279   3.772   2.248
11067WAT     H144988   1.278   3.844   2.199
11067WAT     H244989   1.215   3.785   2.306
11067WAT    EPW44990   1.270   3.784   2.250
11068WAT      O44991   1.776   4.159   2.646
11068WAT     H144992   1.812   4.124   2.718
11068WAT     H244993   1.775   4.093   2.589
11068WAT    EPW44994   1.781   4.144   2.649
11069WAT      O44995   1.381   4.465   3.031
11069WAT     H144996   1.320   4.436   2.975
11069WAT     H244997   1.435   4.510   2.980
11069WAT    EPW44998   1.380   4.468   3.015
11070WAT      O44999   1.382   4.150   2.971
11070WAT     H145000   1.302   4.173   2.998
11070WAT     H245001   1.408   4.091   3.029
11070WAT    EPW45002   1.374   4.145   2.984
11071WAT      O45003   0.771   4.632   2.416
11071WAT     H145004   0.757   4.554   2.453
11071WAT     H245005   0.840   4.617   2.364
11071WAT    EPW45006   0.779   4.618   2.414
11072WAT      O45007   0.738   3.006   2.214
11072WAT     H145008   0.748   2.995   2.301
11072WAT     H245009   0.668   3.056   2.208
11072WAT    EPW45010   0.729   3.012   2.226
11073WAT      O45011   1.000   4.583   2.256
11073WAT     H145012   1.063   4.599   2.315
11073WAT     H245013   1.004   4.652   2.203
11073WAT    EPW45014   1.010   4.596   2.257
11074WAT      O45015   1.708   3.950   3.455
11074WAT     H145016   1.714   3.963   3.369
11074WAT     H245017   1.783   3.982   3.486
11074WAT    EPW45018   1.720   3.957   3.447
11075WAT      O45019   1.327   4.485   3.883
11075WAT     H145020   1.344   4.513   3.964
11075WAT     H245021   1.353   4.551   3.833
11075WAT    EPW45022   1.333   4.499   3.888
11076WAT      O45023   1.811   2.980   3.754
11076WAT     H145024   1.748   2.940   3.710
11076WAT     H245025   1.814   2.937   3.830
11076WAT    EPW45026   1.802   2.968   3.759
11077WAT      O45027   0.451   3.837   2.339
11077WAT     H145028   0.483   3.759   2.317
11077WAT     H245029   0.515   3.873   2.384
11077WAT    EPW45030   0.465   3.830   2.342
11078WAT      O45031   1.281   3.931   3.415
11078WAT     H145032   1.266   3.992   3.476
11078WAT     H245033   1.335   3.875   3.456
11078WAT    EPW45034   1.287   3.932   3.430
11079WAT      O45035   1.120   3.771   2.481
11079WAT     H145036   1.125   3.836   2.539
11079WAT     H245037   1.101   3.701   2.530
11079WAT    EPW45038   1.118   3.770   2.497
11080WAT      O45039   1.642   4.204   3.068
11080WAT     H145040   1.594   4.233   3.002
11080WAT     H245041   1.607   4.126   3.086
11080WAT    EPW45042   1.630   4.197   3.061
11081WAT      O45043   0.569   3.222   2.132
11081WAT     H145044   0.518   3.228   2.062
11081WAT     H245045   0.648   3.246   2.103
11081WAT    EPW45046   0.573   3.227   2.118
11082WAT      O45047   1.042   3.975   2.924
11082WAT     H145048   0.957   3.956   2.932
11082WAT     H245049   1.074   3.959   3.004
11082WAT    EPW45050   1.034   3.970   2.937
11083WAT      O45051   0.717   4.648   2.013
11083WAT     H145052   0.761   4.579   2.042
11083WAT     H245053   0.738   4.711   2.070
11083WAT    EPW45054   0.727   4.647   2.026
11084WAT      O45055   0.427   3.945   3.156
11084WAT     H145056   0.499   3.994   3.152
11084WAT     H245057   0.400   3.942   3.073
11084WAT    EPW45058   0.433   3.952   3.143
11085WAT      O45059   0.750   3.462   2.829
11085WAT     H145060   0.834   3.443   2.839
11085WAT     H245061   0.713   3.384   2.816
11085WAT    EPW45062   0.757   3.448   2.829
11086WAT      O45063   2.011   4.620   2.262
11086WAT     H145064   2.081   4.574   2.237
11086WAT     H245065   1.957   4.560   2.296
11086WAT    EPW45066   2.014   4.604   2.263
11087WAT      O45067   0.232   3.596   2.495
11087WAT     H145068   0.281   3.566   2.561
11087WAT     H245069   0.245   3.536   2.432
11087WAT    EPW45070   0.241   3.583   2.495
11088WAT      O45071   1.735   3.898   3.180
11088WAT     H145072   1.735   3.820   3.220
11088WAT     H245073   1.651   3.921   3.179
11088WAT    EPW45074   1.723   3.890   3.186
11089WAT      O45075   0.684   3.739   2.044
11089WAT     H145076   0.623   3.699   2.091
11089WAT     H245077   0.646   3.751   1.966
11089WAT    EPW45078   0.670   3.735   2.039
11090WAT      O45079   0.366   4.050   3.584
11090WAT     H145080   0.324   3.998   3.528
11090WAT     H245081   0.331   4.129   3.569
11090WAT    EPW45082   0.355   4.054   3.573
11091WAT      O45083   1.861   3.905   2.924
11091WAT     H145084   1.832   3.945   2.996
11091WAT     H245085   1.947   3.899   2.936
11091WAT    EPW45086   1.869   3.910   2.936
11092WAT      O45087   0.830   3.585   2.315
11092WAT     H145088   0.857   3.668   2.321
11092WAT     H245089   0.743   3.593   2.305
11092WAT    EPW45090   0.821   3.598   2.314
11093WAT      O45091   1.627   3.297   3.778
11093WAT     H145092   1.575   3.343   3.830
11093WAT     H245093   1.591   3.218   3.777
11093WAT    EPW45094   1.614   3.292   3.785
11094WAT      O45095   0.178   3.182   2.968
11094WAT     H145096   0.182   3.217   2.888
11094WAT     H245097   0.253   3.206   3.005
11094WAT    EPW45098   0.190   3.191   2.962
11095WAT      O45099   1.974   4.468   2.977
11095WAT     H145100   2.003   4.494   2.899
11095WAT     H245101   2.043   4.478   3.029
11095WAT    EPW45102   1.989   4.473   2.973
11096WAT      O45103   1.476   3.654   3.785
11096WAT     H145104   1.484   3.665   3.872
11096WAT     H245105   1.413   3.710   3.763
11096WAT    EPW45106   1.468   3.664   3.795
11097WAT      O45107   1.703   3.686   3.622
11097WAT     H145108   1.735   3.765   3.642
11097WAT     H245109   1.666   3.659   3.696
11097WAT    EPW45110   1.702   3.694   3.636
11098WAT      O45111   1.634   4.329   2.175
11098WAT     H145112   1.668   4.248   2.178
11098WAT     H245113   1.559   4.321   2.218
11098WAT    EPW45114   1.628   4.316   2.182
11099WAT      O45115   1.683   3.512   2.741
11099WAT     H145116   1.608   3.480   2.773
11099WAT     H245117   1.683   3.595   2.769
11099WAT    EPW45118   1.672   3.519   2.750
11100WAT      O45119   1.973   3.740   3.895
11100WAT     H145120   1.968   3.706   3.815
11100WAT     H245121   2.047   3.787   3.893
11100WAT    EPW45122   1.983   3.742   3.883
11101WAT      O45123   1.927   4.108   3.516
11101WAT     H145124   1.989   4.053   3.490
11101WAT     H245125   1.921   4.164   3.450
11101WAT    EPW45126   1.935   4.108   3.502
11102WAT      O45127   1.372   4.116   2.115
11102WAT     H145128   1.440   4.065   2.098
11102WAT     H245129   1.330   4.121   2.039
11102WAT    EPW45130   1.376   4.109   2.101
11103WAT      O45131   0.840   4.231   3.246
11103WAT     H145132   0.810   4.290   3.302
11103WAT     H245133   0.846   4.275   3.171
11103WAT    EPW45134   0.836   4.246   3.243
11104WAT      O45135   0.638   4.126   3.585
11104WAT     H145136   0.557   4.097   3.602
11104WAT     H245137   0.629   4.213   3.586
11104WAT    EPW45138   0.625   4.135   3.588
11105WAT      O45139   1.574   3.145   3.487
11105WAT     H145140   1.648   3.190   3.481
11105WAT     H245141   1.517   3.192   3.440
11105WAT    EPW45142   1.577   3.159   3.479
11106WAT      O45143   1.092   3.873   3.195
11106WAT     H145144   1.139   3.911   3.257
11106WAT     H245145   1.009   3.887   3.221
11106WAT    EPW45146   1.087   3.881   3.208
11107WAT      O45147   0.763   3.434   3.469
11107WAT     H145148   0.779   3.359   3.511
11107WAT     H245149   0.758   3.409   3.385
11107WAT    EPW45150   0.764   3.419   3.463
11108WAT      O45151   1.018   4.613   2.717
11108WAT     H145152   1.073   4.681   2.723
11108WAT     H245153   0.983   4.621   2.638
11108WAT    EPW45154   1.021   4.624   2.706
11109WAT      O45155   1.702   2.943   3.254
11109WAT     H145156   1.674   3.025   3.249
11109WAT     H245157   1.774   2.948   3.303
11109WAT    EPW45158   1.709   2.956   3.261
11110WAT      O45159   0.938   3.014   3.457
11110WAT     H145160   1.008   3.046   3.417
11110WAT     H245161   0.962   2.934   3.479
11110WAT    EPW45162   0.952   3.007   3.454
11111WAT      O45163   0.836   4.435   3.056
11111WAT     H145164   0.774   4.494   3.038
11111WAT     H245165   0.861   4.407   2.978
11111WAT    EPW45166   0.831   4.440   3.042
11112WAT      O45167   1.267   4.099   3.755
11112WAT     H145168   1.343   4.127   3.723
11112WAT     H245169   1.213   4.104   3.687
11112WAT    EPW45170   1.270   4.104   3.740
11113WAT      O45171   1.658   4.354   3.606
11113WAT     H145172   1.693   4.381   3.681
11113WAT     H245173   1.688   4.412   3.548
11113WAT    EPW45174   1.668   4.366   3.608
11114WAT      O45175   1.844   3.568   2.140
11114WAT     H145176   1.882   3.636   2.100
11114WAT     H245177   1.760   3.591   2.143
11114WAT    EPW45178   1.838   3.582   2.134
11115WAT      O45179   0.996   3.913   2.048
11115WAT     H145180   0.915   3.895   2.019
11115WAT     H245181   0.992   3.998   2.067
11115WAT    EPW45182   0.983   3.923   2.047
11116WAT      O45183   0.589   3.520   3.063
11116WAT     H145184   0.633   3.509   2.988
11116WAT     H245185   0.643   3.488   3.123
11116WAT    EPW45186   0.603   3.514   3.061
11117WAT      O45187   1.390   3.430   3.622
11117WAT     H145188   1.326   3.477   3.657
11117WAT     H245189   1.447   3.421   3.688
11117WAT    EPW45190   1.389   3.436   3.637
11118WAT      O45191   1.359   3.584   3.252
11118WAT     H145192   1.389   3.626   3.322
11118WAT     H245193   1.363   3.500   3.275
11118WAT    EPW45194   1.364   3.577   3.266
11119WAT      O45195   1.102   4.600   3.644
11119WAT     H145196   1.149   4.540   3.603
11119WAT     H245197   1.067   4.556   3.711
11119WAT    EPW45198   1.104   4.585   3.648
11120WAT      O45199   1.614   3.528   2.477
11120WAT     H145200   1.635   3.508   2.559
11120WAT     H245201   1.690   3.555   2.443
11120WAT    EPW45202   1.628   3.529   2.484
11121WAT      O45203   0.943   3.018   3.068
11121WAT     H145204   0.861   3.003   3.091
11121WAT     H245205   0.939   3.022   2.980
11121WAT    EPW45206   0.931   3.017   3.058
11122WAT      O45207   1.716   3.137   2.624
11122WAT     H145208   1.645   3.090   2.642
11122WAT     H245209   1.700   3.171   2.546
11122WAT    EPW45210   1.703   3.135   2.615
11123WAT      O45211   1.760   3.931   2.462
11123WAT     H145212   1.808   3.858   2.458
11123WAT     H245213   1.678   3.902   2.455
11123WAT    EPW45214   1.755   3.916   2.461
11124WAT      O45215   1.108   4.122   3.546
11124WAT     H145216   1.028   4.116   3.581
11124WAT     H245217   1.115   4.207   3.527
11124WAT    EPW45218   1.097   4.134   3.549
11125WAT      O45219   0.691   4.743   3.078
11125WAT     H145220   0.692   4.749   3.165
11125WAT     H245221   0.648   4.668   3.063
11125WAT    EPW45222   0.684   4.733   3.089
11126WAT      O45223   0.506   3.332   2.394
11126WAT     H145224   0.519   3.300   2.314
11126WAT     H245225   0.425   3.308   2.413
11126WAT    EPW45226   0.496   3.324   2.385
11127WAT      O45227   1.382   4.048   2.698
11127WAT     H145228   1.390   4.082   2.778
11127WAT     H245229   1.399   3.963   2.710
11127WAT    EPW45230   1.386   4.040   2.712
11128WAT      O45231   1.134   3.975   2.654
11128WAT     H145232   1.104   3.944   2.730
11128WAT     H245233   1.204   4.022   2.678
11128WAT    EPW45234   1.140   3.977   2.669
11129WAT      O45235   1.156   4.387   3.457
11129WAT     H145236   1.225   4.376   3.510
11129WAT     H245237   1.170   4.466   3.423
11129WAT    EPW45238   1.169   4.397   3.460
11130WAT      O45239   1.974   3.648   3.638
11130WAT     H145240   1.889   3.636   3.651
11130WAT     H245241   1.989   3.608   3.562
11130WAT    EPW45242   1.964   3.640   3.629
11131WAT      O45243   1.425   3.714   3.496
11131WAT     H145244   1.400   3.642   3.538
11131WAT     H245245   1.507   3.726   3.523
11131WAT    EPW45246   1.434   3.705   3.506
11132WAT      O45247   0.367   4.693   3.622
11132WAT     H145248   0.302   4.636   3.632
11132WAT     H245249   0.329   4.770   3.637
11132WAT    EPW45250   0.352   4.696   3.626
11133WAT      O45251   1.219   3.833   3.815
11133WAT     H145252   1.251   3.902   3.771
11133WAT     H245253   1.148   3.866   3.855
11133WAT    EPW45254   1.213   3.848   3.814
11134WAT      O45255   1.527   4.671   2.907
11134WAT     H145256   1.482   4.735   2.945
11134WAT     H245257   1.598   4.663   2.958
11134WAT    EPW45258   1.531   4.679   2.921
11135WAT      O45259   1.197   4.180   3.200
11135WAT     H145260   1.128   4.220   3.235
11135WAT     H245261   1.265   4.223   3.234
11135WAT    EPW45262   1.197   4.192   3.211
11136WAT      O45263   1.735   4.439   3.858
11136WAT     H145264   1.813   4.400   3.867
11136WAT     H245265   1.688   4.405   3.924
11136WAT    EPW45266   1.739   4.428   3.869
11137WAT      O45267   0.504   3.534   3.435
11137WAT     H145268   0.542   3.595   3.386
11137WAT     H245269   0.571   3.486   3.464
11137WAT    EPW45270   0.520   3.536   3.432
11138WAT      O45271   0.282   3.378   3.363
11138WAT     H145272   0.289   3.361   3.277
11138WAT     H245273   0.356   3.419   3.382
11138WAT    EPW45274   0.294   3.382   3.353
11139WAT      O45275   1.837   3.642   2.407
11139WAT     H145276   1.848   3.637   2.320
11139WAT     H245277   1.912   3.609   2.438
11139WAT    EPW45278   1.850   3.637   2.399
11140WAT      O45279   0.537   3.119   3.604
11140WAT     H145280   0.529   3.035   3.624
11140WAT     H245281   0.506   3.124   3.522
11140WAT    EPW45282   0.531   3.108   3.595
11141WAT      O45283   1.229   4.339   2.517
11141WAT     H145284   1.209   4.422   2.501
11141WAT     H245285   1.152   4.301   2.530
11141WAT    EPW45286   1.215   4.346   2.517
11142WAT      O45287   1.748   3.657   3.342
11142WAT     H145288   1.747   3.571   3.355
11142WAT     H245289   1.754   3.689   3.423
11142WAT    EPW45290   1.749   3.649   3.356
11143WAT      O45291   0.221   3.901   3.385
11143WAT     H145292   0.253   3.923   3.307
11143WAT     H245293   0.211   3.814   3.380
11143WAT    EPW45294   0.224   3.891   3.373
11144WAT      O45295   0.367   3.495   2.047
11144WAT     H145296   0.300   3.496   2.102
11144WAT     H245297   0.376   3.410   2.028
11144WAT    EPW45298   0.358   3.482   2.052
11145WAT      O45299   1.336   3.137   3.720
11145WAT     H145300   1.345   3.208   3.770
11145WAT     H245301   1.272   3.092   3.760
11145WAT    EPW45302   1.327   3.141   3.734
11146WAT      O45303   1.235   3.156   2.806
11146WAT     H145304   1.165   3.208   2.800
11146WAT     H245305   1.239   3.118   2.727
11146WAT    EPW45306   1.225   3.158   2.793
11147WAT      O45307   0.766   4.365   2.158
11147WAT     H145308   0.810   4.373   2.233
11147WAT     H245309   0.685   4.343   2.184
11147WAT    EPW45310   0.760   4.363   2.173
11148WAT      O45311   1.595   3.208   3.086
11148WAT     H145312   1.680   3.217   3.100
11148WAT     H245313   1.558   3.263   3.142
11148WAT    EPW45314   1.602   3.217   3.096
11149WAT      O45315   0.698   3.830   3.524
11149WAT     H145316   0.658   3.908   3.531
11149WAT     H245317   0.657   3.793   3.456
11149WAT    EPW45318   0.686   3.836   3.515
11150WAT      O45319   1.625   3.736   2.935
11150WAT     H145320   1.692   3.790   2.951
11150WAT     H245321   1.591   3.767   2.861
11150WAT    EPW45322   1.630   3.748   2.926
11151WAT      O45323   1.656   4.542   2.516
11151WAT     H145324   1.639   4.477   2.571
11151WAT     H245325   1.728   4.515   2.473
11151WAT    EPW45326   1.664   4.528   2.518
11152WAT      O45327   0.499   4.272   2.218
11152WAT     H145328   0.474   4.241   2.296
11152WAT     H245329   0.495   4.202   2.167
11152WAT    EPW45330   0.494   4.257   2.222
11153WAT      O45331   0.780   4.097   2.093
11153WAT     H145332   0.699   4.070   2.107
11153WAT     H245333   0.778   4.182   2.111
11153WAT    EPW45334   0.768   4.105   2.097
11154WAT      O45335   0.740   3.128   3.269
11154WAT     H145336   0.654   3.136   3.277
11154WAT     H245337   0.762   3.076   3.335
11154WAT    EPW45338   0.731   3.122   3.280
11155WAT      O45339   1.942   2.991   3.401
11155WAT     H145340   1.937   2.987   3.488
11155WAT     H245341   2.011   2.941   3.382
11155WAT    EPW45342   1.952   2.983   3.411
11156WAT      O45343   1.151   3.203   3.106
11156WAT     H145344   1.077   3.157   3.117
11156WAT     H245345   1.208   3.162   3.158
11156WAT    EPW45346   1.148   3.190   3.115
11157WAT      O45347   1.424   4.287   3.285
11157WAT     H145348   1.445   4.318   3.364
11157WAT     H245349   1.418   4.360   3.236
11157WAT    EPW45350   1.426   4.303   3.289
11158WAT      O45351   1.377   4.709   3.709
11158WAT     H145352   1.302   4.707   3.665
11158WAT     H245353   1.394   4.794   3.718
11158WAT    EPW45354   1.369   4.721   3.704
11159WAT      O45355   0.901   3.636   3.626
11159WAT     H145356   0.869   3.578   3.569
11159WAT     H245357   0.865   3.711   3.602
11159WAT    EPW45358   0.891   3.638   3.614
11160WAT      O45359   0.981   2.961   2.089
11160WAT     H145360   0.988   2.985   2.006
11160WAT     H245361   0.906   2.998   2.115
11160WAT    EPW45362   0.971   2.970   2.081
11161WAT      O45363   0.745   4.671   3.651
11161WAT     H145364   0.749   4.684   3.737
11161WAT     H245365   0.810   4.615   3.636
11161WAT    EPW45366   0.755   4.665   3.662
11162WAT      O45367   1.716   4.477   3.110
11162WAT     H145368   1.768   4.469   3.041
11162WAT     H245369   1.677   4.400   3.116
11162WAT    EPW45370   1.718   4.465   3.101
11163WAT      O45371   0.462   3.136   3.333
11163WAT     H145372   0.428   3.059   3.310
11163WAT     H245373   0.393   3.189   3.340
11163WAT    EPW45374   0.447   3.133   3.331
11164WAT      O45375   1.367   3.022   3.031
11164WAT     H145376   1.434   3.076   3.044
11164WAT     H245377   1.317   3.064   2.974
11164WAT    EPW45378   1.370   3.036   3.024
11165WAT      O45379   0.504   4.509   3.787
11165WAT     H145380   0.563   4.553   3.834
11165WAT     H245381   0.467   4.572   3.738
11165WAT    EPW45382   0.507   4.525   3.787
11166WAT      O45383   1.303   3.603   2.780
11166WAT     H145384   1.358   3.542   2.810
11166WAT     H245385   1.260   3.629   2.852
11166WAT    EPW45386   1.305   3.597   2.795
11167WAT      O45387   0.328   3.468   2.729
11167WAT     H145388   0.291   3.498   2.802
11167WAT     H245389   0.381   3.405   2.757
11167WAT    EPW45390   0.330   3.463   2.744
11168WAT      O45391   0.297   4.308   3.480
11168WAT     H145392   0.239   4.350   3.531
11168WAT     H245393   0.370   4.355   3.490
11168WAT    EPW45394   0.299   4.321   3.489
11169WAT      O45395   1.500   3.786   2.437
11169WAT     H145396   1.507   3.701   2.455
11169WAT     H245397   1.418   3.794   2.409
11169WAT    EPW45398   1.489   3.774   2.435
11170WAT      O45399   0.475   4.635   2.358
11170WAT     H145400   0.461   4.651   2.273
11170WAT     H245401   0.562   4.643   2.365
11170WAT    EPW45402   0.486   4.639   2.346
11171WAT      O45403   0.892   3.875   2.330
11171WAT     H145404   0.902   3.889   2.245
11171WAT     H245405   0.974   3.869   2.360
11171WAT    EPW45406   0.905   3.876   2.322
11172WAT      O45407   1.808   4.681   2.078
11172WAT     H145408   1.872   4.668   2.136
11172WAT     H245409   1.774   4.602   2.067
11172WAT    EPW45410   1.812   4.667   2.085
11173WAT      O45411   1.827   3.923   3.752
11173WAT     H145412   1.891   3.906   3.809
11173WAT     H245413   1.869   3.963   3.686
11173WAT    EPW45414   1.843   3.926   3.751
11174WAT      O45415   1.415   4.308   2.311
11174WAT     H145416   1.390   4.295   2.393
11174WAT     H245417   1.384   4.238   2.268
11174WAT    EPW45418   1.407   4.296   2.317
11175WAT      O45419   1.890   3.379   3.825
11175WAT     H145420   1.870   3.444   3.881
11175WAT     H245421   1.818   3.330   3.825
11175WAT    EPW45422   1.876   3.382   3.834
11176WAT      O45423   1.880   3.473   3.123
11176WAT     H145424   1.796   3.498   3.115
11176WAT     H245425   1.874   3.389   3.145
11176WAT    EPW45426   1.867   3.465   3.125
11177WAT      O45427   0.806   3.172   3.642
11177WAT     H145428   0.829   3.115   3.581
11177WAT     H245429   0.722   3.154   3.656
11177WAT    EPW45430   0.797   3.161   3.635
11178WAT      O45431   1.568   3.934   3.887
11178WAT     H145432   1.656   3.930   3.884
11178WAT     H245433   1.547   3.976   3.814
11178WAT    EPW45434   1.578   3.940   3.876
11179WAT      O45435   0.544   4.517   3.005
11179WAT     H145436   0.536   4.436   2.974
11179WAT     H245437   0.499   4.565   2.948
11179WAT    EPW45438   0.536   4.512   2.992
11180WAT      O45439   1.104   4.128   2.254
11180WAT     H145440   1.176   4.094   2.218
11180WAT     H245441   1.101   4.208   2.219
11180WAT    EPW45442   1.114   4.135   2.243
11181WAT      O45443   0.301   4.741   3.363
11181WAT     H145444   0.350   4.735   3.435
11181WAT     H245445   0.320   4.668   3.320
11181WAT    EPW45446   0.311   4.729   3.368
11182WAT      O45447   1.245   2.993   0.677
11182WAT     H145448   1.220   3.041   0.609
11182WAT     H245449   1.331   2.985   0.667
11182WAT    EPW45450   1.254   2.999   0.666
11183WAT      O45451   1.226   3.684   1.145
11183WAT     H145452   1.173   3.744   1.181
11183WAT     H245453   1.265   3.647   1.213
11183WAT    EPW45454   1.224   3.688   1.160
11184WAT      O45455   1.840   4.428   0.442
11184WAT     H145456   1.910   4.376   0.441
11184WAT     H245457   1.781   4.384   0.395
11184WAT    EPW45458   1.842   4.414   0.435
11185WAT      O45459   0.501   4.004   0.208
11185WAT     H145460   0.462   3.967   0.139
11185WAT     H245461   0.493   3.944   0.271
11185WAT    EPW45462   0.494   3.989   0.207
11186WAT      O45463   1.493   3.791   0.812
11186WAT     H145464   1.501   3.791   0.725
11186WAT     H245465   1.434   3.728   0.827
11186WAT    EPW45466   1.485   3.782   0.802
11187WAT      O45467   0.464   4.168   0.598
11187WAT     H145468   0.524   4.151   0.658
11187WAT     H245469   0.388   4.154   0.640
11187WAT    EPW45470   0.461   4.163   0.613
11188WAT      O45471   0.892   3.101   0.593
11188WAT     H145472   0.885   3.169   0.538
11188WAT     H245473   0.966   3.062   0.568
11188WAT    EPW45474   0.902   3.106   0.581
11189WAT      O45475   0.353   4.477   0.206
11189WAT     H145476   0.399   4.485   0.133
11189WAT     H245477   0.398   4.419   0.253
11189WAT    EPW45478   0.366   4.470   0.202
11190WAT      O45479   0.864   4.124   1.822
11190WAT     H145480   0.840   4.124   1.906
11190WAT     H245481   0.789   4.109   1.780
11190WAT    EPW45482   0.849   4.122   1.828
11191WAT      O45483   0.351   3.824   0.736
11191WAT     H145484   0.305   3.785   0.673
11191WAT     H245485   0.421   3.772   0.745
11191WAT    EPW45486   0.355   3.810   0.728
11192WAT      O45487   0.802   3.385   1.271
11192WAT     H145488   0.870   3.387   1.216
11192WAT     H245489   0.798   3.301   1.295
11192WAT    EPW45490   0.811   3.373   1.266
11193WAT      O45491   0.862   4.443   1.549
11193WAT     H145492   0.876   4.519   1.508
11193WAT     H245493   0.941   4.407   1.551
11193WAT    EPW45494   0.876   4.449   1.543
11194WAT      O45495   0.551   3.634   0.738
11194WAT     H145496   0.633   3.615   0.762
11194WAT     H245497   0.504   3.572   0.778
11194WAT    EPW45498   0.556   3.622   0.748
11195WAT      O45499   0.972   4.232   0.999
11195WAT     H145500   1.007   4.152   1.002
11195WAT     H245501   1.038   4.282   0.974
11195WAT    EPW45502   0.987   4.227   0.996
11196WAT      O45503   0.977   4.177   0.620
11196WAT     H145504   1.011   4.112   0.669
11196WAT     H245505   1.001   4.156   0.539
11196WAT    EPW45506   0.986   4.164   0.615
11197WAT      O45507   1.174   3.590   1.754
11197WAT     H145508   1.089   3.580   1.736
11197WAT     H245509   1.177   3.664   1.800
11197WAT    EPW45510   1.162   3.599   1.758
11198WAT      O45511   0.611   3.143   0.665
11198WAT     H145512   0.581   3.193   0.600
11198WAT     H245513   0.698   3.151   0.659
11198WAT    EPW45514   0.619   3.152   0.654
11199WAT      O45515   1.630   2.886   1.666
11199WAT     H145516   1.614   2.963   1.627
11199WAT     H245517   1.553   2.864   1.700
11199WAT    EPW45518   1.616   2.894   1.665
11200WAT      O45519   0.909   3.057   0.887
11200WAT     H145520   0.916   3.143   0.900
11200WAT     H245521   0.905   3.050   0.800
11200WAT    EPW45522   0.909   3.069   0.876
11201WAT      O45523   0.772   4.355   0.575
11201WAT     H145524   0.714   4.328   0.634
11201WAT     H245525   0.834   4.294   0.578
11201WAT    EPW45526   0.773   4.342   0.584
11202WAT      O45527   1.386   4.584   0.327
11202WAT     H145528   1.459   4.631   0.338
11202WAT     H245529   1.409   4.505   0.355
11202WAT    EPW45530   1.400   4.579   0.333
11203WAT      O45531   1.203   4.623   0.526
11203WAT     H145532   1.224   4.676   0.593
11203WAT     H245533   1.280   4.606   0.488
11203WAT    EPW45534   1.217   4.628   0.531
11204WAT      O45535   0.500   3.082   1.086
11204WAT     H145536   0.448   3.019   1.055
11204WAT     H245537   0.559   3.038   1.133
11204WAT    EPW45538   0.501   3.066   1.089
11205WAT      O45539   0.830   3.295   2.016
11205WAT     H145540   0.842   3.249   1.942
11205WAT     H245541   0.859   3.375   1.996
11205WAT    EPW45542   0.836   3.300   2.002
11206WAT      O45543   0.342   4.438   0.620
11206WAT     H145544   0.408   4.380   0.622
11206WAT     H245545   0.381   4.513   0.598
11206WAT    EPW45546   0.358   4.440   0.617
11207WAT      O45547   1.916   3.347   0.746
11207WAT     H145548   1.881   3.415   0.789
11207WAT     H245549   1.852   3.287   0.748
11207WAT    EPW45550   1.901   3.348   0.753
11208WAT      O45551   1.447   4.624   1.357
11208WAT     H145552   1.521   4.670   1.356
11208WAT     H245553   1.435   4.603   1.273
11208WAT    EPW45554   1.456   4.628   1.344
11209WAT      O45555   0.404   3.255   1.914
11209WAT     H145556   0.326   3.216   1.907
11209WAT     H245557   0.453   3.213   1.855
11209WAT    EPW45558   0.399   3.243   1.905
11210WAT      O45559   0.424   4.287   0.970
11210WAT     H145560   0.466   4.251   0.903
11210WAT     H245561   0.457   4.244   1.039
11210WAT    EPW45562   0.435   4.275   0.971
11211WAT      O45563   0.747   4.572   0.900
11211WAT     H145564   0.832   4.582   0.880
11211WAT     H245565   0.718   4.654   0.907
11211WAT    EPW45566   0.755   4.585   0.898
11212WAT      O45567   1.069   3.019   1.831
11212WAT     H145568   1.086   2.938   1.804
11212WAT     H245569   1.054   3.063   1.757
11212WAT    EPW45570   1.069   3.013   1.816
11213WAT      O45571   1.128   3.511   0.709
11213WAT     H145572   1.157   3.488   0.630
11213WAT     H245573   1.201   3.519   0.755
11213WAT    EPW45574   1.143   3.509   0.704
11214WAT      O45575   1.200   3.545   0.221
11214WAT     H145576   1.228   3.624   0.246
11214WAT     H245577   1.123   3.562   0.184
11214WAT    EPW45578   1.193   3.559   0.219
11215WAT      O45579   1.604   4.743   0.367
11215WAT     H145580   1.671   4.728   0.313
11215WAT     H245581   1.640   4.734   0.446
11215WAT    EPW45582   1.619   4.739   0.371
11216WAT      O45583   0.647   4.694   1.474
11216WAT     H145584   0.676   4.687   1.556
11216WAT     H245585   0.584   4.633   1.469
11216WAT    EPW45586   0.642   4.684   1.485
11217WAT      O45587   1.883   3.180   1.283
11217WAT     H145588   1.959   3.187   1.241
11217WAT     H245589   1.889   3.102   1.323
11217WAT    EPW45590   1.895   3.169   1.283
11218WAT      O45591   1.372   4.343   1.727
11218WAT     H145592   1.369   4.381   1.806
11218WAT     H245593   1.458   4.339   1.710
11218WAT    EPW45594   1.384   4.348   1.736
11219WAT      O45595   1.086   4.362   0.202
11219WAT     H145596   1.068   4.417   0.268
11219WAT     H245597   1.163   4.391   0.172
11219WAT    EPW45598   1.095   4.375   0.208
11220WAT      O45599   1.437   3.152   0.308
11220WAT     H145600   1.491   3.084   0.315
11220WAT     H245601   1.443   3.192   0.385
11220WAT    EPW45602   1.446   3.148   0.320
11221WAT      O45603   0.232   3.269   0.565
11221WAT     H145604   0.221   3.182   0.568
11221WAT     H245605   0.185   3.298   0.632
11221WAT    EPW45606   0.223   3.260   0.575
11222WAT      O45607   0.446   4.510   1.386
11222WAT     H145608   0.377   4.459   1.399
11222WAT     H245609   0.472   4.489   1.305
11222WAT    EPW45610   0.440   4.499   1.376
11223WAT      O45611   1.163   3.390   0.439
11223WAT     H145612   1.112   3.323   0.414
11223WAT     H245613   1.168   3.440   0.368
11223WAT    EPW45614   1.156   3.387   0.425
11224WAT      O45615   1.217   4.659   1.477
11224WAT     H145616   1.294   4.651   1.436
11224WAT     H245617   1.159   4.647   1.413
11224WAT    EPW45618   1.220   4.656   1.462
11225WAT      O45619   1.163   3.084   0.428
11225WAT     H145620   1.117   3.044   0.366
11225WAT     H245621   1.240   3.099   0.391
11225WAT    EPW45622   1.167   3.080   0.413
11226WAT      O45623   1.845   4.719   0.767
11226WAT     H145624   1.800   4.791   0.787
11226WAT     H245625   1.784   4.662   0.743
11226WAT    EPW45626   1.829   4.722   0.767
11227WAT      O45627   1.022   3.320   0.880
11227WAT     H145628   1.030   3.377   0.815
11227WAT     H245629   1.034   3.370   0.951
11227WAT    EPW45630   1.025   3.336   0.881
11228WAT      O45631   1.545   4.304   0.722
11228WAT     H145632   1.615   4.256   0.740
11228WAT     H245633   1.479   4.247   0.726
11228WAT    EPW45634   1.545   4.288   0.725
11229WAT      O45635   0.582   4.395   1.643
11229WAT     H145636   0.667   4.401   1.621
11229WAT     H245637   0.579   4.435   1.720
11229WAT    EPW45638   0.594   4.402   1.651
11230WAT      O45639   0.483   2.903   0.715
11230WAT     H145640   0.537   2.972   0.714
11230WAT     H245641   0.483   2.875   0.632
11230WAT    EPW45642   0.491   2.909   0.703
11231WAT      O45643   0.779   3.946   1.118
11231WAT     H145644   0.796   3.925   1.201
11231WAT     H245645   0.713   3.893   1.096
11231WAT    EPW45646   0.772   3.935   1.127
11232WAT      O45647   1.402   3.337   1.469
11232WAT     H145648   1.392   3.369   1.550
11232WAT     H245649   1.342   3.274   1.465
11232WAT    EPW45650   1.391   3.333   1.481
11233WAT      O45651   0.854   3.940   1.377
11233WAT     H145652   0.859   4.025   1.397
11233WAT     H245653   0.825   3.903   1.450
11233WAT    EPW45654   0.850   3.947   1.390
11234WAT      O45655   1.471   4.009   1.290
11234WAT     H145656   1.420   3.968   1.347
11234WAT     H245657   1.459   4.094   1.308
11234WAT    EPW45658   1.462   4.016   1.301
11235WAT      O45659   1.527   2.932   0.753
11235WAT     H145660   1.532   2.900   0.834
11235WAT     H245661   1.559   2.867   0.703
11235WAT    EPW45662   1.533   2.918   0.757
11236WAT      O45663   1.774   3.355   1.584
11236WAT     H145664   1.851   3.333   1.617
11236WAT     H245665   1.726   3.377   1.654
11236WAT    EPW45666   1.778   3.355   1.599
11237WAT      O45667   0.528   3.284   0.881
11237WAT     H145668   0.555   3.241   0.810
11237WAT     H245669   0.510   3.220   0.938
11237WAT    EPW45670   0.529   3.268   0.879
11238WAT      O45671   1.797   4.053   0.302
11238WAT     H145672   1.809   4.025   0.384
11238WAT     H245673   1.877   4.055   0.269
11238WAT    EPW45674   1.810   4.049   0.310
11239WAT      O45675   0.510   4.026   0.835
11239WAT     H145676   0.595   4.018   0.818
11239WAT     H245677   0.475   3.958   0.794
11239WAT    EPW45678   0.518   4.015   0.827
11240WAT      O45679   0.387   4.699   0.959
11240WAT     H145680   0.320   4.649   0.935
11240WAT     H245681   0.427   4.717   0.884
11240WAT    EPW45682   0.383   4.694   0.944
11241WAT      O45683   0.342   3.394   1.189
11241WAT     H145684   0.426   3.416   1.184
11241WAT     H245685   0.303   3.451   1.136
11241WAT    EPW45686   0.349   3.406   1.180
11242WAT      O45687   2.020   4.504   1.728
11242WAT     H145688   1.952   4.535   1.683
11242WAT     H245689   1.983   4.458   1.792
11242WAT    EPW45690   2.005   4.502   1.731
11243WAT      O45691   1.586   3.707   0.261
11243WAT     H145692   1.564   3.780   0.219
11243WAT     H245693   1.541   3.712   0.336
11243WAT    EPW45694   1.576   3.718   0.266
11244WAT      O45695   0.747   4.027   0.659
11244WAT     H145696   0.818   4.077   0.668
11244WAT     H245697   0.769   3.970   0.596
11244WAT    EPW45698   0.761   4.026   0.651
11245WAT      O45699   2.005   3.193   0.206
11245WAT     H145700   1.939   3.136   0.208
11245WAT     H245701   1.986   3.244   0.138
11245WAT    EPW45702   1.992   3.192   0.196
11246WAT      O45703   0.927   3.562   2.001
11246WAT     H145704   0.879   3.620   2.045
11246WAT     H245705   0.925   3.592   1.918
11246WAT    EPW45706   0.920   3.575   1.995
11247WAT      O45707   2.037   3.631   1.462
11247WAT     H145708   2.059   3.551   1.434
11247WAT     H245709   1.952   3.637   1.443
11247WAT    EPW45710   2.028   3.620   1.455
11248WAT      O45711   1.805   3.149   0.434
11248WAT     H145712   1.880   3.108   0.454
11248WAT     H245713   1.831   3.220   0.392
11248WAT    EPW45714   1.820   3.153   0.431
11249WAT      O45715   1.199   4.397   0.892
11249WAT     H145716   1.147   4.461   0.862
11249WAT     H245717   1.230   4.361   0.819
11249WAT    EPW45718   1.196   4.401   0.877
11250WAT      O45719   0.607   4.176   1.168
11250WAT     H145720   0.654   4.205   1.235
11250WAT     H245721   0.664   4.128   1.122
11250WAT    EPW45722   0.622   4.173   1.171
11251WAT      O45723   1.451   3.378   0.941
11251WAT     H145724   1.485   3.393   1.020
11251WAT     H245725   1.405   3.304   0.953
11251WAT    EPW45726   1.449   3.369   0.955
11252WAT      O45727   0.264   3.943   1.022
11252WAT     H145728   0.307   3.930   0.947
11252WAT     H245729   0.243   4.028   1.019
11252WAT    EPW45730   0.267   3.954   1.011
11253WAT      O45731   0.898   3.300   0.387
11253WAT     H145732   0.898   3.288   0.301
11253WAT     H245733   0.880   3.384   0.396
11253WAT    EPW45734   0.895   3.310   0.376
11254WAT      O45735   1.804   4.542   1.537
11254WAT     H145736   1.736   4.594   1.559
11254WAT     H245737   1.810   4.552   1.450
11254WAT    EPW45738   1.795   4.551   1.527
11255WAT      O45739   0.672   4.295   0.850
11255WAT     H145740   0.685   4.379   0.869
11255WAT     H245741   0.739   4.255   0.890
11255WAT    EPW45742   0.684   4.301   0.859
11256WAT      O45743   0.485   3.643   1.836
11256WAT     H145744   0.431   3.593   1.883
11256WAT     H245745   0.487   3.604   1.758
11256WAT    EPW45746   0.477   3.630   1.832
11257WAT      O45747   0.533   3.583   0.350
11257WAT     H145748   0.521   3.538   0.424
11257WAT     H245749   0.475   3.549   0.295
11257WAT    EPW45750   0.523   3.571   0.353
11258WAT      O45751   0.550   3.766   1.010
11258WAT     H145752   0.472   3.760   0.972
11258WAT     H245753   0.557   3.691   1.054
11258WAT    EPW45754   0.540   3.754   1.011
11259WAT      O45755   0.593   3.740   1.357
11259WAT     H145756   0.596   3.672   1.302
11259WAT     H245757   0.529   3.789   1.326
11259WAT    EPW45758   0.584   3.737   1.344
11260WAT      O45759   1.583   3.511   1.197
11260WAT     H145760   1.516   3.544   1.243
11260WAT     H245761   1.601   3.574   1.140
11260WAT    EPW45762   1.576   3.525   1.195
11261WAT      O45763   1.003   4.617   1.296
11261WAT     H145764   0.975   4.553   1.244
11261WAT     H245765   0.982   4.690   1.253
11261WAT    EPW45766   0.996   4.619   1.282
11262WAT      O45767   1.247   3.101   1.540
11262WAT     H145768   1.262   3.019   1.515
11262WAT     H245769   1.285   3.107   1.618
11262WAT    EPW45770   1.255   3.090   1.548
11263WAT      O45771   1.402   3.308   0.548
11263WAT     H145772   1.451   3.379   0.540
11263WAT     H245773   1.323   3.334   0.522
11263WAT    EPW45774   1.398   3.322   0.543
11264WAT      O45775   0.373   3.875   1.913
11264WAT     H145776   0.369   3.925   1.842
11264WAT     H245777   0.406   3.800   1.884
11264WAT    EPW45778   0.377   3.871   1.898
11265WAT      O45779   1.533   4.096   1.739
11265WAT     H145780   1.582   4.167   1.749
11265WAT     H245781   1.573   4.053   1.674
11265WAT    EPW45782   1.546   4.100   1.731
11266WAT      O45783   0.963   4.380   1.857
11266WAT     H145784   0.998   4.362   1.934
11266WAT     H245785   0.919   4.307   1.837
11266WAT    EPW45786   0.962   4.367   1.865
11267WAT      O45787   1.060   3.455   1.120
11267WAT     H145788   1.108   3.525   1.141
11267WAT     H245789   1.097   3.390   1.165
11267WAT    EPW45790   1.073   3.456   1.130
11268WAT      O45791   1.279   3.772   0.348
11268WAT     H145792   1.278   3.844   0.299
11268WAT     H245793   1.215   3.785   0.405
11268WAT    EPW45794   1.270   3.784   0.349
11269WAT      O45795   1.776   4.159   0.746
11269WAT     H145796   1.812   4.124   0.817
11269WAT     H245797   1.775   4.093   0.689
11269WAT    EPW45798   1.781   4.144   0.748
11270WAT      O45799   1.381   4.465   1.130
11270WAT     H145800   1.320   4.436   1.075
11270WAT     H245801   1.435   4.510   1.079
11270WAT    EPW45802   1.380   4.468   1.114
11271WAT      O45803   1.382   4.150   1.070
11271WAT     H145804   1.302   4.173   1.098
11271WAT     H245805   1.408   4.091   1.129
11271WAT    EPW45806   1.374   4.145   1.083
11272WAT      O45807   0.771   4.632   0.515
11272WAT     H145808   0.757   4.554   0.552
11272WAT     H245809   0.840   4.617   0.464
11272WAT    EPW45810   0.779   4.618   0.513
11273WAT      O45811   0.738   3.006   0.314
11273WAT     H145812   0.748   2.995   0.400
11273WAT     H245813   0.668   3.056   0.307
11273WAT    EPW45814   0.729   3.012   0.326
11274WAT      O45815   1.000   4.583   0.355
11274WAT     H145816   1.063   4.599   0.414
11274WAT     H245817   1.004   4.652   0.302
11274WAT    EPW45818   1.010   4.596   0.356
11275WAT      O45819   1.708   3.950   1.555
11275WAT     H145820   1.714   3.963   1.469
11275WAT     H245821   1.783   3.982   1.585
11275WAT    EPW45822   1.720   3.957   1.547
11276WAT      O45823   1.327   4.485   1.983
11276WAT     H145824   1.344   4.513   2.063
11276WAT     H245825   1.353   4.551   1.932
11276WAT    EPW45826   1.333   4.499   1.987
11277WAT      O45827   1.811   2.980   1.854
11277WAT     H145828   1.748   2.940   1.809
11277WAT     H245829   1.814   2.937   1.929
11277WAT    EPW45830   1.802   2.968   1.858
11278WAT      O45831   0.451   3.837   0.438
11278WAT     H145832   0.483   3.759   0.416
11278WAT     H245833   0.515   3.873   0.484
11278WAT    EPW45834   0.465   3.830   0.442
11279WAT      O45835   1.281   3.931   1.515
11279WAT     H145836   1.266   3.992   1.575
11279WAT     H245837   1.335   3.875   1.555
11279WAT    EPW45838   1.287   3.932   1.530
11280WAT      O45839   1.120   3.771   0.581
11280WAT     H145840   1.125   3.836   0.639
11280WAT     H245841   1.101   3.701   0.630
11280WAT    EPW45842   1.118   3.770   0.596
11281WAT      O45843   1.642   4.204   1.168
11281WAT     H145844   1.594   4.233   1.101
11281WAT     H245845   1.607   4.126   1.185
11281WAT    EPW45846   1.630   4.197   1.160
11282WAT      O45847   0.569   3.222   0.232
11282WAT     H145848   0.518   3.228   0.161
11282WAT     H245849   0.648   3.246   0.202
11282WAT    EPW45850   0.573   3.227   0.217
11283WAT      O45851   1.042   3.975   1.024
11283WAT     H145852   0.957   3.956   1.032
11283WAT     H245853   1.074   3.959   1.103
11283WAT    EPW45854   1.034   3.970   1.037
11284WAT      O45855   0.427   3.945   1.255
11284WAT     H145856   0.499   3.994   1.252
11284WAT     H245857   0.400   3.942   1.172
11284WAT    EPW45858   0.433   3.952   1.243
11285WAT      O45859   0.750   3.462   0.929
11285WAT     H145860   0.834   3.443   0.939
11285WAT     H245861   0.713   3.384   0.915
11285WAT    EPW45862   0.757   3.448   0.928
11286WAT      O45863   2.011   4.620   0.362
11286WAT     H145864   2.081   4.574   0.337
11286WAT     H245865   1.957   4.560   0.395
11286WAT    EPW45866   2.014   4.604   0.363
11287WAT      O45867   0.232   3.596   0.594
11287WAT     H145868   0.281   3.566   0.660
11287WAT     H245869   0.245   3.536   0.532
11287WAT    EPW45870   0.241   3.583   0.595
11288WAT      O45871   1.735   3.898   1.279
11288WAT     H145872   1.735   3.820   1.319
11288WAT     H245873   1.651   3.921   1.279
11288WAT    EPW45874   1.723   3.890   1.285
11289WAT      O45875   0.366   4.050   1.683
11289WAT     H145876   0.324   3.998   1.627
11289WAT     H245877   0.331   4.129   1.669
11289WAT    EPW45878   0.355   4.054   1.673
11290WAT      O45879   1.861   3.905   1.023
11290WAT     H145880   1.832   3.945   1.095
11290WAT     H245881   1.947   3.899   1.036
11290WAT    EPW45882   1.869   3.910   1.036
11291WAT      O45883   0.830   3.585   0.414
11291WAT     H145884   0.857   3.668   0.421
11291WAT     H245885   0.743   3.593   0.404
11291WAT    EPW45886   0.821   3.598   0.413
11292WAT      O45887   1.627   3.297   1.877
11292WAT     H145888   1.575   3.343   1.930
11292WAT     H245889   1.591   3.218   1.877
11292WAT    EPW45890   1.614   3.292   1.885
11293WAT      O45891   0.178   3.182   1.068
11293WAT     H145892   0.182   3.217   0.987
11293WAT     H245893   0.253   3.206   1.104
11293WAT    EPW45894   0.190   3.191   1.061
11294WAT      O45895   1.974   4.468   1.076
11294WAT     H145896   2.003   4.494   0.998
11294WAT     H245897   2.043   4.478   1.128
11294WAT    EPW45898   1.989   4.473   1.072
11295WAT      O45899   1.476   3.654   1.885
11295WAT     H145900   1.484   3.665   1.971
11295WAT     H245901   1.413   3.710   1.863
11295WAT    EPW45902   1.468   3.664   1.894
11296WAT      O45903   1.703   3.686   1.721
11296WAT     H145904   1.735   3.765   1.742
11296WAT     H245905   1.666   3.659   1.796
11296WAT    EPW45906   1.702   3.694   1.735
11297WAT      O45907   1.634   4.329   0.274
11297WAT     H145908   1.668   4.248   0.278
11297WAT     H245909   1.559   4.321   0.317
11297WAT    EPW45910   1.628   4.316   0.281
11298WAT      O45911   1.683   3.512   0.840
11298WAT     H145912   1.608   3.480   0.872
11298WAT     H245913   1.683   3.595   0.868
11298WAT    EPW45914   1.672   3.519   0.849
11299WAT      O45915   1.973   3.740   1.995
11299WAT     H145916   1.968   3.706   1.915
11299WAT     H245917   2.047   3.787   1.993
11299WAT    EPW45918   1.983   3.742   1.983
11300WAT      O45919   1.927   4.108   1.615
11300WAT     H145920   1.989   4.053   1.590
11300WAT     H245921   1.921   4.164   1.549
11300WAT    EPW45922   1.935   4.108   1.602
11301WAT      O45923   1.372   4.116   0.215
11301WAT     H145924   1.440   4.065   0.198
11301WAT     H245925   1.330   4.121   0.138
11301WAT    EPW45926   1.376   4.109   0.201
11302WAT      O45927   0.840   4.231   1.345
11302WAT     H145928   0.810   4.290   1.402
11302WAT     H245929   0.846   4.275   1.270
11302WAT    EPW45930   0.836   4.246   1.342
11303WAT      O45931   0.638   4.126   1.685
11303WAT     H145932   0.557   4.097   1.701
11303WAT     H245933   0.629   4.213   1.685
11303WAT    EPW45934   0.625   4.135   1.687
11304WAT      O45935   1.574   3.145   1.586
11304WAT     H145936   1.648   3.190   1.580
11304WAT     H245937   1.517   3.192   1.539
11304WAT    EPW45938   1.577   3.159   1.578
11305WAT      O45939   1.092   3.873   1.294
11305WAT     H145940   1.139   3.911   1.357
11305WAT     H245941   1.009   3.887   1.320
11305WAT    EPW45942   1.087   3.881   1.307
11306WAT      O45943   0.763   3.434   1.568
11306WAT     H145944   0.779   3.359   1.611
11306WAT     H245945   0.758   3.409   1.485
11306WAT    EPW45946   0.764   3.419   1.562
11307WAT      O45947   1.018   4.613   0.817
11307WAT     H145948   1.073   4.681   0.822
11307WAT     H245949   0.983   4.621   0.737
11307WAT    EPW45950   1.021   4.624   0.806
11308WAT      O45951   1.702   2.943   1.353
11308WAT     H145952   1.674   3.025   1.349
11308WAT     H245953   1.774   2.948   1.403
11308WAT    EPW45954   1.709   2.956   1.360
11309WAT      O45955   0.938   3.014   1.556
11309WAT     H145956   1.008   3.046   1.516
11309WAT     H245957   0.962   2.934   1.579
11309WAT    EPW45958   0.952   3.007   1.554
11310WAT      O45959   0.836   4.435   1.156
11310WAT     H145960   0.774   4.494   1.138
11310WAT     H245961   0.861   4.407   1.077
11310WAT    EPW45962   0.831   4.440   1.141
11311WAT      O45963   1.267   4.099   1.855
11311WAT     H145964   1.343   4.127   1.822
11311WAT     H245965   1.213   4.104   1.787
11311WAT    EPW45966   1.270   4.104   1.840
11312WAT      O45967   1.658   4.354   1.705
11312WAT     H145968   1.693   4.381   1.780
11312WAT     H245969   1.688   4.412   1.647
11312WAT    EPW45970   1.668   4.366   1.708
11313WAT      O45971   1.844   3.568   0.239
11313WAT     H145972   1.882   3.636   0.199
11313WAT     H245973   1.760   3.591   0.242
11313WAT    EPW45974   1.838   3.582   0.233
11314WAT      O45975   0.589   3.520   1.162
11314WAT     H145976   0.633   3.509   1.088
11314WAT     H245977   0.643   3.488   1.223
11314WAT    EPW45978   0.603   3.514   1.160
11315WAT      O45979   1.390   3.430   1.721
11315WAT     H145980   1.326   3.477   1.756
11315WAT     H245981   1.447   3.421   1.787
11315WAT    EPW45982   1.389   3.436   1.736
11316WAT      O45983   1.359   3.584   1.351
11316WAT     H145984   1.389   3.626   1.422
11316WAT     H245985   1.363   3.500   1.374
11316WAT    EPW45986   1.364   3.577   1.365
11317WAT      O45987   1.102   4.600   1.744
11317WAT     H145988   1.149   4.540   1.702
11317WAT     H245989   1.067   4.556   1.810
11317WAT    EPW45990   1.104   4.585   1.747
11318WAT      O45991   1.614   3.528   0.576
11318WAT     H145992   1.635   3.508   0.659
11318WAT     H245993   1.690   3.555   0.542
11318WAT    EPW45994   1.628   3.529   0.584
11319WAT      O45995   0.943   3.018   1.167
11319WAT     H145996   0.861   3.003   1.191
11319WAT     H245997   0.939   3.022   1.080
11319WAT    EPW45998   0.931   3.017   1.158
11320WAT      O45999   1.716   3.137   0.724
11320WAT     H146000   1.645   3.090   0.741
11320WAT     H246001   1.700   3.171   0.645
11320WAT    EPW46002   1.703   3.135   0.715
11321WAT      O46003   1.760   3.931   0.562
11321WAT     H146004   1.808   3.858   0.557
11321WAT     H246005   1.678   3.902   0.554
11321WAT    EPW46006   1.755   3.916   0.560
11322WAT      O46007   1.108   4.122   1.646
11322WAT     H146008   1.028   4.116   1.681
11322WAT     H246009   1.115   4.207   1.626
11322WAT    EPW46010   1.097   4.134   1.648
11323WAT      O46011   0.691   4.743   1.177
11323WAT     H146012   0.692   4.749   1.264
11323WAT     H246013   0.648   4.668   1.162
11323WAT    EPW46014   0.684   4.733   1.188
11324WAT      O46015   0.506   3.332   0.493
11324WAT     H146016   0.519   3.300   0.413
11324WAT     H246017   0.425   3.308   0.513
11324WAT    EPW46018   0.496   3.324   0.484
11325WAT      O46019   1.382   4.048   0.797
11325WAT     H146020   1.390   4.082   0.877
11325WAT     H246021   1.399   3.963   0.809
11325WAT    EPW46022   1.386   4.040   0.811
11326WAT      O46023   1.134   3.975   0.754
11326WAT     H146024   1.104   3.944   0.830
11326WAT     H246025   1.204   4.022   0.777
11326WAT    EPW46026   1.140   3.977   0.769
11327WAT      O46027   1.156   4.387   1.557
11327WAT     H146028   1.225   4.376   1.609
11327WAT     H246029   1.170   4.466   1.522
11327WAT    EPW46030   1.169   4.397   1.559
11328WAT      O46031   1.974   3.648   1.738
11328WAT     H146032   1.889   3.636   1.750
11328WAT     H246033   1.989   3.608   1.661
11328WAT    EPW46034   1.964   3.640   1.728
11329WAT      O46035   1.425   3.714   1.595
11329WAT     H146036   1.400   3.642   1.637
11329WAT     H246037   1.507   3.726   1.622
11329WAT    EPW46038   1.434   3.705   1.605
11330WAT      O46039   0.367   4.693   1.722
11330WAT     H146040   0.302   4.636   1.731
11330WAT     H246041   0.329   4.770   1.737
11330WAT    EPW46042   0.352   4.696   1.725
11331WAT      O46043   1.219   3.833   1.914
11331WAT     H146044   1.251   3.902   1.871
11331WAT     H246045   1.148   3.866   1.954
11331WAT    EPW46046   1.213   3.848   1.913
11332WAT      O46047   1.527   4.671   1.007
11332WAT     H146048   1.482   4.735   1.045
11332WAT     H246049   1.598   4.663   1.057
11332WAT    EPW46050   1.531   4.679   1.020
11333WAT      O46051   1.197   4.180   1.300
11333WAT     H146052   1.128   4.220   1.334
11333WAT     H246053   1.265   4.223   1.334
11333WAT    EPW46054   1.197   4.192   1.310
11334WAT      O46055   1.735   4.439   1.958
11334WAT     H146056   1.813   4.400   1.966
11334WAT     H246057   1.688   4.405   2.023
11334WAT    EPW46058   1.739   4.428   1.969
11335WAT      O46059   0.504   3.534   1.535
11335WAT     H146060   0.542   3.595   1.486
11335WAT     H246061   0.571   3.486   1.563
11335WAT    EPW46062   0.520   3.536   1.532
11336WAT      O46063   0.282   3.378   1.462
11336WAT     H146064   0.289   3.361   1.377
11336WAT     H246065   0.356   3.419   1.482
11336WAT    EPW46066   0.294   3.382   1.452
11337WAT      O46067   1.837   3.642   0.506
11337WAT     H146068   1.848   3.637   0.420
11337WAT     H246069   1.912   3.609   0.538
11337WAT    EPW46070   1.850   3.637   0.498
11338WAT      O46071   0.537   3.119   1.703
11338WAT     H146072   0.529   3.035   1.724
11338WAT     H246073   0.506   3.124   1.622
11338WAT    EPW46074   0.531   3.108   1.694
11339WAT      O46075   1.229   4.339   0.617
11339WAT     H146076   1.209   4.422   0.601
11339WAT     H246077   1.152   4.301   0.629
11339WAT    EPW46078   1.215   4.346   0.616
11340WAT      O46079   1.748   3.657   1.442
11340WAT     H146080   1.747   3.571   1.454
11340WAT     H246081   1.754   3.689   1.522
11340WAT    EPW46082   1.749   3.649   1.455
11341WAT      O46083   0.221   3.901   1.484
11341WAT     H146084   0.253   3.923   1.406
11341WAT     H246085   0.211   3.814   1.479
11341WAT    EPW46086   0.224   3.891   1.472
11342WAT      O46087   1.336   3.137   1.820
11342WAT     H146088   1.345   3.208   1.869
11342WAT     H246089   1.272   3.092   1.860
11342WAT    EPW46090   1.327   3.141   1.833
11343WAT      O46091   1.235   3.156   0.905
11343WAT     H146092   1.165   3.208   0.900
11343WAT     H246093   1.239   3.118   0.827
11343WAT    EPW46094   1.225   3.158   0.893
11344WAT      O46095   0.766   4.365   0.258
11344WAT     H146096   0.810   4.373   0.332
11344WAT     H246097   0.685   4.343   0.283
11344WAT    EPW46098   0.760   4.363   0.273
11345WAT      O46099   1.595   3.208   1.185
11345WAT     H146100   1.680   3.217   1.200
11345WAT     H246101   1.558   3.263   1.242
11345WAT    EPW46102   1.602   3.217   1.196
11346WAT      O46103   0.698   3.830   1.623
11346WAT     H146104   0.658   3.908   1.630
11346WAT     H246105   0.657   3.793   1.555
11346WAT    EPW46106   0.686   3.836   1.614
11347WAT      O46107   1.625   3.736   1.034
11347WAT     H146108   1.692   3.790   1.050
11347WAT     H246109   1.591   3.767   0.960
11347WAT    EPW46110   1.630   3.748   1.026
11348WAT      O46111   1.656   4.542   0.615
11348WAT     H146112   1.639   4.477   0.670
11348WAT     H246113   1.728   4.515   0.573
11348WAT    EPW46114   1.664   4.528   0.617
11349WAT      O46115   0.499   4.272   0.318
11349WAT     H146116   0.474   4.241   0.396
11349WAT     H246117   0.495   4.202   0.266
11349WAT    EPW46118   0.494   4.257   0.322
11350WAT      O46119   0.780   4.097   0.192
11350WAT     H146120   0.699   4.070   0.206
11350WAT     H246121   0.778   4.182   0.211
11350WAT    EPW46122   0.768   4.105   0.197
11351WAT      O46123   0.740   3.128   1.368
11351WAT     H146124   0.654   3.136   1.376
11351WAT     H246125   0.762   3.076   1.435
11351WAT    EPW46126   0.731   3.122   1.379
11352WAT      O46127   1.942   2.991   1.501
11352WAT     H146128   1.937   2.987   1.588
11352WAT     H246129   2.011   2.941   1.482
11352WAT    EPW46130   1.952   2.983   1.511
11353WAT      O46131   1.151   3.203   1.205
11353WAT     H146132   1.077   3.157   1.217
11353WAT     H246133   1.208   3.162   1.258
11353WAT    EPW46134   1.148   3.190   1.215
11354WAT      O46135   1.424   4.287   1.384
11354WAT     H146136   1.445   4.318   1.463
11354WAT     H246137   1.418   4.360   1.336
11354WAT    EPW46138   1.426   4.303   1.389
11355WAT      O46139   1.377   4.709   1.809
11355WAT     H146140   1.302   4.707   1.765
11355WAT     H246141   1.394   4.794   1.817
11355WAT    EPW46142   1.369   4.721   1.803
11356WAT      O46143   0.901   3.636   1.726
11356WAT     H146144   0.869   3.578   1.669
11356WAT     H246145   0.865   3.711   1.701
11356WAT    EPW46146   0.891   3.638   1.714
11357WAT      O46147   1.905   4.151   1.330
11357WAT     H146148   1.902   4.065   1.316
11357WAT     H246149   1.836   4.182   1.287
11357WAT    EPW46150   1.894   4.143   1.322
11358WAT      O46151   0.745   4.671   1.751
11358WAT     H146152   0.749   4.684   1.837
11358WAT     H246153   0.810   4.615   1.735
11358WAT    EPW46154   0.755   4.665   1.761
11359WAT      O46155   1.716   4.477   1.210
11359WAT     H146156   1.768   4.469   1.141
11359WAT     H246157   1.677   4.400   1.215
11359WAT    EPW46158   1.718   4.465   1.200
11360WAT      O46159   0.462   3.136   1.433
11360WAT     H146160   0.428   3.059   1.409
11360WAT     H246161   0.393   3.189   1.439
11360WAT    EPW46162   0.447   3.133   1.430
11361WAT      O46163   1.367   3.022   1.130
11361WAT     H146164   1.434   3.076   1.143
11361WAT     H246165   1.317   3.064   1.073
11361WAT    EPW46166   1.370   3.036   1.124
11362WAT      O46167   0.504   4.509   1.887
11362WAT     H146168   0.563   4.553   1.934
11362WAT     H246169   0.467   4.572   1.838
11362WAT    EPW46170   0.507   4.525   1.886
11363WAT      O46171   1.303   3.603   0.880
11363WAT     H146172   1.358   3.542   0.910
11363WAT     H246173   1.260   3.629   0.951
11363WAT    EPW46174   1.305   3.597   0.895
11364WAT      O46175   0.328   3.468   0.828
11364WAT     H146176   0.291   3.498   0.901
11364WAT     H246177   0.381   3.405   0.857
11364WAT    EPW46178   0.330   3.463   0.843
11365WAT      O46179   0.297   4.308   1.579
11365WAT     H146180   0.239   4.350   1.630
11365WAT     H246181   0.370   4.355   1.589
11365WAT    EPW46182   0.299   4.321   1.588
11366WAT      O46183   1.500   3.786   0.536
11366WAT     H146184   1.507   3.701   0.554
11366WAT     H246185   1.418   3.794   0.508
11366WAT    EPW46186   1.489   3.774   0.535
11367WAT      O46187   0.475   4.635   0.457
11367WAT     H146188   0.461   4.651   0.372
11367WAT     H246189   0.562   4.643   0.465
11367WAT    EPW46190   0.486   4.639   0.446
11368WAT      O46191   0.892   3.875   0.430
11368WAT     H146192   0.902   3.889   0.344
11368WAT     H246193   0.974   3.869   0.459
11368WAT    EPW46194   0.905   3.876   0.421
11369WAT      O46195   1.808   4.681   0.178
11369WAT     H146196   1.872   4.668   0.236
11369WAT     H246197   1.774   4.602   0.166
11369WAT    EPW46198   1.812   4.667   0.185
11370WAT      O46199   1.827   3.923   1.851
11370WAT     H146200   1.891   3.906   1.908
11370WAT     H246201   1.869   3.963   1.786
11370WAT    EPW46202   1.843   3.926   1.850
11371WAT      O46203   1.415   4.308   0.410
11371WAT     H146204   1.390   4.295   0.493
11371WAT     H246205   1.384   4.238   0.368
11371WAT    EPW46206   1.407   4.296   0.416
11372WAT      O46207   1.890   3.379   1.925
11372WAT     H146208   1.870   3.444   1.980
11372WAT     H246209   1.818   3.330   1.924
11372WAT    EPW46210   1.876   3.382   1.933
11373WAT      O46211   1.880   3.473   1.222
11373WAT     H146212   1.796   3.498   1.215
11373WAT     H246213   1.874   3.389   1.245
11373WAT    EPW46214   1.867   3.465   1.224
11374WAT      O46215   0.806   3.172   1.741
11374WAT     H146216   0.829   3.115   1.680
11374WAT     H246217   0.722   3.154   1.755
11374WAT    EPW46218   0.797   3.161   1.734
11375WAT      O46219   1.568   3.934   1.987
11375WAT     H146220   1.656   3.930   1.983
11375WAT     H246221   1.547   3.976   1.913
11375WAT    EPW46222   1.578   3.940   1.975
11376WAT      O46223   0.544   4.517   1.105
11376WAT     H146224   0.536   4.436   1.073
11376WAT     H246225   0.499   4.565   1.047
11376WAT    EPW46226   0.536   4.512   1.092
11377WAT      O46227   1.104   4.128   0.353
11377WAT     H146228   1.176   4.094   0.317
11377WAT     H246229   1.101   4.208   0.318
11377WAT    EPW46230   1.114   4.135   0.343
11378WAT      O46231   0.301   4.741   1.463
11378WAT     H146232   0.350   4.735   1.535
11378WAT     H246233   0.320   4.668   1.419
11378WAT    EPW46234   0.311   4.729   1.467
11379WAT      O46235   1.245   1.145   6.379
11379WAT     H146236   1.220   1.194   6.311
11379WAT     H246237   1.331   1.137   6.369
11379WAT    EPW46238   1.254   1.151   6.368
11380WAT      O46239   1.226   1.836   6.846
11380WAT     H146240   1.173   1.896   6.883
11380WAT     H246241   1.265   1.800   6.915
11380WAT    EPW46242   1.224   1.840   6.862
11381WAT      O46243   1.840   2.580   6.143
11381WAT     H146244   1.910   2.529   6.143
11381WAT     H246245   1.781   2.536   6.097
11381WAT    EPW46246   1.842   2.566   6.136
11382WAT      O46247   0.501   2.156   5.910
11382WAT     H146248   0.462   2.119   5.841
11382WAT     H246249   0.493   2.096   5.973
11382WAT    EPW46250   0.494   2.142   5.909
11383WAT      O46251   1.493   1.943   6.514
11383WAT     H146252   1.501   1.943   6.427
11383WAT     H246253   1.434   1.880   6.529
11383WAT    EPW46254   1.485   1.934   6.503
11384WAT      O46255   0.464   2.320   6.300
11384WAT     H146256   0.524   2.303   6.360
11384WAT     H246257   0.388   2.306   6.342
11384WAT    EPW46258   0.461   2.315   6.315
11385WAT      O46259   0.892   1.253   6.295
11385WAT     H146260   0.885   1.321   6.240
11385WAT     H246261   0.966   1.215   6.270
11385WAT    EPW46262   0.902   1.258   6.283
11386WAT      O46263   0.353   2.629   5.908
11386WAT     H146264   0.399   2.637   5.834
11386WAT     H246265   0.398   2.571   5.954
11386WAT    EPW46266   0.366   2.622   5.904
11387WAT      O46267   0.864   2.276   7.524
11387WAT     H146268   0.840   2.276   7.608
11387WAT     H246269   0.789   2.262   7.482
11387WAT    EPW46270   0.849   2.274   7.530
11388WAT      O46271   0.351   1.976   6.438
11388WAT     H146272   0.305   1.937   6.375
11388WAT     H246273   0.421   1.925   6.447
11388WAT    EPW46274   0.355   1.963   6.430
11389WAT      O46275   0.802   1.537   6.972
11389WAT     H146276   0.870   1.539   6.917
11389WAT     H246277   0.798   1.453   6.997
11389WAT    EPW46278   0.811   1.525   6.968
11390WAT      O46279   0.862   2.596   7.250
11390WAT     H146280   0.876   2.672   7.210
11390WAT     H246281   0.941   2.559   7.253
11390WAT    EPW46282   0.876   2.601   7.245
11391WAT      O46283   0.551   1.786   6.440
11391WAT     H146284   0.633   1.767   6.464
11391WAT     H246285   0.504   1.725   6.480
11391WAT    EPW46286   0.556   1.774   6.449
11392WAT      O46287   0.972   2.384   6.701
11392WAT     H146288   1.007   2.304   6.704
11392WAT     H246289   1.038   2.434   6.675
11392WAT    EPW46290   0.987   2.380   6.698
11393WAT      O46291   0.977   2.329   6.322
11393WAT     H146292   1.011   2.265   6.371
11393WAT     H246293   1.001   2.308   6.241
11393WAT    EPW46294   0.986   2.316   6.317
11394WAT      O46295   1.174   1.742   7.456
11394WAT     H146296   1.089   1.732   7.438
11394WAT     H246297   1.177   1.817   7.501
11394WAT    EPW46298   1.162   1.752   7.460
11395WAT      O46299   0.611   1.295   6.367
11395WAT     H146300   0.581   1.345   6.302
11395WAT     H246301   0.698   1.303   6.361
11395WAT    EPW46302   0.619   1.304   6.356
11396WAT      O46303   1.630   1.038   7.367
11396WAT     H146304   1.614   1.115   7.329
11396WAT     H246305   1.553   1.016   7.402
11396WAT    EPW46306   1.616   1.046   7.367
11397WAT      O46307   0.909   1.210   6.589
11397WAT     H146308   0.916   1.296   6.602
11397WAT     H246309   0.905   1.202   6.502
11397WAT    EPW46310   0.909   1.221   6.578
11398WAT      O46311   1.376   1.502   5.819
11398WAT     H146312   1.331   1.570   5.849
11398WAT     H246313   1.388   1.452   5.889
11398WAT    EPW46314   1.371   1.505   5.834
11399WAT      O46315   0.772   2.507   6.277
11399WAT     H146316   0.714   2.480   6.336
11399WAT     H246317   0.834   2.447   6.279
11399WAT    EPW46318   0.773   2.494   6.286
11400WAT      O46319   1.386   2.736   6.029
11400WAT     H146320   1.459   2.783   6.039
11400WAT     H246321   1.409   2.657   6.057
11400WAT    EPW46322   1.400   2.732   6.035
11401WAT      O46323   1.203   2.775   6.228
11401WAT     H146324   1.224   2.828   6.294
11401WAT     H246325   1.280   2.758   6.190
11401WAT    EPW46326   1.217   2.781   6.232
11402WAT      O46327   0.500   1.234   6.788
11402WAT     H146328   0.448   1.171   6.757
11402WAT     H246329   0.559   1.190   6.835
11402WAT    EPW46330   0.501   1.218   6.790
11403WAT      O46331   0.342   2.590   6.322
11403WAT     H146332   0.408   2.533   6.324
11403WAT     H246333   0.381   2.665   6.300
11403WAT    EPW46334   0.358   2.593   6.319
11404WAT      O46335   1.916   1.499   6.448
11404WAT     H146336   1.881   1.567   6.491
11404WAT     H246337   1.852   1.440   6.450
11404WAT    EPW46338   1.901   1.501   6.455
11405WAT      O46339   1.447   2.776   7.059
11405WAT     H146340   1.521   2.822   7.058
11405WAT     H246341   1.435   2.755   6.975
11405WAT    EPW46342   1.456   2.780   7.046
11406WAT      O46343   0.404   1.407   7.616
11406WAT     H146344   0.326   1.368   7.609
11406WAT     H246345   0.453   1.366   7.557
11406WAT    EPW46346   0.399   1.395   7.606
11407WAT      O46347   0.424   2.439   6.672
11407WAT     H146348   0.466   2.403   6.605
11407WAT     H246349   0.457   2.397   6.741
11407WAT    EPW46350   0.435   2.427   6.672
11408WAT      O46351   0.747   2.724   6.602
11408WAT     H146352   0.832   2.734   6.582
11408WAT     H246353   0.718   2.806   6.608
11408WAT    EPW46354   0.755   2.738   6.600
11409WAT      O46355   1.069   1.171   7.533
11409WAT     H146356   1.086   1.090   7.506
11409WAT     H246357   1.054   1.215   7.459
11409WAT    EPW46358   1.069   1.166   7.518
11410WAT      O46359   1.128   1.664   6.410
11410WAT     H146360   1.157   1.640   6.331
11410WAT     H246361   1.201   1.672   6.457
11410WAT    EPW46362   1.143   1.661   6.406
11411WAT      O46363   1.200   1.698   5.922
11411WAT     H146364   1.228   1.776   5.947
11411WAT     H246365   1.123   1.714   5.886
11411WAT    EPW46366   1.193   1.712   5.921
11412WAT      O46367   1.604   2.895   6.069
11412WAT     H146368   1.671   2.880   6.015
11412WAT     H246369   1.640   2.887   6.148
11412WAT    EPW46370   1.619   2.892   6.073
11413WAT      O46371   0.647   2.846   7.176
11413WAT     H146372   0.676   2.839   7.258
11413WAT     H246373   0.584   2.785   7.171
11413WAT    EPW46374   0.642   2.836   7.187
11414WAT      O46375   1.883   1.332   6.985
11414WAT     H146376   1.959   1.339   6.942
11414WAT     H246377   1.889   1.254   7.025
11414WAT    EPW46378   1.895   1.321   6.985
11415WAT      O46379   1.372   2.495   7.429
11415WAT     H146380   1.369   2.533   7.507
11415WAT     H246381   1.458   2.491   7.412
11415WAT    EPW46382   1.384   2.500   7.438
11416WAT      O46383   1.086   2.515   5.904
11416WAT     H146384   1.068   2.569   5.970
11416WAT     H246385   1.163   2.544   5.874
11416WAT    EPW46386   1.095   2.527   5.909
11417WAT      O46387   1.437   1.304   6.009
11417WAT     H146388   1.491   1.236   6.017
11417WAT     H246389   1.443   1.344   6.087
11417WAT    EPW46390   1.446   1.300   6.022
11418WAT      O46391   0.232   1.421   6.266
11418WAT     H146392   0.221   1.335   6.269
11418WAT     H246393   0.185   1.450   6.333
11418WAT    EPW46394   0.223   1.413   6.277
11419WAT      O46395   0.446   2.662   7.088
11419WAT     H146396   0.377   2.611   7.100
11419WAT     H246397   0.472   2.642   7.007
11419WAT    EPW46398   0.440   2.652   7.078
11420WAT      O46399   1.163   1.542   6.141
11420WAT     H146400   1.112   1.476   6.115
11420WAT     H246401   1.168   1.592   6.070
11420WAT    EPW46402   1.156   1.540   6.127
11421WAT      O46403   1.217   2.811   7.179
11421WAT     H146404   1.294   2.803   7.138
11421WAT     H246405   1.159   2.799   7.115
11421WAT    EPW46406   1.220   2.808   7.163
11422WAT      O46407   1.163   1.236   6.130
11422WAT     H146408   1.117   1.196   6.067
11422WAT     H246409   1.240   1.251   6.092
11422WAT    EPW46410   1.167   1.232   6.115
11423WAT      O46411   1.845   2.872   6.469
11423WAT     H146412   1.800   2.943   6.489
11423WAT     H246413   1.784   2.815   6.445
11423WAT    EPW46414   1.829   2.874   6.468
11424WAT      O46415   1.022   1.473   6.582
11424WAT     H146416   1.030   1.529   6.516
11424WAT     H246417   1.034   1.522   6.653
11424WAT    EPW46418   1.025   1.488   6.583
11425WAT      O46419   1.545   2.456   6.423
11425WAT     H146420   1.615   2.408   6.442
11425WAT     H246421   1.479   2.399   6.428
11425WAT    EPW46422   1.545   2.441   6.427
11426WAT      O46423   0.582   2.547   7.345
11426WAT     H146424   0.667   2.553   7.322
11426WAT     H246425   0.579   2.587   7.422
11426WAT    EPW46426   0.594   2.554   7.353
11427WAT      O46427   0.483   1.055   6.417
11427WAT     H146428   0.537   1.124   6.416
11427WAT     H246429   0.483   1.028   6.334
11427WAT    EPW46430   0.491   1.061   6.405
11428WAT      O46431   0.779   2.098   6.819
11428WAT     H146432   0.796   2.077   6.902
11428WAT     H246433   0.713   2.045   6.798
11428WAT    EPW46434   0.772   2.087   6.829
11429WAT      O46435   1.402   1.490   7.171
11429WAT     H146436   1.392   1.522   7.252
11429WAT     H246437   1.342   1.426   7.167
11429WAT    EPW46438   1.391   1.485   7.182
11430WAT      O46439   0.854   2.092   7.078
11430WAT     H146440   0.859   2.177   7.099
11430WAT     H246441   0.825   2.055   7.152
11430WAT    EPW46442   0.850   2.099   7.092
11431WAT      O46443   1.471   2.162   6.991
11431WAT     H146444   1.420   2.120   7.049
11431WAT     H246445   1.459   2.246   7.010
11431WAT    EPW46446   1.462   2.168   7.003
11432WAT      O46447   1.527   1.084   6.455
11432WAT     H146448   1.532   1.052   6.536
11432WAT     H246449   1.559   1.020   6.405
11432WAT    EPW46450   1.533   1.070   6.459
11433WAT      O46451   1.774   1.508   7.285
11433WAT     H146452   1.851   1.485   7.319
11433WAT     H246453   1.726   1.529   7.355
11433WAT    EPW46454   1.778   1.508   7.301
11434WAT      O46455   0.528   1.436   6.582
11434WAT     H146456   0.555   1.393   6.512
11434WAT     H246457   0.510   1.372   6.639
11434WAT    EPW46458   0.529   1.420   6.580
11435WAT      O46459   1.797   2.205   6.004
11435WAT     H146460   1.809   2.177   6.086
11435WAT     H246461   1.877   2.208   5.971
11435WAT    EPW46462   1.810   2.202   6.011
11436WAT      O46463   0.510   2.179   6.537
11436WAT     H146464   0.595   2.171   6.520
11436WAT     H246465   0.475   2.110   6.496
11436WAT    EPW46466   0.518   2.167   6.529
11437WAT      O46467   0.387   2.851   6.661
11437WAT     H146468   0.320   2.801   6.636
11437WAT     H246469   0.427   2.870   6.586
11437WAT    EPW46470   0.383   2.847   6.646
11438WAT      O46471   0.342   1.546   6.891
11438WAT     H146472   0.426   1.568   6.886
11438WAT     H246473   0.303   1.603   6.837
11438WAT    EPW46474   0.349   1.558   6.882
11439WAT      O46475   2.020   2.656   7.430
11439WAT     H146476   1.952   2.687   7.385
11439WAT     H246477   1.983   2.611   7.494
11439WAT    EPW46478   2.005   2.654   7.432
11440WAT      O46479   1.586   1.859   5.963
11440WAT     H146480   1.564   1.932   5.920
11440WAT     H246481   1.541   1.864   6.037
11440WAT    EPW46482   1.576   1.871   5.967
11441WAT      O46483   0.747   2.179   6.361
11441WAT     H146484   0.818   2.229   6.370
11441WAT     H246485   0.769   2.123   6.298
11441WAT    EPW46486   0.761   2.178   6.353
11442WAT      O46487   2.005   1.345   5.908
11442WAT     H146488   1.939   1.288   5.910
11442WAT     H246489   1.986   1.396   5.840
11442WAT    EPW46490   1.992   1.344   5.898
11443WAT      O46491   2.037   1.783   7.164
11443WAT     H146492   2.059   1.703   7.136
11443WAT     H246493   1.952   1.789   7.145
11443WAT    EPW46494   2.028   1.772   7.157
11444WAT      O46495   1.805   1.301   6.136
11444WAT     H146496   1.880   1.260   6.156
11444WAT     H246497   1.831   1.373   6.093
11444WAT    EPW46498   1.820   1.306   6.133
11445WAT      O46499   1.199   2.550   6.593
11445WAT     H146500   1.147   2.613   6.564
11445WAT     H246501   1.230   2.513   6.521
11445WAT    EPW46502   1.196   2.554   6.578
11446WAT      O46503   0.607   2.328   6.869
11446WAT     H146504   0.654   2.357   6.937
11446WAT     H246505   0.664   2.281   6.824
11446WAT    EPW46506   0.622   2.326   6.873
11447WAT      O46507   1.451   1.530   6.643
11447WAT     H146508   1.485   1.545   6.722
11447WAT     H246509   1.405   1.456   6.654
11447WAT    EPW46510   1.449   1.521   6.656
11448WAT      O46511   0.264   2.095   6.724
11448WAT     H146512   0.307   2.083   6.649
11448WAT     H246513   0.243   2.180   6.721
11448WAT    EPW46514   0.267   2.106   6.712
11449WAT      O46515   0.898   1.452   6.089
11449WAT     H146516   0.898   1.440   6.002
11449WAT     H246517   0.880   1.537   6.098
11449WAT    EPW46518   0.895   1.463   6.077
11450WAT      O46519   1.804   2.695   7.239
11450WAT     H146520   1.736   2.746   7.260
11450WAT     H246521   1.810   2.705   7.152
11450WAT    EPW46522   1.795   2.704   7.229
11451WAT      O46523   0.672   2.447   6.552
11451WAT     H146524   0.685   2.531   6.571
11451WAT     H246525   0.739   2.407   6.592
11451WAT    EPW46526   0.684   2.454   6.561
11452WAT      O46527   0.485   1.795   7.538
11452WAT     H146528   0.431   1.745   7.585
11452WAT     H246529   0.487   1.756   7.460
11452WAT    EPW46530   0.477   1.782   7.534
11453WAT      O46531   0.533   1.735   6.052
11453WAT     H146532   0.521   1.690   6.126
11453WAT     H246533   0.475   1.701   5.997
11453WAT    EPW46534   0.523   1.723   6.055
11454WAT      O46535   0.550   1.918   6.712
11454WAT     H146536   0.472   1.912   6.674
11454WAT     H246537   0.557   1.843   6.756
11454WAT    EPW46538   0.540   1.906   6.713
11455WAT      O46539   0.593   1.892   7.059
11455WAT     H146540   0.596   1.824   7.004
11455WAT     H246541   0.529   1.941   7.028
11455WAT    EPW46542   0.584   1.889   7.046
11456WAT      O46543   1.583   1.663   6.899
11456WAT     H146544   1.516   1.696   6.945
11456WAT     H246545   1.601   1.726   6.842
11456WAT    EPW46546   1.576   1.677   6.897
11457WAT      O46547   1.003   2.769   6.998
11457WAT     H146548   0.975   2.705   6.946
11457WAT     H246549   0.982   2.842   6.954
11457WAT    EPW46550   0.996   2.771   6.984
11458WAT      O46551   1.247   1.254   7.241
11458WAT     H146552   1.262   1.171   7.217
11458WAT     H246553   1.285   1.259   7.320
11458WAT    EPW46554   1.255   1.242   7.249
11459WAT      O46555   1.402   1.460   6.250
11459WAT     H146556   1.451   1.532   6.242
11459WAT     H246557   1.323   1.486   6.223
11459WAT    EPW46558   1.398   1.474   6.245
11460WAT      O46559   0.373   2.027   7.615
11460WAT     H146560   0.369   2.077   7.543
11460WAT     H246561   0.406   1.952   7.585
11460WAT    EPW46562   0.377   2.023   7.600
11461WAT      O46563   1.533   2.248   7.441
11461WAT     H146564   1.582   2.320   7.450
11461WAT     H246565   1.573   2.205   7.376
11461WAT    EPW46566   1.546   2.252   7.432
11462WAT      O46567   0.963   2.532   7.558
11462WAT     H146568   0.998   2.514   7.636
11462WAT     H246569   0.919   2.459   7.538
11462WAT    EPW46570   0.962   2.519   7.567
11463WAT      O46571   1.060   1.607   6.822
11463WAT     H146572   1.108   1.677   6.843
11463WAT     H246573   1.097   1.542   6.867
11463WAT    EPW46574   1.073   1.608   6.832
11464WAT      O46575   1.279   1.924   6.050
11464WAT     H146576   1.278   1.996   6.001
11464WAT     H246577   1.215   1.937   6.107
11464WAT    EPW46578   1.270   1.937   6.051
11465WAT      O46579   1.776   2.311   6.448
11465WAT     H146580   1.812   2.276   6.519
11465WAT     H246581   1.775   2.245   6.391
11465WAT    EPW46582   1.781   2.296   6.450
11466WAT      O46583   1.381   2.617   6.832
11466WAT     H146584   1.320   2.588   6.776
11466WAT     H246585   1.435   2.663   6.781
11466WAT    EPW46586   1.380   2.620   6.816
11467WAT      O46587   1.382   2.303   6.772
11467WAT     H146588   1.302   2.325   6.799
11467WAT     H246589   1.408   2.243   6.831
11467WAT    EPW46590   1.374   2.297   6.785
11468WAT      O46591   0.771   2.784   6.217
11468WAT     H146592   0.757   2.706   6.254
11468WAT     H246593   0.840   2.769   6.165
11468WAT    EPW46594   0.779   2.770   6.215
11469WAT      O46595   0.738   1.158   6.016
11469WAT     H146596   0.748   1.147   6.102
11469WAT     H246597   0.668   1.209   6.009
11469WAT    EPW46598   0.729   1.164   6.027
11470WAT      O46599   1.000   2.735   6.057
11470WAT     H146600   1.063   2.752   6.116
11470WAT     H246601   1.004   2.804   6.004
11470WAT    EPW46602   1.010   2.748   6.058
11471WAT      O46603   1.708   2.102   7.257
11471WAT     H146604   1.714   2.115   7.170
11471WAT     H246605   1.783   2.134   7.287
11471WAT    EPW46606   1.720   2.109   7.248
11472WAT      O46607   1.811   1.132   7.555
11472WAT     H146608   1.748   1.092   7.511
11472WAT     H246609   1.814   1.089   7.631
11472WAT    EPW46610   1.802   1.120   7.560
11473WAT      O46611   0.451   1.989   6.140
11473WAT     H146612   0.483   1.911   6.118
11473WAT     H246613   0.515   2.026   6.185
11473WAT    EPW46614   0.465   1.983   6.143
11474WAT      O46615   1.281   2.083   7.217
11474WAT     H146616   1.266   2.144   7.277
11474WAT     H246617   1.335   2.027   7.257
11474WAT    EPW46618   1.287   2.084   7.232
11475WAT      O46619   1.120   1.923   6.282
11475WAT     H146620   1.125   1.988   6.340
11475WAT     H246621   1.101   1.853   6.332
11475WAT    EPW46622   1.118   1.922   6.298
11476WAT      O46623   1.642   2.356   6.869
11476WAT     H146624   1.594   2.386   6.803
11476WAT     H246625   1.607   2.278   6.887
11476WAT    EPW46626   1.630   2.349   6.862
11477WAT      O46627   0.569   1.375   5.934
11477WAT     H146628   0.518   1.380   5.863
11477WAT     H246629   0.648   1.399   5.904
11477WAT    EPW46630   0.573   1.379   5.919
11478WAT      O46631   1.042   2.128   6.726
11478WAT     H146632   0.957   2.108   6.734
11478WAT     H246633   1.074   2.111   6.805
11478WAT    EPW46634   1.034   2.122   6.738
11479WAT      O46635   0.717   2.801   5.814
11479WAT     H146636   0.761   2.731   5.843
11479WAT     H246637   0.738   2.863   5.871
11479WAT    EPW46638   0.727   2.800   5.827
11480WAT      O46639   0.427   2.097   6.957
11480WAT     H146640   0.499   2.146   6.953
11480WAT     H246641   0.400   2.094   6.874
11480WAT    EPW46642   0.433   2.104   6.944
11481WAT      O46643   0.750   1.614   6.631
11481WAT     H146644   0.834   1.595   6.640
11481WAT     H246645   0.713   1.536   6.617
11481WAT    EPW46646   0.757   1.600   6.630
11482WAT      O46647   2.011   2.772   6.063
11482WAT     H146648   2.081   2.726   6.039
11482WAT     H246649   1.957   2.713   6.097
11482WAT    EPW46650   2.014   2.757   6.065
11483WAT      O46651   0.232   1.748   6.296
11483WAT     H146652   0.281   1.719   6.362
11483WAT     H246653   0.245   1.689   6.233
11483WAT    EPW46654   0.241   1.735   6.297
11484WAT      O46655   1.735   2.050   6.981
11484WAT     H146656   1.735   1.972   7.021
11484WAT     H246657   1.651   2.073   6.981
11484WAT    EPW46658   1.723   2.042   6.987
11485WAT      O46659   0.684   1.891   5.845
11485WAT     H146660   0.623   1.851   5.892
11485WAT     H246661   0.646   1.903   5.767
11485WAT    EPW46662   0.670   1.887   5.840
11486WAT      O46663   0.366   2.202   7.385
11486WAT     H146664   0.324   2.150   7.329
11486WAT     H246665   0.331   2.281   7.371
11486WAT    EPW46666   0.355   2.206   7.375
11487WAT      O46667   1.861   2.057   6.725
11487WAT     H146668   1.832   2.097   6.797
11487WAT     H246669   1.947   2.051   6.738
11487WAT    EPW46670   1.869   2.062   6.737
11488WAT      O46671   0.830   1.737   6.116
11488WAT     H146672   0.857   1.820   6.122
11488WAT     H246673   0.743   1.745   6.106
11488WAT    EPW46674   0.821   1.751   6.115
11489WAT      O46675   1.627   1.450   7.579
11489WAT     H146676   1.575   1.495   7.631
11489WAT     H246677   1.591   1.370   7.578
11489WAT    EPW46678   1.614   1.445   7.587
11490WAT      O46679   0.178   1.334   6.769
11490WAT     H146680   0.182   1.369   6.689
11490WAT     H246681   0.253   1.358   6.806
11490WAT    EPW46682   0.190   1.343   6.763
11491WAT      O46683   1.974   2.620   6.778
11491WAT     H146684   2.003   2.646   6.700
11491WAT     H246685   2.043   2.630   6.830
11491WAT    EPW46686   1.989   2.626   6.774
11492WAT      O46687   1.476   1.806   7.587
11492WAT     H146688   1.484   1.817   7.673
11492WAT     H246689   1.413   1.862   7.564
11492WAT    EPW46690   1.468   1.816   7.596
11493WAT      O46691   1.703   1.838   7.423
11493WAT     H146692   1.735   1.917   7.443
11493WAT     H246693   1.666   1.811   7.497
11493WAT    EPW46694   1.702   1.846   7.437
11494WAT      O46695   1.634   2.481   5.976
11494WAT     H146696   1.668   2.400   5.980
11494WAT     H246697   1.559   2.474   6.019
11494WAT    EPW46698   1.628   2.468   5.983
11495WAT      O46699   1.683   1.664   6.542
11495WAT     H146700   1.608   1.632   6.574
11495WAT     H246701   1.683   1.747   6.570
11495WAT    EPW46702   1.672   1.672   6.551
11496WAT      O46703   1.927   2.260   7.317
11496WAT     H146704   1.989   2.205   7.292
11496WAT     H246705   1.921   2.317   7.251
11496WAT    EPW46706   1.935   2.260   7.304
11497WAT      O46707   1.372   2.268   5.916
11497WAT     H146708   1.440   2.217   5.899
11497WAT     H246709   1.330   2.273   5.840
11497WAT    EPW46710   1.376   2.261   5.903
11498WAT      O46711   0.840   2.383   7.047
11498WAT     H146712   0.810   2.442   7.103
11498WAT     H246713   0.846   2.427   6.972
11498WAT    EPW46714   0.836   2.399   7.044
11499WAT      O46715   0.638   2.278   7.387
11499WAT     H146716   0.557   2.249   7.403
11499WAT     H246717   0.629   2.365   7.387
11499WAT    EPW46718   0.625   2.287   7.389
11500WAT      O46719   1.574   1.297   7.288
11500WAT     H146720   1.648   1.342   7.282
11500WAT     H246721   1.517   1.344   7.241
11500WAT    EPW46722   1.577   1.311   7.280
11501WAT      O46723   1.092   2.026   6.996
11501WAT     H146724   1.139   2.063   7.059
11501WAT     H246725   1.009   2.039   7.022
11501WAT    EPW46726   1.087   2.033   7.009
11502WAT      O46727   0.763   1.586   7.270
11502WAT     H146728   0.779   1.511   7.313
11502WAT     H246729   0.758   1.561   7.186
11502WAT    EPW46730   0.764   1.571   7.264
11503WAT      O46731   1.018   2.765   6.519
11503WAT     H146732   1.073   2.833   6.524
11503WAT     H246733   0.983   2.773   6.439
11503WAT    EPW46734   1.021   2.776   6.508
11504WAT      O46735   1.702   1.095   7.055
11504WAT     H146736   1.674   1.178   7.051
11504WAT     H246737   1.774   1.100   7.105
11504WAT    EPW46738   1.709   1.108   7.062
11505WAT      O46739   0.938   1.167   7.258
11505WAT     H146740   1.008   1.199   7.218
11505WAT     H246741   0.962   1.086   7.281
11505WAT    EPW46742   0.952   1.159   7.255
11506WAT      O46743   0.836   2.588   6.858
11506WAT     H146744   0.774   2.646   6.839
11506WAT     H246745   0.861   2.559   6.779
11506WAT    EPW46746   0.831   2.592   6.843
11507WAT      O46747   1.267   2.251   7.556
11507WAT     H146748   1.343   2.280   7.524
11507WAT     H246749   1.213   2.256   7.489
11507WAT    EPW46750   1.270   2.256   7.542
11508WAT      O46751   1.658   2.506   7.407
11508WAT     H146752   1.693   2.533   7.482
11508WAT     H246753   1.688   2.564   7.349
11508WAT    EPW46754   1.668   2.519   7.409
11509WAT      O46755   1.844   1.721   5.941
11509WAT     H146756   1.882   1.788   5.901
11509WAT     H246757   1.760   1.743   5.944
11509WAT    EPW46758   1.838   1.734   5.935
11510WAT      O46759   0.996   2.065   5.849
11510WAT     H146760   0.915   2.048   5.821
11510WAT     H246761   0.992   2.150   5.868
11510WAT    EPW46762   0.983   2.075   5.848
11511WAT      O46763   0.589   1.672   6.864
11511WAT     H146764   0.633   1.662   6.789
11511WAT     H246765   0.643   1.641   6.925
11511WAT    EPW46766   0.603   1.666   6.862
11512WAT      O46767   1.390   1.582   7.423
11512WAT     H146768   1.326   1.629   7.458
11512WAT     H246769   1.447   1.573   7.489
11512WAT    EPW46770   1.389   1.588   7.438
11513WAT      O46771   1.359   1.736   7.053
11513WAT     H146772   1.389   1.778   7.123
11513WAT     H246773   1.363   1.652   7.076
11513WAT    EPW46774   1.364   1.730   7.067
11514WAT      O46775   1.102   2.753   7.446
11514WAT     H146776   1.149   2.693   7.404
11514WAT     H246777   1.067   2.708   7.512
11514WAT    EPW46778   1.104   2.737   7.449
11515WAT      O46779   1.614   1.681   6.278
11515WAT     H146780   1.635   1.660   6.361
11515WAT     H246781   1.690   1.707   6.244
11515WAT    EPW46782   1.628   1.682   6.285
11516WAT      O46783   0.943   1.170   6.869
11516WAT     H146784   0.861   1.156   6.892
11516WAT     H246785   0.939   1.174   6.782
11516WAT    EPW46786   0.931   1.169   6.859
11517WAT      O46787   1.716   1.289   6.426
11517WAT     H146788   1.645   1.242   6.443
11517WAT     H246789   1.700   1.323   6.347
11517WAT    EPW46790   1.703   1.287   6.417
11518WAT      O46791   1.760   2.083   6.264
11518WAT     H146792   1.808   2.010   6.259
11518WAT     H246793   1.678   2.055   6.256
11518WAT    EPW46794   1.755   2.068   6.262
11519WAT      O46795   1.108   2.274   7.348
11519WAT     H146796   1.028   2.268   7.383
11519WAT     H246797   1.115   2.359   7.328
11519WAT    EPW46798   1.097   2.286   7.350
11520WAT      O46799   0.691   2.895   6.879
11520WAT     H146800   0.692   2.901   6.966
11520WAT     H246801   0.648   2.820   6.864
11520WAT    EPW46802   0.684   2.885   6.890
11521WAT      O46803   0.506   1.485   6.195
11521WAT     H146804   0.519   1.452   6.115
11521WAT     H246805   0.425   1.460   6.215
11521WAT    EPW46806   0.496   1.476   6.186
11522WAT      O46807   1.382   2.200   6.499
11522WAT     H146808   1.390   2.234   6.579
11522WAT     H246809   1.399   2.115   6.511
11522WAT    EPW46810   1.386   2.192   6.513
11523WAT      O46811   1.134   2.127   6.456
11523WAT     H146812   1.104   2.096   6.531
11523WAT     H246813   1.204   2.175   6.479
11523WAT    EPW46814   1.140   2.130   6.470
11524WAT      O46815   1.156   2.539   7.258
11524WAT     H146816   1.225   2.528   7.311
11524WAT     H246817   1.170   2.618   7.224
11524WAT    EPW46818   1.169   2.549   7.261
11525WAT      O46819   1.974   1.800   7.439
11525WAT     H146820   1.889   1.788   7.452
11525WAT     H246821   1.989   1.761   7.363
11525WAT    EPW46822   1.964   1.792   7.430
11526WAT      O46823   1.425   1.867   7.297
11526WAT     H146824   1.400   1.795   7.339
11526WAT     H246825   1.507   1.878   7.324
11526WAT    EPW46826   1.434   1.858   7.307
11527WAT      O46827   0.367   2.845   7.423
11527WAT     H146828   0.302   2.788   7.433
11527WAT     H246829   0.329   2.922   7.439
11527WAT    EPW46830   0.352   2.848   7.427
11528WAT      O46831   1.219   1.986   7.616
11528WAT     H146832   1.251   2.054   7.573
11528WAT     H246833   1.148   2.018   7.656
11528WAT    EPW46834   1.213   2.000   7.615
11529WAT      O46835   1.527   2.823   6.709
11529WAT     H146836   1.482   2.887   6.747
11529WAT     H246837   1.598   2.815   6.759
11529WAT    EPW46838   1.531   2.831   6.722
11530WAT      O46839   1.197   2.332   7.002
11530WAT     H146840   1.128   2.372   7.036
11530WAT     H246841   1.265   2.375   7.036
11530WAT    EPW46842   1.197   2.344   7.012
11531WAT      O46843   0.504   1.686   7.236
11531WAT     H146844   0.542   1.748   7.188
11531WAT     H246845   0.571   1.638   7.265
11531WAT    EPW46846   0.520   1.688   7.233
11532WAT      O46847   0.282   1.531   7.164
11532WAT     H146848   0.289   1.514   7.079
11532WAT     H246849   0.356   1.571   7.184
11532WAT    EPW46850   0.294   1.534   7.154
11533WAT      O46851   1.837   1.795   6.208
11533WAT     H146852   1.848   1.789   6.121
11533WAT     H246853   1.912   1.761   6.240
11533WAT    EPW46854   1.850   1.789   6.200
11534WAT      O46855   0.537   1.272   7.405
11534WAT     H146856   0.529   1.187   7.426
11534WAT     H246857   0.506   1.276   7.324
11534WAT    EPW46858   0.531   1.260   7.396
11535WAT      O46859   1.229   2.491   6.319
11535WAT     H146860   1.209   2.574   6.303
11535WAT     H246861   1.152   2.453   6.331
11535WAT    EPW46862   1.215   2.498   6.318
11536WAT      O46863   1.748   1.809   7.143
11536WAT     H146864   1.747   1.723   7.156
11536WAT     H246865   1.754   1.842   7.224
11536WAT    EPW46866   1.749   1.801   7.157
11537WAT      O46867   0.221   2.053   7.186
11537WAT     H146868   0.253   2.075   7.108
11537WAT     H246869   0.211   1.967   7.181
11537WAT    EPW46870   0.224   2.044   7.174
11538WAT      O46871   0.367   1.647   5.848
11538WAT     H146872   0.300   1.648   5.904
11538WAT     H246873   0.376   1.562   5.830
11538WAT    EPW46874   0.358   1.634   5.854
11539WAT      O46875   1.336   1.289   7.522
11539WAT     H146876   1.345   1.360   7.571
11539WAT     H246877   1.272   1.245   7.561
11539WAT    EPW46878   1.327   1.293   7.535
11540WAT      O46879   1.235   1.308   6.607
11540WAT     H146880   1.165   1.360   6.601
11540WAT     H246881   1.239   1.270   6.529
11540WAT    EPW46882   1.225   1.310   6.595
11541WAT      O46883   0.766   2.517   5.959
11541WAT     H146884   0.810   2.525   6.034
11541WAT     H246885   0.685   2.496   5.985
11541WAT    EPW46886   0.760   2.515   5.974
11542WAT      O46887   1.595   1.360   6.887
11542WAT     H146888   1.680   1.370   6.902
11542WAT     H246889   1.558   1.415   6.944
11542WAT    EPW46890   1.602   1.369   6.898
11543WAT      O46891   0.698   1.982   7.325
11543WAT     H146892   0.658   2.060   7.332
11543WAT     H246893   0.657   1.945   7.257
11543WAT    EPW46894   0.686   1.988   7.316
11544WAT      O46895   1.625   1.888   6.736
11544WAT     H146896   1.692   1.942   6.752
11544WAT     H246897   1.591   1.919   6.662
11544WAT    EPW46898   1.630   1.900   6.728
11545WAT      O46899   1.656   2.694   6.317
11545WAT     H146900   1.639   2.629   6.372
11545WAT     H246901   1.728   2.667   6.275
11545WAT    EPW46902   1.664   2.681   6.319
11546WAT      O46903   0.499   2.424   6.020
11546WAT     H146904   0.474   2.394   6.098
11546WAT     H246905   0.495   2.354   5.968
11546WAT    EPW46906   0.494   2.409   6.023
11547WAT      O46907   0.780   2.249   5.894
11547WAT     H146908   0.699   2.222   5.908
11547WAT     H246909   0.778   2.334   5.912
11547WAT    EPW46910   0.768   2.257   5.899
11548WAT      O46911   0.740   1.280   7.070
11548WAT     H146912   0.654   1.288   7.078
11548WAT     H246913   0.762   1.229   7.137
11548WAT    EPW46914   0.731   1.274   7.081
11549WAT      O46915   1.942   1.144   7.203
11549WAT     H146916   1.937   1.139   7.290
11549WAT     H246917   2.011   1.093   7.184
11549WAT    EPW46918   1.952   1.136   7.213
11550WAT      O46919   1.151   1.355   6.907
11550WAT     H146920   1.077   1.309   6.918
11550WAT     H246921   1.208   1.315   6.959
11550WAT    EPW46922   1.148   1.342   6.917
11551WAT      O46923   1.424   2.440   7.086
11551WAT     H146924   1.445   2.470   7.165
11551WAT     H246925   1.418   2.512   7.037
11551WAT    EPW46926   1.426   2.455   7.090
11552WAT      O46927   1.377   2.861   7.511
11552WAT     H146928   1.302   2.859   7.466
11552WAT     H246929   1.394   2.946   7.519
11552WAT    EPW46930   1.369   2.873   7.505
11553WAT      O46931   0.901   1.788   7.428
11553WAT     H146932   0.869   1.730   7.371
11553WAT     H246933   0.865   1.863   7.403
11553WAT    EPW46934   0.891   1.790   7.416
11554WAT      O46935   0.981   1.113   5.890
11554WAT     H146936   0.988   1.138   5.807
11554WAT     H246937   0.906   1.151   5.916
11554WAT    EPW46938   0.971   1.122   5.882
11555WAT      O46939   1.905   2.304   7.032
11555WAT     H146940   1.902   2.217   7.018
11555WAT     H246941   1.836   2.334   6.988
11555WAT    EPW46942   1.894   2.295   7.023
11556WAT      O46943   0.745   2.823   7.452
11556WAT     H146944   0.749   2.836   7.539
11556WAT     H246945   0.810   2.767   7.437
11556WAT    EPW46946   0.755   2.817   7.463
11557WAT      O46947   1.716   2.630   6.911
11557WAT     H146948   1.768   2.621   6.842
11557WAT     H246949   1.677   2.552   6.917
11557WAT    EPW46950   1.718   2.617   6.902
11558WAT      O46951   0.462   1.288   7.135
11558WAT     H146952   0.428   1.212   7.111
11558WAT     H246953   0.393   1.341   7.141
11558WAT    EPW46954   0.447   1.285   7.132
11559WAT      O46955   1.367   1.174   6.832
11559WAT     H146956   1.434   1.228   6.845
11559WAT     H246957   1.317   1.216   6.775
11559WAT    EPW46958   1.370   1.188   6.826
11560WAT      O46959   0.504   2.662   7.588
11560WAT     H146960   0.563   2.705   7.636
11560WAT     H246961   0.467   2.724   7.539
11560WAT    EPW46962   0.507   2.677   7.588
11561WAT      O46963   1.303   1.755   6.582
11561WAT     H146964   1.358   1.694   6.612
11561WAT     H246965   1.260   1.781   6.653
11561WAT    EPW46966   1.305   1.750   6.596
11562WAT      O46967   0.328   1.620   6.530
11562WAT     H146968   0.291   1.650   6.603
11562WAT     H246969   0.381   1.557   6.559
11562WAT    EPW46970   0.330   1.615   6.545
11563WAT      O46971   0.297   2.461   7.281
11563WAT     H146972   0.239   2.502   7.332
11563WAT     H246973   0.370   2.507   7.291
11563WAT    EPW46974   0.299   2.474   7.290
11564WAT      O46975   1.500   1.938   6.238
11564WAT     H146976   1.507   1.853   6.256
11564WAT     H246977   1.418   1.946   6.210
11564WAT    EPW46978   1.489   1.927   6.236
11565WAT      O46979   0.475   2.787   6.159
11565WAT     H146980   0.461   2.803   6.074
11565WAT     H246981   0.562   2.795   6.167
11565WAT    EPW46982   0.486   2.791   6.147
11566WAT      O46983   0.892   2.027   6.132
11566WAT     H146984   0.902   2.041   6.046
11566WAT     H246985   0.974   2.021   6.161
11566WAT    EPW46986   0.905   2.028   6.123
11567WAT      O46987   1.808   2.833   5.880
11567WAT     H146988   1.872   2.820   5.938
11567WAT     H246989   1.774   2.754   5.868
11567WAT    EPW46990   1.812   2.820   5.886
11568WAT      O46991   1.827   2.075   7.553
11568WAT     H146992   1.891   2.058   7.610
11568WAT     H246993   1.869   2.115   7.488
11568WAT    EPW46994   1.843   2.079   7.552
11569WAT      O46995   1.415   2.460   6.112
11569WAT     H146996   1.390   2.447   6.194
11569WAT     H246997   1.384   2.390   6.070
11569WAT    EPW46998   1.407   2.448   6.118
11570WAT      O46999   1.890   1.532   7.627
11570WAT     H147000   1.870   1.596   7.682
11570WAT     H247001   1.818   1.483   7.626
11570WAT    EPW47002   1.876   1.534   7.635
11571WAT      O47003   1.880   1.626   6.924
11571WAT     H147004   1.796   1.651   6.917
11571WAT     H247005   1.874   1.542   6.947
11571WAT    EPW47006   1.867   1.617   6.926
11572WAT      O47007   0.806   1.324   7.443
11572WAT     H147008   0.829   1.267   7.382
11572WAT     H247009   0.722   1.306   7.457
11572WAT    EPW47010   0.797   1.313   7.436
11573WAT      O47011   1.568   2.086   7.688
11573WAT     H147012   1.656   2.083   7.685
11573WAT     H247013   1.547   2.128   7.615
11573WAT    EPW47014   1.578   2.092   7.677
11574WAT      O47015   0.544   2.669   6.806
11574WAT     H147016   0.536   2.588   6.775
11574WAT     H247017   0.499   2.717   6.749
11574WAT    EPW47018   0.536   2.664   6.793
11575WAT      O47019   1.104   2.281   6.055
11575WAT     H147020   1.176   2.246   6.019
11575WAT     H247021   1.101   2.361   6.020
11575WAT    EPW47022   1.114   2.287   6.044
11576WAT      O47023   0.301   2.893   7.165
11576WAT     H147024   0.350   2.888   7.236
11576WAT     H247025   0.320   2.820   7.121
11576WAT    EPW47026   0.311   2.881   7.169
11577WAT      O47027   1.245   1.145   4.479
11577WAT     H147028   1.220   1.194   4.411
11577WAT     H247029   1.331   1.137   4.469
11577WAT    EPW47030   1.254   1.151   4.467
11578WAT      O47031   1.226   1.836   4.946
11578WAT     H147032   1.173   1.896   4.982
11578WAT     H247033   1.265   1.800   5.014
11578WAT    EPW47034   1.224   1.840   4.961
11579WAT      O47035   1.840   2.580   4.243
11579WAT     H147036   1.910   2.529   4.242
11579WAT     H247037   1.781   2.536   4.196
11579WAT    EPW47038   1.842   2.566   4.236
11580WAT      O47039   0.501   2.156   4.009
11580WAT     H147040   0.462   2.119   3.941
11580WAT     H247041   0.493   2.096   4.072
11580WAT    EPW47042   0.494   2.142   4.008
11581WAT      O47043   1.493   1.943   4.613
11581WAT     H147044   1.501   1.943   4.526
11581WAT     H247045   1.434   1.880   4.628
11581WAT    EPW47046   1.485   1.934   4.603
11582WAT      O47047   0.464   2.320   4.399
11582WAT     H147048   0.524   2.303   4.460
11582WAT     H247049   0.388   2.306   4.441
11582WAT    EPW47050   0.461   2.315   4.414
11583WAT      O47051   0.892   1.253   4.394
11583WAT     H147052   0.885   1.321   4.340
11583WAT     H247053   0.966   1.215   4.369
11583WAT    EPW47054   0.902   1.258   4.382
11584WAT      O47055   0.353   2.629   4.007
11584WAT     H147056   0.399   2.637   3.934
11584WAT     H247057   0.398   2.571   4.054
11584WAT    EPW47058   0.366   2.622   4.003
11585WAT      O47059   0.864   2.276   5.624
11585WAT     H147060   0.840   2.276   5.708
11585WAT     H247061   0.789   2.262   5.581
11585WAT    EPW47062   0.849   2.274   5.630
11586WAT      O47063   0.351   1.976   4.537
11586WAT     H147064   0.305   1.937   4.474
11586WAT     H247065   0.421   1.925   4.546
11586WAT    EPW47066   0.355   1.963   4.529
11587WAT      O47067   0.802   1.537   5.072
11587WAT     H147068   0.870   1.539   5.017
11587WAT     H247069   0.798   1.453   5.096
11587WAT    EPW47070   0.811   1.525   5.067
11588WAT      O47071   0.862   2.596   5.350
11588WAT     H147072   0.876   2.672   5.309
11588WAT     H247073   0.941   2.559   5.353
11588WAT    EPW47074   0.876   2.601   5.344
11589WAT      O47075   0.551   1.786   4.539
11589WAT     H147076   0.633   1.767   4.564
11589WAT     H247077   0.504   1.725   4.579
11589WAT    EPW47078   0.556   1.774   4.549
11590WAT      O47079   0.972   2.384   4.800
11590WAT     H147080   1.007   2.304   4.803
11590WAT     H247081   1.038   2.434   4.775
11590WAT    EPW47082   0.987   2.380   4.797
11591WAT      O47083   0.977   2.329   4.421
11591WAT     H147084   1.011   2.265   4.470
11591WAT     H247085   1.001   2.308   4.340
11591WAT    EPW47086   0.986   2.316   4.417
11592WAT      O47087   1.174   1.742   5.555
11592WAT     H147088   1.089   1.732   5.538
11592WAT     H247089   1.177   1.817   5.601
11592WAT    EPW47090   1.162   1.752   5.559
11593WAT      O47091   0.611   1.295   4.466
11593WAT     H147092   0.581   1.345   4.401
11593WAT     H247093   0.698   1.303   4.460
11593WAT    EPW47094   0.619   1.304   4.456
11594WAT      O47095   1.630   1.038   5.467
11594WAT     H147096   1.614   1.115   5.429
11594WAT     H247097   1.553   1.016   5.501
11594WAT    EPW47098   1.616   1.046   5.466
11595WAT      O47099   0.909   1.210   4.688
11595WAT     H147100   0.916   1.296   4.701
11595WAT     H247101   0.905   1.202   4.601
11595WAT    EPW47102   0.909   1.221   4.677
11596WAT      O47103   1.376   1.502   3.918
11596WAT     H147104   1.331   1.570   3.949
11596WAT     H247105   1.388   1.452   3.988
11596WAT    EPW47106   1.371   1.505   3.933
11597WAT      O47107   0.772   2.507   4.376
11597WAT     H147108   0.714   2.480   4.436
11597WAT     H247109   0.834   2.447   4.379
11597WAT    EPW47110   0.773   2.494   4.385
11598WAT      O47111   1.386   2.736   4.129
11598WAT     H147112   1.459   2.783   4.139
11598WAT     H247113   1.409   2.657   4.157
11598WAT    EPW47114   1.400   2.732   4.134
11599WAT      O47115   1.203   2.775   4.328
11599WAT     H147116   1.224   2.828   4.394
11599WAT     H247117   1.280   2.758   4.290
11599WAT    EPW47118   1.217   2.781   4.332
11600WAT      O47119   0.500   1.234   4.887
11600WAT     H147120   0.448   1.171   4.857
11600WAT     H247121   0.559   1.190   4.935
11600WAT    EPW47122   0.501   1.218   4.890
11601WAT      O47123   0.830   1.447   5.817
11601WAT     H147124   0.842   1.402   5.744
11601WAT     H247125   0.859   1.527   5.797
11601WAT    EPW47126   0.836   1.452   5.803
11602WAT      O47127   0.342   2.590   4.421
11602WAT     H147128   0.408   2.533   4.423
11602WAT     H247129   0.381   2.665   4.399
11602WAT    EPW47130   0.358   2.593   4.418
11603WAT      O47131   1.916   1.499   4.548
11603WAT     H147132   1.881   1.567   4.590
11603WAT     H247133   1.852   1.440   4.549
11603WAT    EPW47134   1.901   1.501   4.554
11604WAT      O47135   1.447   2.776   5.158
11604WAT     H147136   1.521   2.822   5.157
11604WAT     H247137   1.435   2.755   5.074
11604WAT    EPW47138   1.456   2.780   5.146
11605WAT      O47139   0.404   1.407   5.716
11605WAT     H147140   0.326   1.368   5.708
11605WAT     H247141   0.453   1.366   5.657
11605WAT    EPW47142   0.399   1.395   5.706
11606WAT      O47143   0.424   2.439   4.771
11606WAT     H147144   0.466   2.403   4.704
11606WAT     H247145   0.457   2.397   4.841
11606WAT    EPW47146   0.435   2.427   4.772
11607WAT      O47147   0.747   2.724   4.701
11607WAT     H147148   0.832   2.734   4.682
11607WAT     H247149   0.718   2.806   4.708
11607WAT    EPW47150   0.755   2.738   4.699
11608WAT      O47151   1.069   1.171   5.632
11608WAT     H147152   1.086   1.090   5.605
11608WAT     H247153   1.054   1.215   5.559
11608WAT    EPW47154   1.069   1.166   5.617
11609WAT      O47155   1.128   1.664   4.510
11609WAT     H147156   1.157   1.640   4.431
11609WAT     H247157   1.201   1.672   4.557
11609WAT    EPW47158   1.143   1.661   4.505
11610WAT      O47159   1.200   1.698   4.022
11610WAT     H147160   1.228   1.776   4.047
11610WAT     H247161   1.123   1.714   3.986
11610WAT    EPW47162   1.193   1.712   4.020
11611WAT      O47163   1.604   2.895   4.169
11611WAT     H147164   1.671   2.880   4.114
11611WAT     H247165   1.640   2.887   4.248
11611WAT    EPW47166   1.619   2.892   4.172
11612WAT      O47167   0.647   2.846   5.275
11612WAT     H147168   0.676   2.839   5.357
11612WAT     H247169   0.584   2.785   5.271
11612WAT    EPW47170   0.642   2.836   5.287
11613WAT      O47171   1.883   1.332   5.085
11613WAT     H147172   1.959   1.339   5.042
11613WAT     H247173   1.889   1.254   5.124
11613WAT    EPW47174   1.895   1.321   5.084
11614WAT      O47175   1.372   2.495   5.528
11614WAT     H147176   1.369   2.533   5.607
11614WAT     H247177   1.458   2.491   5.511
11614WAT    EPW47178   1.384   2.500   5.538
11615WAT      O47179   1.086   2.515   4.003
11615WAT     H147180   1.068   2.569   4.069
11615WAT     H247181   1.163   2.544   3.973
11615WAT    EPW47182   1.095   2.527   4.009
11616WAT      O47183   1.437   1.304   4.109
11616WAT     H147184   1.491   1.236   4.116
11616WAT     H247185   1.443   1.344   4.186
11616WAT    EPW47186   1.446   1.300   4.121
11617WAT      O47187   0.232   1.421   4.366
11617WAT     H147188   0.221   1.335   4.369
11617WAT     H247189   0.185   1.450   4.433
11617WAT    EPW47190   0.223   1.413   4.376
11618WAT      O47191   0.446   2.662   5.187
11618WAT     H147192   0.377   2.611   5.200
11618WAT     H247193   0.472   2.642   5.106
11618WAT    EPW47194   0.440   2.652   5.177
11619WAT      O47195   1.163   1.542   4.240
11619WAT     H147196   1.112   1.476   4.215
11619WAT     H247197   1.168   1.592   4.169
11619WAT    EPW47198   1.156   1.540   4.226
11620WAT      O47199   1.217   2.811   5.278
11620WAT     H147200   1.294   2.803   5.238
11620WAT     H247201   1.159   2.799   5.214
11620WAT    EPW47202   1.220   2.808   5.263
11621WAT      O47203   1.163   1.236   4.229
11621WAT     H147204   1.117   1.196   4.167
11621WAT     H247205   1.240   1.251   4.192
11621WAT    EPW47206   1.167   1.232   4.215
11622WAT      O47207   1.845   2.872   4.568
11622WAT     H147208   1.800   2.943   4.588
11622WAT     H247209   1.784   2.815   4.544
11622WAT    EPW47210   1.829   2.874   4.568
11623WAT      O47211   1.022   1.473   4.682
11623WAT     H147212   1.030   1.529   4.616
11623WAT     H247213   1.034   1.522   4.753
11623WAT    EPW47214   1.025   1.488   4.682
11624WAT      O47215   1.545   2.456   4.523
11624WAT     H147216   1.615   2.408   4.542
11624WAT     H247217   1.479   2.399   4.527
11624WAT    EPW47218   1.545   2.441   4.526
11625WAT      O47219   0.582   2.547   5.444
11625WAT     H147220   0.667   2.553   5.422
11625WAT     H247221   0.579   2.587   5.522
11625WAT    EPW47222   0.594   2.554   5.452
11626WAT      O47223   0.483   1.055   4.516
11626WAT     H147224   0.537   1.124   4.515
11626WAT     H247225   0.483   1.028   4.434
11626WAT    EPW47226   0.491   1.061   4.504
11627WAT      O47227   0.779   2.098   4.919
11627WAT     H147228   0.796   2.077   5.002
11627WAT     H247229   0.713   2.045   4.897
11627WAT    EPW47230   0.772   2.087   4.928
11628WAT      O47231   1.402   1.490   5.270
11628WAT     H147232   1.392   1.522   5.351
11628WAT     H247233   1.342   1.426   5.267
11628WAT    EPW47234   1.391   1.485   5.282
11629WAT      O47235   0.854   2.092   5.178
11629WAT     H147236   0.859   2.177   5.198
11629WAT     H247237   0.825   2.055   5.252
11629WAT    EPW47238   0.850   2.099   5.192
11630WAT      O47239   1.471   2.162   5.091
11630WAT     H147240   1.420   2.120   5.148
11630WAT     H247241   1.459   2.246   5.109
11630WAT    EPW47242   1.462   2.168   5.102
11631WAT      O47243   1.527   1.084   4.554
11631WAT     H147244   1.532   1.052   4.635
11631WAT     H247245   1.559   1.020   4.505
11631WAT    EPW47246   1.533   1.070   4.559
11632WAT      O47247   1.774   1.508   5.385
11632WAT     H147248   1.851   1.485   5.418
11632WAT     H247249   1.726   1.529   5.455
11632WAT    EPW47250   1.778   1.508   5.400
11633WAT      O47251   0.528   1.436   4.682
11633WAT     H147252   0.555   1.393   4.611
11633WAT     H247253   0.510   1.372   4.739
11633WAT    EPW47254   0.529   1.420   4.680
11634WAT      O47255   1.797   2.205   4.104
11634WAT     H147256   1.809   2.177   4.185
11634WAT     H247257   1.877   2.208   4.071
11634WAT    EPW47258   1.810   2.202   4.111
11635WAT      O47259   0.510   2.179   4.637
11635WAT     H147260   0.595   2.171   4.619
11635WAT     H247261   0.475   2.110   4.595
11635WAT    EPW47262   0.518   2.167   4.628
11636WAT      O47263   0.387   2.851   4.760
11636WAT     H147264   0.320   2.801   4.736
11636WAT     H247265   0.427   2.870   4.685
11636WAT    EPW47266   0.383   2.847   4.746
11637WAT      O47267   0.342   1.546   4.990
11637WAT     H147268   0.426   1.568   4.986
11637WAT     H247269   0.303   1.603   4.937
11637WAT    EPW47270   0.349   1.558   4.981
11638WAT      O47271   2.020   2.656   5.529
11638WAT     H147272   1.952   2.687   5.484
11638WAT     H247273   1.983   2.611   5.593
11638WAT    EPW47274   2.005   2.654   5.532
11639WAT      O47275   1.586   1.859   4.062
11639WAT     H147276   1.564   1.932   4.020
11639WAT     H247277   1.541   1.864   4.137
11639WAT    EPW47278   1.576   1.871   4.067
11640WAT      O47279   0.747   2.179   4.460
11640WAT     H147280   0.818   2.229   4.469
11640WAT     H247281   0.769   2.123   4.398
11640WAT    EPW47282   0.761   2.178   4.452
11641WAT      O47283   2.005   1.345   4.007
11641WAT     H147284   1.939   1.288   4.010
11641WAT     H247285   1.986   1.396   3.939
11641WAT    EPW47286   1.992   1.344   3.998
11642WAT      O47287   0.927   1.715   5.802
11642WAT     H147288   0.879   1.772   5.846
11642WAT     H247289   0.925   1.744   5.720
11642WAT    EPW47290   0.920   1.728   5.796
11643WAT      O47291   2.037   1.783   5.263
11643WAT     H147292   2.059   1.703   5.235
11643WAT     H247293   1.952   1.789   5.244
11643WAT    EPW47294   2.028   1.772   5.256
11644WAT      O47295   1.805   1.301   4.235
11644WAT     H147296   1.880   1.260   4.255
11644WAT     H247297   1.831   1.373   4.193
11644WAT    EPW47298   1.820   1.306   4.232
11645WAT      O47299   1.199   2.550   4.693
11645WAT     H147300   1.147   2.613   4.664
11645WAT     H247301   1.230   2.513   4.620
11645WAT    EPW47302   1.196   2.554   4.678
11646WAT      O47303   0.607   2.328   4.969
11646WAT     H147304   0.654   2.357   5.037
11646WAT     H247305   0.664   2.281   4.923
11646WAT    EPW47306   0.622   2.326   4.972
11647WAT      O47307   1.451   1.530   4.743
11647WAT     H147308   1.485   1.545   4.821
11647WAT     H247309   1.405   1.456   4.754
11647WAT    EPW47310   1.449   1.521   4.756
11648WAT      O47311   0.264   2.095   4.823
11648WAT     H147312   0.307   2.083   4.749
11648WAT     H247313   0.243   2.180   4.821
11648WAT    EPW47314   0.267   2.106   4.812
11649WAT      O47315   0.898   1.452   4.188
11649WAT     H147316   0.898   1.440   4.102
11649WAT     H247317   0.880   1.537   4.197
11649WAT    EPW47318   0.895   1.463   4.177
11650WAT      O47319   1.804   2.695   5.338
11650WAT     H147320   1.736   2.746   5.360
11650WAT     H247321   1.810   2.705   5.252
11650WAT    EPW47322   1.795   2.704   5.328
11651WAT      O47323   0.672   2.447   4.651
11651WAT     H147324   0.685   2.531   4.670
11651WAT     H247325   0.739   2.407   4.691
11651WAT    EPW47326   0.684   2.454   4.660
11652WAT      O47327   0.485   1.795   5.638
11652WAT     H147328   0.431   1.745   5.684
11652WAT     H247329   0.487   1.756   5.560
11652WAT    EPW47330   0.477   1.782   5.633
11653WAT      O47331   0.533   1.735   4.152
11653WAT     H147332   0.521   1.690   4.225
11653WAT     H247333   0.475   1.701   4.096
11653WAT    EPW47334   0.523   1.723   4.154
11654WAT      O47335   0.550   1.918   4.812
11654WAT     H147336   0.472   1.912   4.773
11654WAT     H247337   0.557   1.843   4.855
11654WAT    EPW47338   0.540   1.906   4.812
11655WAT      O47339   0.593   1.892   5.158
11655WAT     H147340   0.596   1.824   5.103
11655WAT     H247341   0.529   1.941   5.127
11655WAT    EPW47342   0.584   1.889   5.146
11656WAT      O47343   1.583   1.663   4.998
11656WAT     H147344   1.516   1.696   5.044
11656WAT     H247345   1.601   1.726   4.941
11656WAT    EPW47346   1.576   1.677   4.996
11657WAT      O47347   1.003   2.769   5.098
11657WAT     H147348   0.975   2.705   5.045
11657WAT     H247349   0.982   2.842   5.054
11657WAT    EPW47350   0.996   2.771   5.083
11658WAT      O47351   1.247   1.254   5.341
11658WAT     H147352   1.262   1.171   5.317
11658WAT     H247353   1.285   1.259   5.419
11658WAT    EPW47354   1.255   1.242   5.349
11659WAT      O47355   1.402   1.460   4.349
11659WAT     H147356   1.451   1.532   4.341
11659WAT     H247357   1.323   1.486   4.323
11659WAT    EPW47358   1.398   1.474   4.344
11660WAT      O47359   0.373   2.027   5.714
11660WAT     H147360   0.369   2.077   5.643
11660WAT     H247361   0.406   1.952   5.685
11660WAT    EPW47362   0.377   2.023   5.699
11661WAT      O47363   1.533   2.248   5.540
11661WAT     H147364   1.582   2.320   5.550
11661WAT     H247365   1.573   2.205   5.475
11661WAT    EPW47366   1.546   2.252   5.532
11662WAT      O47367   0.963   2.532   5.658
11662WAT     H147368   0.998   2.514   5.735
11662WAT     H247369   0.919   2.459   5.638
11662WAT    EPW47370   0.962   2.519   5.666
11663WAT      O47371   1.060   1.607   4.922
11663WAT     H147372   1.108   1.677   4.942
11663WAT     H247373   1.097   1.542   4.967
11663WAT    EPW47374   1.073   1.608   4.931
11664WAT      O47375   1.279   1.924   4.149
11664WAT     H147376   1.278   1.996   4.100
11664WAT     H247377   1.215   1.937   4.207
11664WAT    EPW47378   1.270   1.937   4.150
11665WAT      O47379   1.776   2.311   4.547
11665WAT     H147380   1.812   2.276   4.619
11665WAT     H247381   1.775   2.245   4.490
11665WAT    EPW47382   1.781   2.296   4.549
11666WAT      O47383   1.381   2.617   4.931
11666WAT     H147384   1.320   2.588   4.876
11666WAT     H247385   1.435   2.663   4.881
11666WAT    EPW47386   1.380   2.620   4.916
11667WAT      O47387   1.382   2.303   4.871
11667WAT     H147388   1.302   2.325   4.899
11667WAT     H247389   1.408   2.243   4.930
11667WAT    EPW47390   1.374   2.297   4.884
11668WAT      O47391   0.771   2.784   4.316
11668WAT     H147392   0.757   2.706   4.353
11668WAT     H247393   0.840   2.769   4.265
11668WAT    EPW47394   0.779   2.770   4.314
11669WAT      O47395   0.738   1.158   4.115
11669WAT     H147396   0.748   1.147   4.201
11669WAT     H247397   0.668   1.209   4.109
11669WAT    EPW47398   0.729   1.164   4.127
11670WAT      O47399   1.000   2.735   4.156
11670WAT     H147400   1.063   2.752   4.215
11670WAT     H247401   1.004   2.804   4.103
11670WAT    EPW47402   1.010   2.748   4.157
11671WAT      O47403   1.708   2.102   5.356
11671WAT     H147404   1.714   2.115   5.270
11671WAT     H247405   1.783   2.134   5.386
11671WAT    EPW47406   1.720   2.109   5.348
11672WAT      O47407   1.327   2.637   5.784
11672WAT     H147408   1.344   2.666   5.865
11672WAT     H247409   1.353   2.703   5.733
11672WAT    EPW47410   1.333   2.651   5.788
11673WAT      O47411   1.811   1.132   5.655
11673WAT     H147412   1.748   1.092   5.611
11673WAT     H247413   1.814   1.089   5.731
11673WAT    EPW47414   1.802   1.120   5.659
11674WAT      O47415   0.451   1.989   4.239
11674WAT     H147416   0.483   1.911   4.217
11674WAT     H247417   0.515   2.026   4.285
11674WAT    EPW47418   0.465   1.983   4.243
11675WAT      O47419   1.281   2.083   5.316
11675WAT     H147420   1.266   2.144   5.376
11675WAT     H247421   1.335   2.027   5.357
11675WAT    EPW47422   1.287   2.084   5.331
11676WAT      O47423   1.120   1.923   4.382
11676WAT     H147424   1.125   1.988   4.440
11676WAT     H247425   1.101   1.853   4.431
11676WAT    EPW47426   1.118   1.922   4.398
11677WAT      O47427   1.642   2.356   4.969
11677WAT     H147428   1.594   2.386   4.902
11677WAT     H247429   1.607   2.278   4.987
11677WAT    EPW47430   1.630   2.349   4.962
11678WAT      O47431   0.569   1.375   4.033
11678WAT     H147432   0.518   1.380   3.962
11678WAT     H247433   0.648   1.399   4.003
11678WAT    EPW47434   0.573   1.379   4.018
11679WAT      O47435   1.042   2.128   4.825
11679WAT     H147436   0.957   2.108   4.833
11679WAT     H247437   1.074   2.111   4.904
11679WAT    EPW47438   1.034   2.122   4.838
11680WAT      O47439   0.717   2.801   3.914
11680WAT     H147440   0.761   2.731   3.942
11680WAT     H247441   0.738   2.863   3.971
11680WAT    EPW47442   0.727   2.800   3.926
11681WAT      O47443   0.427   2.097   5.057
11681WAT     H147444   0.499   2.146   5.053
11681WAT     H247445   0.400   2.094   4.974
11681WAT    EPW47446   0.433   2.104   5.044
11682WAT      O47447   0.750   1.614   4.730
11682WAT     H147448   0.834   1.595   4.740
11682WAT     H247449   0.713   1.536   4.716
11682WAT    EPW47450   0.757   1.600   4.729
11683WAT      O47451   2.011   2.772   4.163
11683WAT     H147452   2.081   2.726   4.138
11683WAT     H247453   1.957   2.713   4.196
11683WAT    EPW47454   2.014   2.757   4.164
11684WAT      O47455   0.232   1.748   4.396
11684WAT     H147456   0.281   1.719   4.462
11684WAT     H247457   0.245   1.689   4.333
11684WAT    EPW47458   0.241   1.735   4.396
11685WAT      O47459   1.735   2.050   5.081
11685WAT     H147460   1.735   1.972   5.120
11685WAT     H247461   1.651   2.073   5.080
11685WAT    EPW47462   1.723   2.042   5.086
11686WAT      O47463   0.684   1.891   3.944
11686WAT     H147464   0.623   1.851   3.992
11686WAT     H247465   0.646   1.903   3.867
11686WAT    EPW47466   0.670   1.887   3.940
11687WAT      O47467   0.366   2.202   5.484
11687WAT     H147468   0.324   2.150   5.428
11687WAT     H247469   0.331   2.281   5.470
11687WAT    EPW47470   0.355   2.206   5.474
11688WAT      O47471   1.861   2.057   4.824
11688WAT     H147472   1.832   2.097   4.896
11688WAT     H247473   1.947   2.051   4.837
11688WAT    EPW47474   1.869   2.062   4.837
11689WAT      O47475   0.830   1.737   4.215
11689WAT     H147476   0.857   1.820   4.222
11689WAT     H247477   0.743   1.745   4.206
11689WAT    EPW47478   0.821   1.751   4.215
11690WAT      O47479   1.627   1.450   5.678
11690WAT     H147480   1.575   1.495   5.731
11690WAT     H247481   1.591   1.370   5.678
11690WAT    EPW47482   1.614   1.445   5.686
11691WAT      O47483   0.178   1.334   4.869
11691WAT     H147484   0.182   1.369   4.789
11691WAT     H247485   0.253   1.358   4.905
11691WAT    EPW47486   0.190   1.343   4.862
11692WAT      O47487   1.974   2.620   4.877
11692WAT     H147488   2.003   2.646   4.799
11692WAT     H247489   2.043   2.630   4.929
11692WAT    EPW47490   1.989   2.626   4.873
11693WAT      O47491   1.476   1.806   5.686
11693WAT     H147492   1.484   1.817   5.772
11693WAT     H247493   1.413   1.862   5.664
11693WAT    EPW47494   1.468   1.816   5.695
11694WAT      O47495   1.703   1.838   5.522
11694WAT     H147496   1.735   1.917   5.543
11694WAT     H247497   1.666   1.811   5.597
11694WAT    EPW47498   1.702   1.846   5.536
11695WAT      O47499   1.634   2.481   4.075
11695WAT     H147500   1.668   2.400   4.079
11695WAT     H247501   1.559   2.474   4.118
11695WAT    EPW47502   1.628   2.468   4.082
11696WAT      O47503   1.683   1.664   4.641
11696WAT     H147504   1.608   1.632   4.673
11696WAT     H247505   1.683   1.747   4.669
11696WAT    EPW47506   1.672   1.672   4.650
11697WAT      O47507   1.973   1.893   5.796
11697WAT     H147508   1.968   1.858   5.716
11697WAT     H247509   2.047   1.939   5.794
11697WAT    EPW47510   1.983   1.894   5.784
11698WAT      O47511   1.927   2.260   5.417
11698WAT     H147512   1.989   2.205   5.391
11698WAT     H247513   1.921   2.317   5.350
11698WAT    EPW47514   1.935   2.260   5.403
11699WAT      O47515   1.372   2.268   4.016
11699WAT     H147516   1.440   2.217   3.999
11699WAT     H247517   1.330   2.273   3.939
11699WAT    EPW47518   1.376   2.261   4.002
11700WAT      O47519   0.840   2.383   5.146
11700WAT     H147520   0.810   2.442   5.203
11700WAT     H247521   0.846   2.427   5.071
11700WAT    EPW47522   0.836   2.399   5.143
11701WAT      O47523   0.638   2.278   5.486
11701WAT     H147524   0.557   2.249   5.503
11701WAT     H247525   0.629   2.365   5.487
11701WAT    EPW47526   0.625   2.287   5.488
11702WAT      O47527   1.574   1.297   5.387
11702WAT     H147528   1.648   1.342   5.381
11702WAT     H247529   1.517   1.344   5.341
11702WAT    EPW47530   1.577   1.311   5.380
11703WAT      O47531   1.092   2.026   5.095
11703WAT     H147532   1.139   2.063   5.158
11703WAT     H247533   1.009   2.039   5.121
11703WAT    EPW47534   1.087   2.033   5.108
11704WAT      O47535   0.763   1.586   5.369
11704WAT     H147536   0.779   1.511   5.412
11704WAT     H247537   0.758   1.561   5.286
11704WAT    EPW47538   0.764   1.571   5.363
11705WAT      O47539   1.018   2.765   4.618
11705WAT     H147540   1.073   2.833   4.623
11705WAT     H247541   0.983   2.773   4.539
11705WAT    EPW47542   1.021   2.776   4.607
11706WAT      O47543   1.702   1.095   5.154
11706WAT     H147544   1.674   1.178   5.150
11706WAT     H247545   1.774   1.100   5.204
11706WAT    EPW47546   1.709   1.108   5.161
11707WAT      O47547   0.938   1.167   5.357
11707WAT     H147548   1.008   1.199   5.317
11707WAT     H247549   0.962   1.086   5.380
11707WAT    EPW47550   0.952   1.159   5.355
11708WAT      O47551   0.836   2.588   4.957
11708WAT     H147552   0.774   2.646   4.939
11708WAT     H247553   0.861   2.559   4.878
11708WAT    EPW47554   0.831   2.592   4.943
11709WAT      O47555   1.267   2.251   5.656
11709WAT     H147556   1.343   2.280   5.623
11709WAT     H247557   1.213   2.256   5.588
11709WAT    EPW47558   1.270   2.256   5.641
11710WAT      O47559   1.658   2.506   5.506
11710WAT     H147560   1.693   2.533   5.582
11710WAT     H247561   1.688   2.564   5.448
11710WAT    EPW47562   1.668   2.519   5.509
11711WAT      O47563   1.844   1.721   4.040
11711WAT     H147564   1.882   1.788   4.000
11711WAT     H247565   1.760   1.743   4.043
11711WAT    EPW47566   1.838   1.734   4.035
11712WAT      O47567   0.996   2.065   3.948
11712WAT     H147568   0.915   2.048   3.920
11712WAT     H247569   0.992   2.150   3.968
11712WAT    EPW47570   0.983   2.075   3.947
11713WAT      O47571   0.589   1.672   4.963
11713WAT     H147572   0.633   1.662   4.889
11713WAT     H247573   0.643   1.641   5.024
11713WAT    EPW47574   0.603   1.666   4.961
11714WAT      O47575   1.390   1.582   5.523
11714WAT     H147576   1.326   1.629   5.557
11714WAT     H247577   1.447   1.573   5.589
11714WAT    EPW47578   1.389   1.588   5.538
11715WAT      O47579   1.359   1.736   5.152
11715WAT     H147580   1.389   1.778   5.223
11715WAT     H247581   1.363   1.652   5.176
11715WAT    EPW47582   1.364   1.730   5.166
11716WAT      O47583   1.102   2.753   5.545
11716WAT     H147584   1.149   2.693   5.503
11716WAT     H247585   1.067   2.708   5.611
11716WAT    EPW47586   1.104   2.737   5.549
11717WAT      O47587   1.614   1.681   4.378
11717WAT     H147588   1.635   1.660   4.460
11717WAT     H247589   1.690   1.707   4.343
11717WAT    EPW47590   1.628   1.682   4.385
11718WAT      O47591   0.943   1.170   4.968
11718WAT     H147592   0.861   1.156   4.992
11718WAT     H247593   0.939   1.174   4.881
11718WAT    EPW47594   0.931   1.169   4.959
11719WAT      O47595   1.716   1.289   4.525
11719WAT     H147596   1.645   1.242   4.542
11719WAT     H247597   1.700   1.323   4.446
11719WAT    EPW47598   1.703   1.287   4.516
11720WAT      O47599   1.760   2.083   4.363
11720WAT     H147600   1.808   2.010   4.358
11720WAT     H247601   1.678   2.055   4.355
11720WAT    EPW47602   1.755   2.068   4.361
11721WAT      O47603   1.108   2.274   5.447
11721WAT     H147604   1.028   2.268   5.482
11721WAT     H247605   1.115   2.359   5.427
11721WAT    EPW47606   1.097   2.286   5.449
11722WAT      O47607   0.691   2.895   4.979
11722WAT     H147608   0.692   2.901   5.066
11722WAT     H247609   0.648   2.820   4.964
11722WAT    EPW47610   0.684   2.885   4.989
11723WAT      O47611   0.506   1.485   4.294
11723WAT     H147612   0.519   1.452   4.214
11723WAT     H247613   0.425   1.460   4.314
11723WAT    EPW47614   0.496   1.476   4.285
11724WAT      O47615   1.382   2.200   4.599
11724WAT     H147616   1.390   2.234   4.678
11724WAT     H247617   1.399   2.115   4.611
11724WAT    EPW47618   1.386   2.192   4.612
11725WAT      O47619   1.134   2.127   4.555
11725WAT     H147620   1.104   2.096   4.631
11725WAT     H247621   1.204   2.175   4.579
11725WAT    EPW47622   1.140   2.130   4.570
11726WAT      O47623   1.156   2.539   5.358
11726WAT     H147624   1.225   2.528   5.410
11726WAT     H247625   1.170   2.618   5.323
11726WAT    EPW47626   1.169   2.549   5.360
11727WAT      O47627   1.974   1.800   5.539
11727WAT     H147628   1.889   1.788   5.551
11727WAT     H247629   1.989   1.761   5.463
11727WAT    EPW47630   1.964   1.792   5.529
11728WAT      O47631   1.425   1.867   5.396
11728WAT     H147632   1.400   1.795   5.439
11728WAT     H247633   1.507   1.878   5.423
11728WAT    EPW47634   1.434   1.858   5.407
11729WAT      O47635   0.367   2.845   5.523
11729WAT     H147636   0.302   2.788   5.533
11729WAT     H247637   0.329   2.922   5.538
11729WAT    EPW47638   0.352   2.848   5.527
11730WAT      O47639   1.219   1.986   5.715
11730WAT     H147640   1.251   2.054   5.672
11730WAT     H247641   1.148   2.018   5.755
11730WAT    EPW47642   1.213   2.000   5.715
11731WAT      O47643   1.527   2.823   4.808
11731WAT     H147644   1.482   2.887   4.846
11731WAT     H247645   1.598   2.815   4.859
11731WAT    EPW47646   1.531   2.831   4.821
11732WAT      O47647   1.197   2.332   5.101
11732WAT     H147648   1.128   2.372   5.135
11732WAT     H247649   1.265   2.375   5.135
11732WAT    EPW47650   1.197   2.344   5.111
11733WAT      O47651   1.735   2.591   5.759
11733WAT     H147652   1.813   2.552   5.767
11733WAT     H247653   1.688   2.558   5.825
11733WAT    EPW47654   1.739   2.581   5.770
11734WAT      O47655   0.504   1.686   5.336
11734WAT     H147656   0.542   1.748   5.287
11734WAT     H247657   0.571   1.638   5.364
11734WAT    EPW47658   0.520   1.688   5.333
11735WAT      O47659   0.282   1.531   5.263
11735WAT     H147660   0.289   1.514   5.178
11735WAT     H247661   0.356   1.571   5.283
11735WAT    EPW47662   0.294   1.534   5.254
11736WAT      O47663   1.837   1.795   4.307
11736WAT     H147664   1.848   1.789   4.221
11736WAT     H247665   1.912   1.761   4.339
11736WAT    EPW47666   1.850   1.789   4.299
11737WAT      O47667   0.537   1.272   5.504
11737WAT     H147668   0.529   1.187   5.525
11737WAT     H247669   0.506   1.276   5.423
11737WAT    EPW47670   0.531   1.260   5.495
11738WAT      O47671   1.229   2.491   4.418
11738WAT     H147672   1.209   2.574   4.402
11738WAT     H247673   1.152   2.453   4.430
11738WAT    EPW47674   1.215   2.498   4.417
11739WAT      O47675   1.748   1.809   5.243
11739WAT     H147676   1.747   1.723   5.255
11739WAT     H247677   1.754   1.842   5.324
11739WAT    EPW47678   1.749   1.801   5.257
11740WAT      O47679   0.221   2.053   5.286
11740WAT     H147680   0.253   2.075   5.208
11740WAT     H247681   0.211   1.967   5.280
11740WAT    EPW47682   0.224   2.044   5.273
11741WAT      O47683   0.367   1.647   3.947
11741WAT     H147684   0.300   1.648   4.003
11741WAT     H247685   0.376   1.562   3.929
11741WAT    EPW47686   0.358   1.634   3.953
11742WAT      O47687   1.336   1.289   5.621
11742WAT     H147688   1.345   1.360   5.670
11742WAT     H247689   1.272   1.245   5.661
11742WAT    EPW47690   1.327   1.293   5.634
11743WAT      O47691   1.235   1.308   4.706
11743WAT     H147692   1.165   1.360   4.701
11743WAT     H247693   1.239   1.270   4.628
11743WAT    EPW47694   1.225   1.310   4.694
11744WAT      O47695   0.766   2.517   4.059
11744WAT     H147696   0.810   2.525   4.134
11744WAT     H247697   0.685   2.496   4.085
11744WAT    EPW47698   0.760   2.515   4.074
11745WAT      O47699   1.595   1.360   4.986
11745WAT     H147700   1.680   1.370   5.001
11745WAT     H247701   1.558   1.415   5.043
11745WAT    EPW47702   1.602   1.369   4.997
11746WAT      O47703   0.698   1.982   5.424
11746WAT     H147704   0.658   2.060   5.432
11746WAT     H247705   0.657   1.945   5.357
11746WAT    EPW47706   0.686   1.988   5.415
11747WAT      O47707   1.625   1.888   4.836
11747WAT     H147708   1.692   1.942   4.852
11747WAT     H247709   1.591   1.919   4.762
11747WAT    EPW47710   1.630   1.900   4.827
11748WAT      O47711   1.656   2.694   4.416
11748WAT     H147712   1.639   2.629   4.471
11748WAT     H247713   1.728   2.667   4.374
11748WAT    EPW47714   1.664   2.681   4.418
11749WAT      O47715   0.499   2.424   4.119
11749WAT     H147716   0.474   2.394   4.197
11749WAT     H247717   0.495   2.354   4.067
11749WAT    EPW47718   0.494   2.409   4.123
11750WAT      O47719   0.780   2.249   3.993
11750WAT     H147720   0.699   2.222   4.007
11750WAT     H247721   0.778   2.334   4.012
11750WAT    EPW47722   0.768   2.257   3.998
11751WAT      O47723   0.740   1.280   5.169
11751WAT     H147724   0.654   1.288   5.177
11751WAT     H247725   0.762   1.229   5.236
11751WAT    EPW47726   0.731   1.274   5.180
11752WAT      O47727   1.942   1.144   5.302
11752WAT     H147728   1.937   1.139   5.389
11752WAT     H247729   2.011   1.093   5.283
11752WAT    EPW47730   1.952   1.136   5.312
11753WAT      O47731   1.151   1.355   5.007
11753WAT     H147732   1.077   1.309   5.018
11753WAT     H247733   1.208   1.315   5.059
11753WAT    EPW47734   1.148   1.342   5.016
11754WAT      O47735   1.424   2.440   5.185
11754WAT     H147736   1.445   2.470   5.265
11754WAT     H247737   1.418   2.512   5.137
11754WAT    EPW47738   1.426   2.455   5.190
11755WAT      O47739   1.377   2.861   5.610
11755WAT     H147740   1.302   2.859   5.566
11755WAT     H247741   1.394   2.946   5.618
11755WAT    EPW47742   1.369   2.873   5.605
11756WAT      O47743   0.901   1.788   5.527
11756WAT     H147744   0.869   1.730   5.470
11756WAT     H247745   0.865   1.863   5.502
11756WAT    EPW47746   0.891   1.790   5.515
11757WAT      O47747   0.981   1.113   3.990
11757WAT     H147748   0.988   1.138   3.906
11757WAT     H247749   0.906   1.151   4.015
11757WAT    EPW47750   0.971   1.122   3.981
11758WAT      O47751   1.905   2.304   5.131
11758WAT     H147752   1.902   2.217   5.118
11758WAT     H247753   1.836   2.334   5.088
11758WAT    EPW47754   1.894   2.295   5.123
11759WAT      O47755   0.745   2.823   5.552
11759WAT     H147756   0.749   2.836   5.638
11759WAT     H247757   0.810   2.767   5.536
11759WAT    EPW47758   0.755   2.817   5.562
11760WAT      O47759   1.716   2.630   5.011
11760WAT     H147760   1.768   2.621   4.942
11760WAT     H247761   1.677   2.552   5.016
11760WAT    EPW47762   1.718   2.617   5.001
11761WAT      O47763   0.462   1.288   5.234
11761WAT     H147764   0.428   1.212   5.211
11761WAT     H247765   0.393   1.341   5.240
11761WAT    EPW47766   0.447   1.285   5.231
11762WAT      O47767   1.367   1.174   4.932
11762WAT     H147768   1.434   1.228   4.944
11762WAT     H247769   1.317   1.216   4.874
11762WAT    EPW47770   1.370   1.188   4.925
11763WAT      O47771   0.504   2.662   5.688
11763WAT     H147772   0.563   2.705   5.735
11763WAT     H247773   0.467   2.724   5.639
11763WAT    EPW47774   0.507   2.677   5.687
11764WAT      O47775   1.303   1.755   4.681
11764WAT     H147776   1.358   1.694   4.711
11764WAT     H247777   1.260   1.781   4.752
11764WAT    EPW47778   1.305   1.750   4.696
11765WAT      O47779   0.328   1.620   4.630
11765WAT     H147780   0.291   1.650   4.703
11765WAT     H247781   0.381   1.557   4.658
11765WAT    EPW47782   0.330   1.615   4.645
11766WAT      O47783   0.297   2.461   5.381
11766WAT     H147784   0.239   2.502   5.432
11766WAT     H247785   0.370   2.507   5.390
11766WAT    EPW47786   0.299   2.474   5.390
11767WAT      O47787   1.500   1.938   4.337
11767WAT     H147788   1.507   1.853   4.355
11767WAT     H247789   1.418   1.946   4.309
11767WAT    EPW47790   1.489   1.927   4.336
11768WAT      O47791   0.475   2.787   4.258
11768WAT     H147792   0.461   2.803   4.174
11768WAT     H247793   0.562   2.795   4.266
11768WAT    EPW47794   0.486   2.791   4.247
11769WAT      O47795   0.892   2.027   4.231
11769WAT     H147796   0.902   2.041   4.145
11769WAT     H247797   0.974   2.021   4.261
11769WAT    EPW47798   0.905   2.028   4.223
11770WAT      O47799   1.808   2.833   3.979
11770WAT     H147800   1.872   2.820   4.037
11770WAT     H247801   1.774   2.754   3.967
11770WAT    EPW47802   1.812   2.820   3.986
11771WAT      O47803   1.827   2.075   5.652
11771WAT     H147804   1.891   2.058   5.710
11771WAT     H247805   1.869   2.115   5.587
11771WAT    EPW47806   1.843   2.079   5.651
11772WAT      O47807   1.415   2.460   4.211
11772WAT     H147808   1.390   2.447   4.294
11772WAT     H247809   1.384   2.390   4.169
11772WAT    EPW47810   1.407   2.448   4.217
11773WAT      O47811   1.890   1.532   5.726
11773WAT     H147812   1.870   1.596   5.782
11773WAT     H247813   1.818   1.483   5.725
11773WAT    EPW47814   1.876   1.534   5.734
11774WAT      O47815   1.880   1.626   5.023
11774WAT     H147816   1.796   1.651   5.016
11774WAT     H247817   1.874   1.542   5.046
11774WAT    EPW47818   1.867   1.617   5.025
11775WAT      O47819   0.806   1.324   5.543
11775WAT     H147820   0.829   1.267   5.481
11775WAT     H247821   0.722   1.306   5.557
11775WAT    EPW47822   0.797   1.313   5.536
11776WAT      O47823   1.568   2.086   5.788
11776WAT     H147824   1.656   2.083   5.784
11776WAT     H247825   1.547   2.128   5.715
11776WAT    EPW47826   1.578   2.092   5.776
11777WAT      O47827   0.544   2.669   4.906
11777WAT     H147828   0.536   2.588   4.874
11777WAT     H247829   0.499   2.717   4.849
11777WAT    EPW47830   0.536   2.664   4.893
11778WAT      O47831   1.104   2.281   4.154
11778WAT     H147832   1.176   2.246   4.119
11778WAT     H247833   1.101   2.361   4.119
11778WAT    EPW47834   1.114   2.287   4.144
11779WAT      O47835   0.301   2.893   5.264
11779WAT     H147836   0.350   2.888   5.336
11779WAT     H247837   0.320   2.820   5.220
11779WAT    EPW47838   0.311   2.881   5.268
11780WAT      O47839   1.245   1.145   2.578
11780WAT     H147840   1.220   1.194   2.510
11780WAT     H247841   1.331   1.137   2.568
11780WAT    EPW47842   1.254   1.151   2.567
11781WAT      O47843   1.226   1.836   3.045
11781WAT     H147844   1.173   1.896   3.081
11781WAT     H247845   1.265   1.800   3.114
11781WAT    EPW47846   1.224   1.840   3.061
11782WAT      O47847   1.840   2.580   2.342
11782WAT     H147848   1.910   2.529   2.342
11782WAT     H247849   1.781   2.536   2.295
11782WAT    EPW47850   1.842   2.566   2.335
11783WAT      O47851   0.501   2.156   2.109
11783WAT     H147852   0.462   2.119   2.040
11783WAT     H247853   0.493   2.096   2.172
11783WAT    EPW47854   0.494   2.142   2.108
11784WAT      O47855   1.493   1.943   2.713
11784WAT     H147856   1.501   1.943   2.626
11784WAT     H247857   1.434   1.880   2.728
11784WAT    EPW47858   1.485   1.934   2.702
11785WAT      O47859   0.464   2.320   2.499
11785WAT     H147860   0.524   2.303   2.559
11785WAT     H247861   0.388   2.306   2.541
11785WAT    EPW47862   0.461   2.315   2.514
11786WAT      O47863   0.892   1.253   2.494
11786WAT     H147864   0.885   1.321   2.439
11786WAT     H247865   0.966   1.215   2.469
11786WAT    EPW47866   0.902   1.258   2.482
11787WAT      O47867   0.353   2.629   2.106
11787WAT     H147868   0.399   2.637   2.033
11787WAT     H247869   0.398   2.571   2.153
11787WAT    EPW47870   0.366   2.622   2.102
11788WAT      O47871   0.864   2.276   3.723
11788WAT     H147872   0.840   2.276   3.807
11788WAT     H247873   0.789   2.262   3.681
11788WAT    EPW47874   0.849   2.274   3.729
11789WAT      O47875   0.351   1.976   2.636
11789WAT     H147876   0.305   1.937   2.574
11789WAT     H247877   0.421   1.925   2.646
11789WAT    EPW47878   0.355   1.963   2.629
11790WAT      O47879   0.802   1.537   3.171
11790WAT     H147880   0.870   1.539   3.116
11790WAT     H247881   0.798   1.453   3.196
11790WAT    EPW47882   0.811   1.525   3.167
11791WAT      O47883   0.862   2.596   3.449
11791WAT     H147884   0.876   2.672   3.409
11791WAT     H247885   0.941   2.559   3.452
11791WAT    EPW47886   0.876   2.601   3.444
11792WAT      O47887   0.551   1.786   2.639
11792WAT     H147888   0.633   1.767   2.663
11792WAT     H247889   0.504   1.725   2.678
11792WAT    EPW47890   0.556   1.774   2.648
11793WAT      O47891   0.972   2.384   2.900
11793WAT     H147892   1.007   2.304   2.903
11793WAT     H247893   1.038   2.434   2.874
11793WAT    EPW47894   0.987   2.380   2.896
11794WAT      O47895   0.977   2.329   2.521
11794WAT     H147896   1.011   2.265   2.569
11794WAT     H247897   1.001   2.308   2.440
11794WAT    EPW47898   0.986   2.316   2.516
11795WAT      O47899   1.174   1.742   3.655
11795WAT     H147900   1.089   1.732   3.637
11795WAT     H247901   1.177   1.817   3.700
11795WAT    EPW47902   1.162   1.752   3.659
11796WAT      O47903   0.611   1.295   2.565
11796WAT     H147904   0.581   1.345   2.500
11796WAT     H247905   0.698   1.303   2.560
11796WAT    EPW47906   0.619   1.304   2.555
11797WAT      O47907   1.630   1.038   3.566
11797WAT     H147908   1.614   1.115   3.528
11797WAT     H247909   1.553   1.016   3.601
11797WAT    EPW47910   1.616   1.046   3.566
11798WAT      O47911   0.909   1.210   2.788
11798WAT     H147912   0.916   1.296   2.801
11798WAT     H247913   0.905   1.202   2.701
11798WAT    EPW47914   0.909   1.221   2.777
11799WAT      O47915   1.376   1.502   2.018
11799WAT     H147916   1.331   1.570   2.048
11799WAT     H247917   1.388   1.452   2.088
11799WAT    EPW47918   1.371   1.505   2.032
11800WAT      O47919   0.772   2.507   2.476
11800WAT     H147920   0.714   2.480   2.535
11800WAT     H247921   0.834   2.447   2.478
11800WAT    EPW47922   0.773   2.494   2.485
11801WAT      O47923   1.386   2.736   2.228
11801WAT     H147924   1.459   2.783   2.238
11801WAT     H247925   1.409   2.657   2.256
11801WAT    EPW47926   1.400   2.732   2.234
11802WAT      O47927   1.203   2.775   2.427
11802WAT     H147928   1.224   2.828   2.493
11802WAT     H247929   1.280   2.758   2.389
11802WAT    EPW47930   1.217   2.781   2.431
11803WAT      O47931   0.500   1.234   2.987
11803WAT     H147932   0.448   1.171   2.956
11803WAT     H247933   0.559   1.190   3.034
11803WAT    EPW47934   0.501   1.218   2.989
11804WAT      O47935   0.830   1.447   3.917
11804WAT     H147936   0.842   1.402   3.843
11804WAT     H247937   0.859   1.527   3.896
11804WAT    EPW47938   0.836   1.452   3.903
11805WAT      O47939   0.342   2.590   2.521
11805WAT     H147940   0.408   2.533   2.522
11805WAT     H247941   0.381   2.665   2.499
11805WAT    EPW47942   0.358   2.593   2.518
11806WAT      O47943   1.916   1.499   2.647
11806WAT     H147944   1.881   1.567   2.690
11806WAT     H247945   1.852   1.440   2.649
11806WAT    EPW47946   1.901   1.501   2.654
11807WAT      O47947   1.447   2.776   3.257
11807WAT     H147948   1.521   2.822   3.256
11807WAT     H247949   1.435   2.755   3.174
11807WAT    EPW47950   1.456   2.780   3.245
11808WAT      O47951   0.404   1.407   3.815
11808WAT     H147952   0.326   1.368   3.808
11808WAT     H247953   0.453   1.366   3.756
11808WAT    EPW47954   0.399   1.395   3.805
11809WAT      O47955   0.424   2.439   2.871
11809WAT     H147956   0.466   2.403   2.803
11809WAT     H247957   0.457   2.397   2.940
11809WAT    EPW47958   0.435   2.427   2.871
11810WAT      O47959   0.747   2.724   2.800
11810WAT     H147960   0.832   2.734   2.781
11810WAT     H247961   0.718   2.806   2.807
11810WAT    EPW47962   0.755   2.738   2.799
11811WAT      O47963   1.069   1.171   3.732
11811WAT     H147964   1.086   1.090   3.704
11811WAT     H247965   1.054   1.215   3.658
11811WAT    EPW47966   1.069   1.166   3.717
11812WAT      O47967   1.128   1.664   2.609
11812WAT     H147968   1.157   1.640   2.530
11812WAT     H247969   1.201   1.672   2.656
11812WAT    EPW47970   1.143   1.661   2.604
11813WAT      O47971   1.200   1.698   2.121
11813WAT     H147972   1.228   1.776   2.146
11813WAT     H247973   1.123   1.714   2.085
11813WAT    EPW47974   1.193   1.712   2.120
11814WAT      O47975   1.604   2.895   2.268
11814WAT     H147976   1.671   2.880   2.213
11814WAT     H247977   1.640   2.887   2.347
11814WAT    EPW47978   1.619   2.892   2.272
11815WAT      O47979   0.647   2.846   3.374
11815WAT     H147980   0.676   2.839   3.456
11815WAT     H247981   0.584   2.785   3.370
11815WAT    EPW47982   0.642   2.836   3.386
11816WAT      O47983   1.883   1.332   3.184
11816WAT     H147984   1.959   1.339   3.141
11816WAT     H247985   1.889   1.254   3.224
11816WAT    EPW47986   1.895   1.321   3.183
11817WAT      O47987   1.372   2.495   3.628
11817WAT     H147988   1.369   2.533   3.706
11817WAT     H247989   1.458   2.491   3.611
11817WAT    EPW47990   1.384   2.500   3.637
11818WAT      O47991   1.086   2.515   2.103
11818WAT     H147992   1.068   2.569   2.169
11818WAT     H247993   1.163   2.544   2.073
11818WAT    EPW47994   1.095   2.527   2.108
11819WAT      O47995   1.437   1.304   2.208
11819WAT     H147996   1.491   1.236   2.216
11819WAT     H247997   1.443   1.344   2.286
11819WAT    EPW47998   1.446   1.300   2.221
11820WAT      O47999   0.232   1.421   2.465
11820WAT     H148000   0.221   1.335   2.468
11820WAT     H248001   0.185   1.450   2.532
11820WAT    EPW48002   0.223   1.413   2.475
11821WAT      O48003   0.446   2.662   3.287
11821WAT     H148004   0.377   2.611   3.299
11821WAT     H248005   0.472   2.642   3.206
11821WAT    EPW48006   0.440   2.652   3.277
11822WAT      O48007   1.163   1.542   2.340
11822WAT     H148008   1.112   1.476   2.314
11822WAT     H248009   1.168   1.592   2.269
11822WAT    EPW48010   1.156   1.540   2.325
11823WAT      O48011   1.217   2.811   3.378
11823WAT     H148012   1.294   2.803   3.337
11823WAT     H248013   1.159   2.799   3.314
11823WAT    EPW48014   1.220   2.808   3.362
11824WAT      O48015   1.163   1.236   2.329
11824WAT     H148016   1.117   1.196   2.266
11824WAT     H248017   1.240   1.251   2.291
11824WAT    EPW48018   1.167   1.232   2.314
11825WAT      O48019   1.845   2.872   2.668
11825WAT     H148020   1.800   2.943   2.688
11825WAT     H248021   1.784   2.815   2.644
11825WAT    EPW48022   1.829   2.874   2.667
11826WAT      O48023   1.022   1.473   2.781
11826WAT     H148024   1.030   1.529   2.715
11826WAT     H248025   1.034   1.522   2.852
11826WAT    EPW48026   1.025   1.488   2.782
11827WAT      O48027   1.545   2.456   2.622
11827WAT     H148028   1.615   2.408   2.641
11827WAT     H248029   1.479   2.399   2.627
11827WAT    EPW48030   1.545   2.441   2.626
11828WAT      O48031   0.582   2.547   3.543
11828WAT     H148032   0.667   2.553   3.521
11828WAT     H248033   0.579   2.587   3.621
11828WAT    EPW48034   0.594   2.554   3.552
11829WAT      O48035   0.483   1.055   2.616
11829WAT     H148036   0.537   1.124   2.615
11829WAT     H248037   0.483   1.028   2.533
11829WAT    EPW48038   0.491   1.061   2.603
11830WAT      O48039   0.779   2.098   3.018
11830WAT     H148040   0.796   2.077   3.101
11830WAT     H248041   0.713   2.045   2.997
11830WAT    EPW48042   0.772   2.087   3.027
11831WAT      O48043   1.402   1.490   3.370
11831WAT     H148044   1.392   1.522   3.450
11831WAT     H248045   1.342   1.426   3.366
11831WAT    EPW48046   1.391   1.485   3.381
11832WAT      O48047   0.854   2.092   3.277
11832WAT     H148048   0.859   2.177   3.297
11832WAT     H248049   0.825   2.055   3.351
11832WAT    EPW48050   0.850   2.099   3.291
11833WAT      O48051   1.471   2.162   3.190
11833WAT     H148052   1.420   2.120   3.247
11833WAT     H248053   1.459   2.246   3.208
11833WAT    EPW48054   1.462   2.168   3.201
11834WAT      O48055   1.527   1.084   2.653
11834WAT     H148056   1.532   1.052   2.734
11834WAT     H248057   1.559   1.020   2.604
11834WAT    EPW48058   1.533   1.070   2.658
11835WAT      O48059   1.774   1.508   3.484
11835WAT     H148060   1.851   1.485   3.518
11835WAT     H248061   1.726   1.529   3.554
11835WAT    EPW48062   1.778   1.508   3.499
11836WAT      O48063   0.528   1.436   2.781
11836WAT     H148064   0.555   1.393   2.710
11836WAT     H248065   0.510   1.372   2.838
11836WAT    EPW48066   0.529   1.420   2.779
11837WAT      O48067   1.797   2.205   2.203
11837WAT     H148068   1.809   2.177   2.284
11837WAT     H248069   1.877   2.208   2.170
11837WAT    EPW48070   1.810   2.202   2.210
11838WAT      O48071   0.510   2.179   2.736
11838WAT     H148072   0.595   2.171   2.719
11838WAT     H248073   0.475   2.110   2.695
11838WAT    EPW48074   0.518   2.167   2.727
11839WAT      O48075   0.387   2.851   2.860
11839WAT     H148076   0.320   2.801   2.835
11839WAT     H248077   0.427   2.870   2.785
11839WAT    EPW48078   0.383   2.847   2.845
11840WAT      O48079   0.342   1.546   3.089
11840WAT     H148080   0.426   1.568   3.085
11840WAT     H248081   0.303   1.603   3.036
11840WAT    EPW48082   0.349   1.558   3.081
11841WAT      O48083   2.020   2.656   3.628
11841WAT     H148084   1.952   2.687   3.584
11841WAT     H248085   1.983   2.611   3.693
11841WAT    EPW48086   2.005   2.654   3.631
11842WAT      O48087   1.586   1.859   2.161
11842WAT     H148088   1.564   1.932   2.119
11842WAT     H248089   1.541   1.864   2.236
11842WAT    EPW48090   1.576   1.871   2.166
11843WAT      O48091   0.747   2.179   2.560
11843WAT     H148092   0.818   2.229   2.569
11843WAT     H248093   0.769   2.123   2.497
11843WAT    EPW48094   0.761   2.178   2.552
11844WAT      O48095   2.005   1.345   2.107
11844WAT     H148096   1.939   1.288   2.109
11844WAT     H248097   1.986   1.396   2.039
11844WAT    EPW48098   1.992   1.344   2.097
11845WAT      O48099   0.927   1.715   3.901
11845WAT     H148100   0.879   1.772   3.945
11845WAT     H248101   0.925   1.744   3.819
11845WAT    EPW48102   0.920   1.728   3.896
11846WAT      O48103   2.037   1.783   3.362
11846WAT     H148104   2.059   1.703   3.335
11846WAT     H248105   1.952   1.789   3.343
11846WAT    EPW48106   2.028   1.772   3.355
11847WAT      O48107   1.805   1.301   2.335
11847WAT     H148108   1.880   1.260   2.355
11847WAT     H248109   1.831   1.373   2.292
11847WAT    EPW48110   1.820   1.306   2.331
11848WAT      O48111   1.199   2.550   2.792
11848WAT     H148112   1.147   2.613   2.763
11848WAT     H248113   1.230   2.513   2.719
11848WAT    EPW48114   1.196   2.554   2.777
11849WAT      O48115   0.607   2.328   3.068
11849WAT     H148116   0.654   2.357   3.136
11849WAT     H248117   0.664   2.281   3.023
11849WAT    EPW48118   0.622   2.326   3.072
11850WAT      O48119   1.451   1.530   2.842
11850WAT     H148120   1.485   1.545   2.921
11850WAT     H248121   1.405   1.456   2.853
11850WAT    EPW48122   1.449   1.521   2.855
11851WAT      O48123   0.264   2.095   2.923
11851WAT     H148124   0.307   2.083   2.848
11851WAT     H248125   0.243   2.180   2.920
11851WAT    EPW48126   0.267   2.106   2.911
11852WAT      O48127   0.898   1.452   2.288
11852WAT     H148128   0.898   1.440   2.201
11852WAT     H248129   0.880   1.537   2.297
11852WAT    EPW48130   0.895   1.463   2.276
11853WAT      O48131   1.804   2.695   3.437
11853WAT     H148132   1.736   2.746   3.459
11853WAT     H248133   1.810   2.705   3.351
11853WAT    EPW48134   1.795   2.704   3.428
11854WAT      O48135   0.672   2.447   2.751
11854WAT     H148136   0.685   2.531   2.770
11854WAT     H248137   0.739   2.407   2.790
11854WAT    EPW48138   0.684   2.454   2.759
11855WAT      O48139   0.485   1.795   3.737
11855WAT     H148140   0.431   1.745   3.784
11855WAT     H248141   0.487   1.756   3.659
11855WAT    EPW48142   0.477   1.782   3.732
11856WAT      O48143   0.533   1.735   2.251
11856WAT     H148144   0.521   1.690   2.325
11856WAT     H248145   0.475   1.701   2.196
11856WAT    EPW48146   0.523   1.723   2.254
11857WAT      O48147   0.550   1.918   2.911
11857WAT     H148148   0.472   1.912   2.873
11857WAT     H248149   0.557   1.843   2.955
11857WAT    EPW48150   0.540   1.906   2.912
11858WAT      O48151   0.593   1.892   3.258
11858WAT     H148152   0.596   1.824   3.203
11858WAT     H248153   0.529   1.941   3.227
11858WAT    EPW48154   0.584   1.889   3.245
11859WAT      O48155   1.583   1.663   3.097
11859WAT     H148156   1.516   1.696   3.144
11859WAT     H248157   1.601   1.726   3.040
11859WAT    EPW48158   1.576   1.677   3.096
11860WAT      O48159   1.003   2.769   3.197
11860WAT     H148160   0.975   2.705   3.145
11860WAT     H248161   0.982   2.842   3.153
11860WAT    EPW48162   0.996   2.771   3.183
11861WAT      O48163   1.247   1.254   3.440
11861WAT     H148164   1.262   1.171   3.416
11861WAT     H248165   1.285   1.259   3.519
11861WAT    EPW48166   1.255   1.242   3.448
11862WAT      O48167   1.402   1.460   2.448
11862WAT     H148168   1.451   1.532   2.441
11862WAT     H248169   1.323   1.486   2.422
11862WAT    EPW48170   1.398   1.474   2.443
11863WAT      O48171   0.373   2.027   3.814
11863WAT     H148172   0.369   2.077   3.742
11863WAT     H248173   0.406   1.952   3.784
11863WAT    EPW48174   0.377   2.023   3.799
11864WAT      O48175   1.533   2.248   3.639
11864WAT     H148176   1.582   2.320   3.649
11864WAT     H248177   1.573   2.205   3.574
11864WAT    EPW48178   1.546   2.252   3.631
11865WAT      O48179   0.963   2.532   3.757
11865WAT     H148180   0.998   2.514   3.835
11865WAT     H248181   0.919   2.459   3.737
11865WAT    EPW48182   0.962   2.519   3.766
11866WAT      O48183   1.060   1.607   3.021
11866WAT     H148184   1.108   1.677   3.042
11866WAT     H248185   1.097   1.542   3.066
11866WAT    EPW48186   1.073   1.608   3.031
11867WAT      O48187   1.279   1.924   2.248
11867WAT     H148188   1.278   1.996   2.199
11867WAT     H248189   1.215   1.937   2.306
11867WAT    EPW48190   1.270   1.937   2.250
11868WAT      O48191   1.776   2.311   2.646
11868WAT     H148192   1.812   2.276   2.718
11868WAT     H248193   1.775   2.245   2.589
11868WAT    EPW48194   1.781   2.296   2.649
11869WAT      O48195   1.381   2.617   3.031
11869WAT     H148196   1.320   2.588   2.975
11869WAT     H248197   1.435   2.663   2.980
11869WAT    EPW48198   1.380   2.620   3.015
11870WAT      O48199   1.382   2.303   2.971
11870WAT     H148200   1.302   2.325   2.998
11870WAT     H248201   1.408   2.243   3.029
11870WAT    EPW48202   1.374   2.297   2.984
11871WAT      O48203   0.771   2.784   2.416
11871WAT     H148204   0.757   2.706   2.453
11871WAT     H248205   0.840   2.769   2.364
11871WAT    EPW48206   0.779   2.770   2.414
11872WAT      O48207   0.738   1.158   2.214
11872WAT     H148208   0.748   1.147   2.301
11872WAT     H248209   0.668   1.209   2.208
11872WAT    EPW48210   0.729   1.164   2.226
11873WAT      O48211   1.000   2.735   2.256
11873WAT     H148212   1.063   2.752   2.315
11873WAT     H248213   1.004   2.804   2.203
11873WAT    EPW48214   1.010   2.748   2.257
11874WAT      O48215   1.708   2.102   3.455
11874WAT     H148216   1.714   2.115   3.369
11874WAT     H248217   1.783   2.134   3.486
11874WAT    EPW48218   1.720   2.109   3.447
11875WAT      O48219   1.327   2.637   3.883
11875WAT     H148220   1.344   2.666   3.964
11875WAT     H248221   1.353   2.703   3.833
11875WAT    EPW48222   1.333   2.651   3.888
11876WAT      O48223   1.811   1.132   3.754
11876WAT     H148224   1.748   1.092   3.710
11876WAT     H248225   1.814   1.089   3.830
11876WAT    EPW48226   1.802   1.120   3.759
11877WAT      O48227   0.451   1.989   2.339
11877WAT     H148228   0.483   1.911   2.317
11877WAT     H248229   0.515   2.026   2.384
11877WAT    EPW48230   0.465   1.983   2.342
11878WAT      O48231   1.281   2.083   3.415
11878WAT     H148232   1.266   2.144   3.476
11878WAT     H248233   1.335   2.027   3.456
11878WAT    EPW48234   1.287   2.084   3.430
11879WAT      O48235   1.120   1.923   2.481
11879WAT     H148236   1.125   1.988   2.539
11879WAT     H248237   1.101   1.853   2.530
11879WAT    EPW48238   1.118   1.922   2.497
11880WAT      O48239   1.642   2.356   3.068
11880WAT     H148240   1.594   2.386   3.002
11880WAT     H248241   1.607   2.278   3.086
11880WAT    EPW48242   1.630   2.349   3.061
11881WAT      O48243   0.569   1.375   2.132
11881WAT     H148244   0.518   1.380   2.062
11881WAT     H248245   0.648   1.399   2.103
11881WAT    EPW48246   0.573   1.379   2.118
11882WAT      O48247   1.042   2.128   2.924
11882WAT     H148248   0.957   2.108   2.932
11882WAT     H248249   1.074   2.111   3.004
11882WAT    EPW48250   1.034   2.122   2.937
11883WAT      O48251   0.717   2.801   2.013
11883WAT     H148252   0.761   2.731   2.042
11883WAT     H248253   0.738   2.863   2.070
11883WAT    EPW48254   0.727   2.800   2.026
11884WAT      O48255   0.427   2.097   3.156
11884WAT     H148256   0.499   2.146   3.152
11884WAT     H248257   0.400   2.094   3.073
11884WAT    EPW48258   0.433   2.104   3.143
11885WAT      O48259   0.750   1.614   2.829
11885WAT     H148260   0.834   1.595   2.839
11885WAT     H248261   0.713   1.536   2.816
11885WAT    EPW48262   0.757   1.600   2.829
11886WAT      O48263   2.011   2.772   2.262
11886WAT     H148264   2.081   2.726   2.237
11886WAT     H248265   1.957   2.713   2.296
11886WAT    EPW48266   2.014   2.757   2.263
11887WAT      O48267   0.232   1.748   2.495
11887WAT     H148268   0.281   1.719   2.561
11887WAT     H248269   0.245   1.689   2.432
11887WAT    EPW48270   0.241   1.735   2.495
11888WAT      O48271   1.735   2.050   3.180
11888WAT     H148272   1.735   1.972   3.220
11888WAT     H248273   1.651   2.073   3.179
11888WAT    EPW48274   1.723   2.042   3.186
11889WAT      O48275   0.684   1.891   2.044
11889WAT     H148276   0.623   1.851   2.091
11889WAT     H248277   0.646   1.903   1.966
11889WAT    EPW48278   0.670   1.887   2.039
11890WAT      O48279   0.366   2.202   3.584
11890WAT     H148280   0.324   2.150   3.528
11890WAT     H248281   0.331   2.281   3.569
11890WAT    EPW48282   0.355   2.206   3.573
11891WAT      O48283   1.861   2.057   2.924
11891WAT     H148284   1.832   2.097   2.996
11891WAT     H248285   1.947   2.051   2.936
11891WAT    EPW48286   1.869   2.062   2.936
11892WAT      O48287   0.830   1.737   2.315
11892WAT     H148288   0.857   1.820   2.321
11892WAT     H248289   0.743   1.745   2.305
11892WAT    EPW48290   0.821   1.751   2.314
11893WAT      O48291   1.627   1.450   3.778
11893WAT     H148292   1.575   1.495   3.830
11893WAT     H248293   1.591   1.370   3.777
11893WAT    EPW48294   1.614   1.445   3.785
11894WAT      O48295   0.178   1.334   2.968
11894WAT     H148296   0.182   1.369   2.888
11894WAT     H248297   0.253   1.358   3.005
11894WAT    EPW48298   0.190   1.343   2.962
11895WAT      O48299   1.974   2.620   2.977
11895WAT     H148300   2.003   2.646   2.899
11895WAT     H248301   2.043   2.630   3.029
11895WAT    EPW48302   1.989   2.626   2.973
11896WAT      O48303   1.476   1.806   3.785
11896WAT     H148304   1.484   1.817   3.872
11896WAT     H248305   1.413   1.862   3.763
11896WAT    EPW48306   1.468   1.816   3.795
11897WAT      O48307   1.703   1.838   3.622
11897WAT     H148308   1.735   1.917   3.642
11897WAT     H248309   1.666   1.811   3.696
11897WAT    EPW48310   1.702   1.846   3.636
11898WAT      O48311   1.634   2.481   2.175
11898WAT     H148312   1.668   2.400   2.178
11898WAT     H248313   1.559   2.474   2.218
11898WAT    EPW48314   1.628   2.468   2.182
11899WAT      O48315   1.683   1.664   2.741
11899WAT     H148316   1.608   1.632   2.773
11899WAT     H248317   1.683   1.747   2.769
11899WAT    EPW48318   1.672   1.672   2.750
11900WAT      O48319   1.973   1.893   3.895
11900WAT     H148320   1.968   1.858   3.815
11900WAT     H248321   2.047   1.939   3.893
11900WAT    EPW48322   1.983   1.894   3.883
11901WAT      O48323   1.927   2.260   3.516
11901WAT     H148324   1.989   2.205   3.490
11901WAT     H248325   1.921   2.317   3.450
11901WAT    EPW48326   1.935   2.260   3.502
11902WAT      O48327   1.372   2.268   2.115
11902WAT     H148328   1.440   2.217   2.098
11902WAT     H248329   1.330   2.273   2.039
11902WAT    EPW48330   1.376   2.261   2.101
11903WAT      O48331   0.840   2.383   3.246
11903WAT     H148332   0.810   2.442   3.302
11903WAT     H248333   0.846   2.427   3.171
11903WAT    EPW48334   0.836   2.399   3.243
11904WAT      O48335   0.638   2.278   3.585
11904WAT     H148336   0.557   2.249   3.602
11904WAT     H248337   0.629   2.365   3.586
11904WAT    EPW48338   0.625   2.287   3.588
11905WAT      O48339   1.574   1.297   3.487
11905WAT     H148340   1.648   1.342   3.481
11905WAT     H248341   1.517   1.344   3.440
11905WAT    EPW48342   1.577   1.311   3.479
11906WAT      O48343   1.092   2.026   3.195
11906WAT     H148344   1.139   2.063   3.257
11906WAT     H248345   1.009   2.039   3.221
11906WAT    EPW48346   1.087   2.033   3.208
11907WAT      O48347   0.763   1.586   3.469
11907WAT     H148348   0.779   1.511   3.511
11907WAT     H248349   0.758   1.561   3.385
11907WAT    EPW48350   0.764   1.571   3.463
11908WAT      O48351   1.018   2.765   2.717
11908WAT     H148352   1.073   2.833   2.723
11908WAT     H248353   0.983   2.773   2.638
11908WAT    EPW48354   1.021   2.776   2.706
11909WAT      O48355   1.702   1.095   3.254
11909WAT     H148356   1.674   1.178   3.249
11909WAT     H248357   1.774   1.100   3.303
11909WAT    EPW48358   1.709   1.108   3.261
11910WAT      O48359   0.938   1.167   3.457
11910WAT     H148360   1.008   1.199   3.417
11910WAT     H248361   0.962   1.086   3.479
11910WAT    EPW48362   0.952   1.159   3.454
11911WAT      O48363   0.836   2.588   3.056
11911WAT     H148364   0.774   2.646   3.038
11911WAT     H248365   0.861   2.559   2.978
11911WAT    EPW48366   0.831   2.592   3.042
11912WAT      O48367   1.267   2.251   3.755
11912WAT     H148368   1.343   2.280   3.723
11912WAT     H248369   1.213   2.256   3.687
11912WAT    EPW48370   1.270   2.256   3.740
11913WAT      O48371   1.658   2.506   3.606
11913WAT     H148372   1.693   2.533   3.681
11913WAT     H248373   1.688   2.564   3.548
11913WAT    EPW48374   1.668   2.519   3.608
11914WAT      O48375   1.844   1.721   2.140
11914WAT     H148376   1.882   1.788   2.100
11914WAT     H248377   1.760   1.743   2.143
11914WAT    EPW48378   1.838   1.734   2.134
11915WAT      O48379   0.996   2.065   2.048
11915WAT     H148380   0.915   2.048   2.019
11915WAT     H248381   0.992   2.150   2.067
11915WAT    EPW48382   0.983   2.075   2.047
11916WAT      O48383   0.589   1.672   3.063
11916WAT     H148384   0.633   1.662   2.988
11916WAT     H248385   0.643   1.641   3.123
11916WAT    EPW48386   0.603   1.666   3.061
11917WAT      O48387   1.390   1.582   3.622
11917WAT     H148388   1.326   1.629   3.657
11917WAT     H248389   1.447   1.573   3.688
11917WAT    EPW48390   1.389   1.588   3.637
11918WAT      O48391   1.359   1.736   3.252
11918WAT     H148392   1.389   1.778   3.322
11918WAT     H248393   1.363   1.652   3.275
11918WAT    EPW48394   1.364   1.730   3.266
11919WAT      O48395   1.102   2.753   3.644
11919WAT     H148396   1.149   2.693   3.603
11919WAT     H248397   1.067   2.708   3.711
11919WAT    EPW48398   1.104   2.737   3.648
11920WAT      O48399   1.614   1.681   2.477
11920WAT     H148400   1.635   1.660   2.559
11920WAT     H248401   1.690   1.707   2.443
11920WAT    EPW48402   1.628   1.682   2.484
11921WAT      O48403   0.943   1.170   3.068
11921WAT     H148404   0.861   1.156   3.091
11921WAT     H248405   0.939   1.174   2.980
11921WAT    EPW48406   0.931   1.169   3.058
11922WAT      O48407   1.716   1.289   2.624
11922WAT     H148408   1.645   1.242   2.642
11922WAT     H248409   1.700   1.323   2.546
11922WAT    EPW48410   1.703   1.287   2.615
11923WAT      O48411   1.760   2.083   2.462
11923WAT     H148412   1.808   2.010   2.458
11923WAT     H248413   1.678   2.055   2.455
11923WAT    EPW48414   1.755   2.068   2.461
11924WAT      O48415   1.108   2.274   3.546
11924WAT     H148416   1.028   2.268   3.581
11924WAT     H248417   1.115   2.359   3.527
11924WAT    EPW48418   1.097   2.286   3.549
11925WAT      O48419   0.691   2.895   3.078
11925WAT     H148420   0.692   2.901   3.165
11925WAT     H248421   0.648   2.820   3.063
11925WAT    EPW48422   0.684   2.885   3.089
11926WAT      O48423   0.506   1.485   2.394
11926WAT     H148424   0.519   1.452   2.314
11926WAT     H248425   0.425   1.460   2.413
11926WAT    EPW48426   0.496   1.476   2.385
11927WAT      O48427   1.382   2.200   2.698
11927WAT     H148428   1.390   2.234   2.778
11927WAT     H248429   1.399   2.115   2.710
11927WAT    EPW48430   1.386   2.192   2.712
11928WAT      O48431   1.134   2.127   2.654
11928WAT     H148432   1.104   2.096   2.730
11928WAT     H248433   1.204   2.175   2.678
11928WAT    EPW48434   1.140   2.130   2.669
11929WAT      O48435   1.156   2.539   3.457
11929WAT     H148436   1.225   2.528   3.510
11929WAT     H248437   1.170   2.618   3.423
11929WAT    EPW48438   1.169   2.549   3.460
11930WAT      O48439   1.974   1.800   3.638
11930WAT     H148440   1.889   1.788   3.651
11930WAT     H248441   1.989   1.761   3.562
11930WAT    EPW48442   1.964   1.792   3.629
11931WAT      O48443   1.425   1.867   3.496
11931WAT     H148444   1.400   1.795   3.538
11931WAT     H248445   1.507   1.878   3.523
11931WAT    EPW48446   1.434   1.858   3.506
11932WAT      O48447   0.367   2.845   3.622
11932WAT     H148448   0.302   2.788   3.632
11932WAT     H248449   0.329   2.922   3.637
11932WAT    EPW48450   0.352   2.848   3.626
11933WAT      O48451   1.219   1.986   3.815
11933WAT     H148452   1.251   2.054   3.771
11933WAT     H248453   1.148   2.018   3.855
11933WAT    EPW48454   1.213   2.000   3.814
11934WAT      O48455   1.527   2.823   2.907
11934WAT     H148456   1.482   2.887   2.945
11934WAT     H248457   1.598   2.815   2.958
11934WAT    EPW48458   1.531   2.831   2.921
11935WAT      O48459   1.197   2.332   3.200
11935WAT     H148460   1.128   2.372   3.235
11935WAT     H248461   1.265   2.375   3.234
11935WAT    EPW48462   1.197   2.344   3.211
11936WAT      O48463   1.735   2.591   3.858
11936WAT     H148464   1.813   2.552   3.867
11936WAT     H248465   1.688   2.558   3.924
11936WAT    EPW48466   1.739   2.581   3.869
11937WAT      O48467   0.504   1.686   3.435
11937WAT     H148468   0.542   1.748   3.386
11937WAT     H248469   0.571   1.638   3.464
11937WAT    EPW48470   0.520   1.688   3.432
11938WAT      O48471   0.282   1.531   3.363
11938WAT     H148472   0.289   1.514   3.277
11938WAT     H248473   0.356   1.571   3.382
11938WAT    EPW48474   0.294   1.534   3.353
11939WAT      O48475   1.837   1.795   2.407
11939WAT     H148476   1.848   1.789   2.320
11939WAT     H248477   1.912   1.761   2.438
11939WAT    EPW48478   1.850   1.789   2.399
11940WAT      O48479   0.537   1.272   3.604
11940WAT     H148480   0.529   1.187   3.624
11940WAT     H248481   0.506   1.276   3.522
11940WAT    EPW48482   0.531   1.260   3.595
11941WAT      O48483   1.229   2.491   2.517
11941WAT     H148484   1.209   2.574   2.501
11941WAT     H248485   1.152   2.453   2.530
11941WAT    EPW48486   1.215   2.498   2.517
11942WAT      O48487   1.748   1.809   3.342
11942WAT     H148488   1.747   1.723   3.355
11942WAT     H248489   1.754   1.842   3.423
11942WAT    EPW48490   1.749   1.801   3.356
11943WAT      O48491   0.221   2.053   3.385
11943WAT     H148492   0.253   2.075   3.307
11943WAT     H248493   0.211   1.967   3.380
11943WAT    EPW48494   0.224   2.044   3.373
11944WAT      O48495   0.367   1.647   2.047
11944WAT     H148496   0.300   1.648   2.102
11944WAT     H248497   0.376   1.562   2.028
11944WAT    EPW48498   0.358   1.634   2.052
11945WAT      O48499   1.336   1.289   3.720
11945WAT     H148500   1.345   1.360   3.770
11945WAT     H248501   1.272   1.245   3.760
11945WAT    EPW48502   1.327   1.293   3.734
11946WAT      O48503   1.235   1.308   2.806
11946WAT     H148504   1.165   1.360   2.800
11946WAT     H248505   1.239   1.270   2.727
11946WAT    EPW48506   1.225   1.310   2.793
11947WAT      O48507   0.766   2.517   2.158
11947WAT     H148508   0.810   2.525   2.233
11947WAT     H248509   0.685   2.496   2.184
11947WAT    EPW48510   0.760   2.515   2.173
11948WAT      O48511   1.595   1.360   3.086
11948WAT     H148512   1.680   1.370   3.100
11948WAT     H248513   1.558   1.415   3.142
11948WAT    EPW48514   1.602   1.369   3.096
11949WAT      O48515   0.698   1.982   3.524
11949WAT     H148516   0.658   2.060   3.531
11949WAT     H248517   0.657   1.945   3.456
11949WAT    EPW48518   0.686   1.988   3.515
11950WAT      O48519   1.625   1.888   2.935
11950WAT     H148520   1.692   1.942   2.951
11950WAT     H248521   1.591   1.919   2.861
11950WAT    EPW48522   1.630   1.900   2.926
11951WAT      O48523   1.656   2.694   2.516
11951WAT     H148524   1.639   2.629   2.571
11951WAT     H248525   1.728   2.667   2.473
11951WAT    EPW48526   1.664   2.681   2.518
11952WAT      O48527   0.499   2.424   2.218
11952WAT     H148528   0.474   2.394   2.296
11952WAT     H248529   0.495   2.354   2.167
11952WAT    EPW48530   0.494   2.409   2.222
11953WAT      O48531   0.780   2.249   2.093
11953WAT     H148532   0.699   2.222   2.107
11953WAT     H248533   0.778   2.334   2.111
11953WAT    EPW48534   0.768   2.257   2.097
11954WAT      O48535   0.740   1.280   3.269
11954WAT     H148536   0.654   1.288   3.277
11954WAT     H248537   0.762   1.229   3.335
11954WAT    EPW48538   0.731   1.274   3.280
11955WAT      O48539   1.942   1.144   3.401
11955WAT     H148540   1.937   1.139   3.488
11955WAT     H248541   2.011   1.093   3.382
11955WAT    EPW48542   1.952   1.136   3.411
11956WAT      O48543   1.151   1.355   3.106
11956WAT     H148544   1.077   1.309   3.117
11956WAT     H248545   1.208   1.315   3.158
11956WAT    EPW48546   1.148   1.342   3.115
11957WAT      O48547   1.424   2.440   3.285
11957WAT     H148548   1.445   2.470   3.364
11957WAT     H248549   1.418   2.512   3.236
11957WAT    EPW48550   1.426   2.455   3.289
11958WAT      O48551   1.377   2.861   3.709
11958WAT     H148552   1.302   2.859   3.665
11958WAT     H248553   1.394   2.946   3.718
11958WAT    EPW48554   1.369   2.873   3.704
11959WAT      O48555   0.901   1.788   3.626
11959WAT     H148556   0.869   1.730   3.569
11959WAT     H248557   0.865   1.863   3.602
11959WAT    EPW48558   0.891   1.790   3.614
11960WAT      O48559   0.981   1.113   2.089
11960WAT     H148560   0.988   1.138   2.006
11960WAT     H248561   0.906   1.151   2.115
11960WAT    EPW48562   0.971   1.122   2.081
11961WAT      O48563   1.905   2.304   3.231
11961WAT     H148564   1.902   2.217   3.217
11961WAT     H248565   1.836   2.334   3.187
11961WAT    EPW48566   1.894   2.295   3.222
11962WAT      O48567   0.745   2.823   3.651
11962WAT     H148568   0.749   2.836   3.737
11962WAT     H248569   0.810   2.767   3.636
11962WAT    EPW48570   0.755   2.817   3.662
11963WAT      O48571   1.716   2.630   3.110
11963WAT     H148572   1.768   2.621   3.041
11963WAT     H248573   1.677   2.552   3.116
11963WAT    EPW48574   1.718   2.617   3.101
11964WAT      O48575   0.462   1.288   3.333
11964WAT     H148576   0.428   1.212   3.310
11964WAT     H248577   0.393   1.341   3.340
11964WAT    EPW48578   0.447   1.285   3.331
11965WAT      O48579   1.367   1.174   3.031
11965WAT     H148580   1.434   1.228   3.044
11965WAT     H248581   1.317   1.216   2.974
11965WAT    EPW48582   1.370   1.188   3.024
11966WAT      O48583   0.504   2.662   3.787
11966WAT     H148584   0.563   2.705   3.834
11966WAT     H248585   0.467   2.724   3.738
11966WAT    EPW48586   0.507   2.677   3.787
11967WAT      O48587   1.303   1.755   2.780
11967WAT     H148588   1.358   1.694   2.810
11967WAT     H248589   1.260   1.781   2.852
11967WAT    EPW48590   1.305   1.750   2.795
11968WAT      O48591   0.328   1.620   2.729
11968WAT     H148592   0.291   1.650   2.802
11968WAT     H248593   0.381   1.557   2.757
11968WAT    EPW48594   0.330   1.615   2.744
11969WAT      O48595   0.297   2.461   3.480
11969WAT     H148596   0.239   2.502   3.531
11969WAT     H248597   0.370   2.507   3.490
11969WAT    EPW48598   0.299   2.474   3.489
11970WAT      O48599   1.500   1.938   2.437
11970WAT     H148600   1.507   1.853   2.455
11970WAT     H248601   1.418   1.946   2.409
11970WAT    EPW48602   1.489   1.927   2.435
11971WAT      O48603   0.475   2.787   2.358
11971WAT     H148604   0.461   2.803   2.273
11971WAT     H248605   0.562   2.795   2.365
11971WAT    EPW48606   0.486   2.791   2.346
11972WAT      O48607   0.892   2.027   2.330
11972WAT     H148608   0.902   2.041   2.245
11972WAT     H248609   0.974   2.021   2.360
11972WAT    EPW48610   0.905   2.028   2.322
11973WAT      O48611   1.808   2.833   2.078
11973WAT     H148612   1.872   2.820   2.136
11973WAT     H248613   1.774   2.754   2.067
11973WAT    EPW48614   1.812   2.820   2.085
11974WAT      O48615   1.827   2.075   3.752
11974WAT     H148616   1.891   2.058   3.809
11974WAT     H248617   1.869   2.115   3.686
11974WAT    EPW48618   1.843   2.079   3.751
11975WAT      O48619   1.415   2.460   2.311
11975WAT     H148620   1.390   2.447   2.393
11975WAT     H248621   1.384   2.390   2.268
11975WAT    EPW48622   1.407   2.448   2.317
11976WAT      O48623   1.890   1.532   3.825
11976WAT     H148624   1.870   1.596   3.881
11976WAT     H248625   1.818   1.483   3.825
11976WAT    EPW48626   1.876   1.534   3.834
11977WAT      O48627   1.880   1.626   3.123
11977WAT     H148628   1.796   1.651   3.115
11977WAT     H248629   1.874   1.542   3.145
11977WAT    EPW48630   1.867   1.617   3.125
11978WAT      O48631   0.806   1.324   3.642
11978WAT     H148632   0.829   1.267   3.581
11978WAT     H248633   0.722   1.306   3.656
11978WAT    EPW48634   0.797   1.313   3.635
11979WAT      O48635   1.568   2.086   3.887
11979WAT     H148636   1.656   2.083   3.884
11979WAT     H248637   1.547   2.128   3.814
11979WAT    EPW48638   1.578   2.092   3.876
11980WAT      O48639   0.544   2.669   3.005
11980WAT     H148640   0.536   2.588   2.974
11980WAT     H248641   0.499   2.717   2.948
11980WAT    EPW48642   0.536   2.664   2.992
11981WAT      O48643   1.104   2.281   2.254
11981WAT     H148644   1.176   2.246   2.218
11981WAT     H248645   1.101   2.361   2.219
11981WAT    EPW48646   1.114   2.287   2.243
11982WAT      O48647   0.301   2.893   3.363
11982WAT     H148648   0.350   2.888   3.435
11982WAT     H248649   0.320   2.820   3.320
11982WAT    EPW48650   0.311   2.881   3.368
11983WAT      O48651   1.245   1.145   0.677
11983WAT     H148652   1.220   1.194   0.609
11983WAT     H248653   1.331   1.137   0.667
11983WAT    EPW48654   1.254   1.151   0.666
11984WAT      O48655   1.226   1.836   1.145
11984WAT     H148656   1.173   1.896   1.181
11984WAT     H248657   1.265   1.800   1.213
11984WAT    EPW48658   1.224   1.840   1.160
11985WAT      O48659   1.840   2.580   0.442
11985WAT     H148660   1.910   2.529   0.441
11985WAT     H248661   1.781   2.536   0.395
11985WAT    EPW48662   1.842   2.566   0.435
11986WAT      O48663   0.501   2.156   0.208
11986WAT     H148664   0.462   2.119   0.139
11986WAT     H248665   0.493   2.096   0.271
11986WAT    EPW48666   0.494   2.142   0.207
11987WAT      O48667   1.493   1.943   0.812
11987WAT     H148668   1.501   1.943   0.725
11987WAT     H248669   1.434   1.880   0.827
11987WAT    EPW48670   1.485   1.934   0.802
11988WAT      O48671   0.464   2.320   0.598
11988WAT     H148672   0.524   2.303   0.658
11988WAT     H248673   0.388   2.306   0.640
11988WAT    EPW48674   0.461   2.315   0.613
11989WAT      O48675   0.892   1.253   0.593
11989WAT     H148676   0.885   1.321   0.538
11989WAT     H248677   0.966   1.215   0.568
11989WAT    EPW48678   0.902   1.258   0.581
11990WAT      O48679   0.353   2.629   0.206
11990WAT     H148680   0.399   2.637   0.133
11990WAT     H248681   0.398   2.571   0.253
11990WAT    EPW48682   0.366   2.622   0.202
11991WAT      O48683   0.864   2.276   1.822
11991WAT     H148684   0.840   2.276   1.906
11991WAT     H248685   0.789   2.262   1.780
11991WAT    EPW48686   0.849   2.274   1.828
11992WAT      O48687   0.351   1.976   0.736
11992WAT     H148688   0.305   1.937   0.673
11992WAT     H248689   0.421   1.925   0.745
11992WAT    EPW48690   0.355   1.963   0.728
11993WAT      O48691   0.802   1.537   1.271
11993WAT     H148692   0.870   1.539   1.216
11993WAT     H248693   0.798   1.453   1.295
11993WAT    EPW48694   0.811   1.525   1.266
11994WAT      O48695   0.862   2.596   1.549
11994WAT     H148696   0.876   2.672   1.508
11994WAT     H248697   0.941   2.559   1.551
11994WAT    EPW48698   0.876   2.601   1.543
11995WAT      O48699   0.551   1.786   0.738
11995WAT     H148700   0.633   1.767   0.762
11995WAT     H248701   0.504   1.725   0.778
11995WAT    EPW48702   0.556   1.774   0.748
11996WAT      O48703   0.972   2.384   0.999
11996WAT     H148704   1.007   2.304   1.002
11996WAT     H248705   1.038   2.434   0.974
11996WAT    EPW48706   0.987   2.380   0.996
11997WAT      O48707   0.977   2.329   0.620
11997WAT     H148708   1.011   2.265   0.669
11997WAT     H248709   1.001   2.308   0.539
11997WAT    EPW48710   0.986   2.316   0.615
11998WAT      O48711   1.174   1.742   1.754
11998WAT     H148712   1.089   1.732   1.736
11998WAT     H248713   1.177   1.817   1.800
11998WAT    EPW48714   1.162   1.752   1.758
11999WAT      O48715   0.611   1.295   0.665
11999WAT     H148716   0.581   1.345   0.600
11999WAT     H248717   0.698   1.303   0.659
11999WAT    EPW48718   0.619   1.304   0.654
12000WAT      O48719   1.630   1.038   1.666
12000WAT     H148720   1.614   1.115   1.627
12000WAT     H248721   1.553   1.016   1.700
12000WAT    EPW48722   1.616   1.046   1.665
12001WAT      O48723   0.909   1.210   0.887
12001WAT     H148724   0.916   1.296   0.900
12001WAT     H248725   0.905   1.202   0.800
12001WAT    EPW48726   0.909   1.221   0.876
12002WAT      O48727   0.772   2.507   0.575
12002WAT     H148728   0.714   2.480   0.634
12002WAT     H248729   0.834   2.447   0.578
12002WAT    EPW48730   0.773   2.494   0.584
12003WAT      O48731   1.386   2.736   0.327
12003WAT     H148732   1.459   2.783   0.338
12003WAT     H248733   1.409   2.657   0.355
12003WAT    EPW48734   1.400   2.732   0.333
12004WAT      O48735   1.203   2.775   0.526
12004WAT     H148736   1.224   2.828   0.593
12004WAT     H248737   1.280   2.758   0.488
12004WAT    EPW48738   1.217   2.781   0.531
12005WAT      O48739   0.500   1.234   1.086
12005WAT     H148740   0.448   1.171   1.055
12005WAT     H248741   0.559   1.190   1.133
12005WAT    EPW48742   0.501   1.218   1.089
12006WAT      O48743   0.830   1.447   2.016
12006WAT     H148744   0.842   1.402   1.942
12006WAT     H248745   0.859   1.527   1.996
12006WAT    EPW48746   0.836   1.452   2.002
12007WAT      O48747   0.342   2.590   0.620
12007WAT     H148748   0.408   2.533   0.622
12007WAT     H248749   0.381   2.665   0.598
12007WAT    EPW48750   0.358   2.593   0.617
12008WAT      O48751   1.916   1.499   0.746
12008WAT     H148752   1.881   1.567   0.789
12008WAT     H248753   1.852   1.440   0.748
12008WAT    EPW48754   1.901   1.501   0.753
12009WAT      O48755   1.447   2.776   1.357
12009WAT     H148756   1.521   2.822   1.356
12009WAT     H248757   1.435   2.755   1.273
12009WAT    EPW48758   1.456   2.780   1.344
12010WAT      O48759   0.404   1.407   1.914
12010WAT     H148760   0.326   1.368   1.907
12010WAT     H248761   0.453   1.366   1.855
12010WAT    EPW48762   0.399   1.395   1.905
12011WAT      O48763   0.424   2.439   0.970
12011WAT     H148764   0.466   2.403   0.903
12011WAT     H248765   0.457   2.397   1.039
12011WAT    EPW48766   0.435   2.427   0.971
12012WAT      O48767   0.747   2.724   0.900
12012WAT     H148768   0.832   2.734   0.880
12012WAT     H248769   0.718   2.806   0.907
12012WAT    EPW48770   0.755   2.738   0.898
12013WAT      O48771   1.069   1.171   1.831
12013WAT     H148772   1.086   1.090   1.804
12013WAT     H248773   1.054   1.215   1.757
12013WAT    EPW48774   1.069   1.166   1.816
12014WAT      O48775   1.128   1.664   0.709
12014WAT     H148776   1.157   1.640   0.630
12014WAT     H248777   1.201   1.672   0.755
12014WAT    EPW48778   1.143   1.661   0.704
12015WAT      O48779   1.200   1.698   0.221
12015WAT     H148780   1.228   1.776   0.246
12015WAT     H248781   1.123   1.714   0.184
12015WAT    EPW48782   1.193   1.712   0.219
12016WAT      O48783   1.604   2.895   0.367
12016WAT     H148784   1.671   2.880   0.313
12016WAT     H248785   1.640   2.887   0.446
12016WAT    EPW48786   1.619   2.892   0.371
12017WAT      O48787   0.647   2.846   1.474
12017WAT     H148788   0.676   2.839   1.556
12017WAT     H248789   0.584   2.785   1.469
12017WAT    EPW48790   0.642   2.836   1.485
12018WAT      O48791   1.883   1.332   1.283
12018WAT     H148792   1.959   1.339   1.241
12018WAT     H248793   1.889   1.254   1.323
12018WAT    EPW48794   1.895   1.321   1.283
12019WAT      O48795   1.372   2.495   1.727
12019WAT     H148796   1.369   2.533   1.806
12019WAT     H248797   1.458   2.491   1.710
12019WAT    EPW48798   1.384   2.500   1.736
12020WAT      O48799   1.086   2.515   0.202
12020WAT     H148800   1.068   2.569   0.268
12020WAT     H248801   1.163   2.544   0.172
12020WAT    EPW48802   1.095   2.527   0.208
12021WAT      O48803   1.437   1.304   0.308
12021WAT     H148804   1.491   1.236   0.315
12021WAT     H248805   1.443   1.344   0.385
12021WAT    EPW48806   1.446   1.300   0.320
12022WAT      O48807   0.232   1.421   0.565
12022WAT     H148808   0.221   1.335   0.568
12022WAT     H248809   0.185   1.450   0.632
12022WAT    EPW48810   0.223   1.413   0.575
12023WAT      O48811   0.446   2.662   1.386
12023WAT     H148812   0.377   2.611   1.399
12023WAT     H248813   0.472   2.642   1.305
12023WAT    EPW48814   0.440   2.652   1.376
12024WAT      O48815   1.163   1.542   0.439
12024WAT     H148816   1.112   1.476   0.414
12024WAT     H248817   1.168   1.592   0.368
12024WAT    EPW48818   1.156   1.540   0.425
12025WAT      O48819   1.217   2.811   1.477
12025WAT     H148820   1.294   2.803   1.436
12025WAT     H248821   1.159   2.799   1.413
12025WAT    EPW48822   1.220   2.808   1.462
12026WAT      O48823   1.163   1.236   0.428
12026WAT     H148824   1.117   1.196   0.366
12026WAT     H248825   1.240   1.251   0.391
12026WAT    EPW48826   1.167   1.232   0.413
12027WAT      O48827   1.845   2.872   0.767
12027WAT     H148828   1.800   2.943   0.787
12027WAT     H248829   1.784   2.815   0.743
12027WAT    EPW48830   1.829   2.874   0.767
12028WAT      O48831   1.022   1.473   0.880
12028WAT     H148832   1.030   1.529   0.815
12028WAT     H248833   1.034   1.522   0.951
12028WAT    EPW48834   1.025   1.488   0.881
12029WAT      O48835   1.545   2.456   0.722
12029WAT     H148836   1.615   2.408   0.740
12029WAT     H248837   1.479   2.399   0.726
12029WAT    EPW48838   1.545   2.441   0.725
12030WAT      O48839   0.582   2.547   1.643
12030WAT     H148840   0.667   2.553   1.621
12030WAT     H248841   0.579   2.587   1.720
12030WAT    EPW48842   0.594   2.554   1.651
12031WAT      O48843   0.483   1.055   0.715
12031WAT     H148844   0.537   1.124   0.714
12031WAT     H248845   0.483   1.028   0.632
12031WAT    EPW48846   0.491   1.061   0.703
12032WAT      O48847   0.779   2.098   1.118
12032WAT     H148848   0.796   2.077   1.201
12032WAT     H248849   0.713   2.045   1.096
12032WAT    EPW48850   0.772   2.087   1.127
12033WAT      O48851   1.402   1.490   1.469
12033WAT     H148852   1.392   1.522   1.550
12033WAT     H248853   1.342   1.426   1.465
12033WAT    EPW48854   1.391   1.485   1.481
12034WAT      O48855   0.854   2.092   1.377
12034WAT     H148856   0.859   2.177   1.397
12034WAT     H248857   0.825   2.055   1.450
12034WAT    EPW48858   0.850   2.099   1.390
12035WAT      O48859   1.471   2.162   1.290
12035WAT     H148860   1.420   2.120   1.347
12035WAT     H248861   1.459   2.246   1.308
12035WAT    EPW48862   1.462   2.168   1.301
12036WAT      O48863   1.527   1.084   0.753
12036WAT     H148864   1.532   1.052   0.834
12036WAT     H248865   1.559   1.020   0.703
12036WAT    EPW48866   1.533   1.070   0.757
12037WAT      O48867   1.774   1.508   1.584
12037WAT     H148868   1.851   1.485   1.617
12037WAT     H248869   1.726   1.529   1.654
12037WAT    EPW48870   1.778   1.508   1.599
12038WAT      O48871   0.528   1.436   0.881
12038WAT     H148872   0.555   1.393   0.810
12038WAT     H248873   0.510   1.372   0.938
12038WAT    EPW48874   0.529   1.420   0.879
12039WAT      O48875   1.797   2.205   0.302
12039WAT     H148876   1.809   2.177   0.384
12039WAT     H248877   1.877   2.208   0.269
12039WAT    EPW48878   1.810   2.202   0.310
12040WAT      O48879   0.510   2.179   0.835
12040WAT     H148880   0.595   2.171   0.818
12040WAT     H248881   0.475   2.110   0.794
12040WAT    EPW48882   0.518   2.167   0.827
12041WAT      O48883   0.387   2.851   0.959
12041WAT     H148884   0.320   2.801   0.935
12041WAT     H248885   0.427   2.870   0.884
12041WAT    EPW48886   0.383   2.847   0.944
12042WAT      O48887   0.342   1.546   1.189
12042WAT     H148888   0.426   1.568   1.184
12042WAT     H248889   0.303   1.603   1.136
12042WAT    EPW48890   0.349   1.558   1.180
12043WAT      O48891   2.020   2.656   1.728
12043WAT     H148892   1.952   2.687   1.683
12043WAT     H248893   1.983   2.611   1.792
12043WAT    EPW48894   2.005   2.654   1.731
12044WAT      O48895   1.586   1.859   0.261
12044WAT     H148896   1.564   1.932   0.219
12044WAT     H248897   1.541   1.864   0.336
12044WAT    EPW48898   1.576   1.871   0.266
12045WAT      O48899   0.747   2.179   0.659
12045WAT     H148900   0.818   2.229   0.668
12045WAT     H248901   0.769   2.123   0.596
12045WAT    EPW48902   0.761   2.178   0.651
12046WAT      O48903   2.005   1.345   0.206
12046WAT     H148904   1.939   1.288   0.208
12046WAT     H248905   1.986   1.396   0.138
12046WAT    EPW48906   1.992   1.344   0.196
12047WAT      O48907   0.927   1.715   2.001
12047WAT     H148908   0.879   1.772   2.045
12047WAT     H248909   0.925   1.744   1.918
12047WAT    EPW48910   0.920   1.728   1.995
12048WAT      O48911   2.037   1.783   1.462
12048WAT     H148912   2.059   1.703   1.434
12048WAT     H248913   1.952   1.789   1.443
12048WAT    EPW48914   2.028   1.772   1.455
12049WAT      O48915   1.805   1.301   0.434
12049WAT     H148916   1.880   1.260   0.454
12049WAT     H248917   1.831   1.373   0.392
12049WAT    EPW48918   1.820   1.306   0.431
12050WAT      O48919   1.199   2.550   0.892
12050WAT     H148920   1.147   2.613   0.862
12050WAT     H248921   1.230   2.513   0.819
12050WAT    EPW48922   1.196   2.554   0.877
12051WAT      O48923   0.607   2.328   1.168
12051WAT     H148924   0.654   2.357   1.235
12051WAT     H248925   0.664   2.281   1.122
12051WAT    EPW48926   0.622   2.326   1.171
12052WAT      O48927   1.451   1.530   0.941
12052WAT     H148928   1.485   1.545   1.020
12052WAT     H248929   1.405   1.456   0.953
12052WAT    EPW48930   1.449   1.521   0.955
12053WAT      O48931   0.264   2.095   1.022
12053WAT     H148932   0.307   2.083   0.947
12053WAT     H248933   0.243   2.180   1.019
12053WAT    EPW48934   0.267   2.106   1.011
12054WAT      O48935   0.898   1.452   0.387
12054WAT     H148936   0.898   1.440   0.301
12054WAT     H248937   0.880   1.537   0.396
12054WAT    EPW48938   0.895   1.463   0.376
12055WAT      O48939   1.804   2.695   1.537
12055WAT     H148940   1.736   2.746   1.559
12055WAT     H248941   1.810   2.705   1.450
12055WAT    EPW48942   1.795   2.704   1.527
12056WAT      O48943   0.672   2.447   0.850
12056WAT     H148944   0.685   2.531   0.869
12056WAT     H248945   0.739   2.407   0.890
12056WAT    EPW48946   0.684   2.454   0.859
12057WAT      O48947   0.485   1.795   1.836
12057WAT     H148948   0.431   1.745   1.883
12057WAT     H248949   0.487   1.756   1.758
12057WAT    EPW48950   0.477   1.782   1.832
12058WAT      O48951   0.533   1.735   0.350
12058WAT     H148952   0.521   1.690   0.424
12058WAT     H248953   0.475   1.701   0.295
12058WAT    EPW48954   0.523   1.723   0.353
12059WAT      O48955   0.550   1.918   1.010
12059WAT     H148956   0.472   1.912   0.972
12059WAT     H248957   0.557   1.843   1.054
12059WAT    EPW48958   0.540   1.906   1.011
12060WAT      O48959   0.593   1.892   1.357
12060WAT     H148960   0.596   1.824   1.302
12060WAT     H248961   0.529   1.941   1.326
12060WAT    EPW48962   0.584   1.889   1.344
12061WAT      O48963   1.583   1.663   1.197
12061WAT     H148964   1.516   1.696   1.243
12061WAT     H248965   1.601   1.726   1.140
12061WAT    EPW48966   1.576   1.677   1.195
12062WAT      O48967   1.003   2.769   1.296
12062WAT     H148968   0.975   2.705   1.244
12062WAT     H248969   0.982   2.842   1.253
12062WAT    EPW48970   0.996   2.771   1.282
12063WAT      O48971   1.247   1.254   1.540
12063WAT     H148972   1.262   1.171   1.515
12063WAT     H248973   1.285   1.259   1.618
12063WAT    EPW48974   1.255   1.242   1.548
12064WAT      O48975   1.402   1.460   0.548
12064WAT     H148976   1.451   1.532   0.540
12064WAT     H248977   1.323   1.486   0.522
12064WAT    EPW48978   1.398   1.474   0.543
12065WAT      O48979   0.373   2.027   1.913
12065WAT     H148980   0.369   2.077   1.842
12065WAT     H248981   0.406   1.952   1.884
12065WAT    EPW48982   0.377   2.023   1.898
12066WAT      O48983   1.533   2.248   1.739
12066WAT     H148984   1.582   2.320   1.749
12066WAT     H248985   1.573   2.205   1.674
12066WAT    EPW48986   1.546   2.252   1.731
12067WAT      O48987   0.963   2.532   1.857
12067WAT     H148988   0.998   2.514   1.934
12067WAT     H248989   0.919   2.459   1.837
12067WAT    EPW48990   0.962   2.519   1.865
12068WAT      O48991   1.060   1.607   1.120
12068WAT     H148992   1.108   1.677   1.141
12068WAT     H248993   1.097   1.542   1.165
12068WAT    EPW48994   1.073   1.608   1.130
12069WAT      O48995   1.279   1.924   0.348
12069WAT     H148996   1.278   1.996   0.299
12069WAT     H248997   1.215   1.937   0.405
12069WAT    EPW48998   1.270   1.937   0.349
12070WAT      O48999   1.776   2.311   0.746
12070WAT     H149000   1.812   2.276   0.817
12070WAT     H249001   1.775   2.245   0.689
12070WAT    EPW49002   1.781   2.296   0.748
12071WAT      O49003   1.381   2.617   1.130
12071WAT     H149004   1.320   2.588   1.075
12071WAT     H249005   1.435   2.663   1.079
12071WAT    EPW49006   1.380   2.620   1.114
12072WAT      O49007   1.382   2.303   1.070
12072WAT     H149008   1.302   2.325   1.098
12072WAT     H249009   1.408   2.243   1.129
12072WAT    EPW49010   1.374   2.297   1.083
12073WAT      O49011   0.771   2.784   0.515
12073WAT     H149012   0.757   2.706   0.552
12073WAT     H249013   0.840   2.769   0.464
12073WAT    EPW49014   0.779   2.770   0.513
12074WAT      O49015   0.738   1.158   0.314
12074WAT     H149016   0.748   1.147   0.400
12074WAT     H249017   0.668   1.209   0.307
12074WAT    EPW49018   0.729   1.164   0.326
12075WAT      O49019   1.000   2.735   0.355
12075WAT     H149020   1.063   2.752   0.414
12075WAT     H249021   1.004   2.804   0.302
12075WAT    EPW49022   1.010   2.748   0.356
12076WAT      O49023   1.708   2.102   1.555
12076WAT     H149024   1.714   2.115   1.469
12076WAT     H249025   1.783   2.134   1.585
12076WAT    EPW49026   1.720   2.109   1.547
12077WAT      O49027   1.327   2.637   1.983
12077WAT     H149028   1.344   2.666   2.063
12077WAT     H249029   1.353   2.703   1.932
12077WAT    EPW49030   1.333   2.651   1.987
12078WAT      O49031   1.811   1.132   1.854
12078WAT     H149032   1.748   1.092   1.809
12078WAT     H249033   1.814   1.089   1.929
12078WAT    EPW49034   1.802   1.120   1.858
12079WAT      O49035   0.451   1.989   0.438
12079WAT     H149036   0.483   1.911   0.416
12079WAT     H249037   0.515   2.026   0.484
12079WAT    EPW49038   0.465   1.983   0.442
12080WAT      O49039   1.281   2.083   1.515
12080WAT     H149040   1.266   2.144   1.575
12080WAT     H249041   1.335   2.027   1.555
12080WAT    EPW49042   1.287   2.084   1.530
12081WAT      O49043   1.120   1.923   0.581
12081WAT     H149044   1.125   1.988   0.639
12081WAT     H249045   1.101   1.853   0.630
12081WAT    EPW49046   1.118   1.922   0.596
12082WAT      O49047   1.642   2.356   1.168
12082WAT     H149048   1.594   2.386   1.101
12082WAT     H249049   1.607   2.278   1.185
12082WAT    EPW49050   1.630   2.349   1.160
12083WAT      O49051   0.569   1.375   0.232
12083WAT     H149052   0.518   1.380   0.161
12083WAT     H249053   0.648   1.399   0.202
12083WAT    EPW49054   0.573   1.379   0.217
12084WAT      O49055   1.042   2.128   1.024
12084WAT     H149056   0.957   2.108   1.032
12084WAT     H249057   1.074   2.111   1.103
12084WAT    EPW49058   1.034   2.122   1.037
12085WAT      O49059   0.427   2.097   1.255
12085WAT     H149060   0.499   2.146   1.252
12085WAT     H249061   0.400   2.094   1.172
12085WAT    EPW49062   0.433   2.104   1.243
12086WAT      O49063   0.750   1.614   0.929
12086WAT     H149064   0.834   1.595   0.939
12086WAT     H249065   0.713   1.536   0.915
12086WAT    EPW49066   0.757   1.600   0.928
12087WAT      O49067   2.011   2.772   0.362
12087WAT     H149068   2.081   2.726   0.337
12087WAT     H249069   1.957   2.713   0.395
12087WAT    EPW49070   2.014   2.757   0.363
12088WAT      O49071   0.232   1.748   0.594
12088WAT     H149072   0.281   1.719   0.660
12088WAT     H249073   0.245   1.689   0.532
12088WAT    EPW49074   0.241   1.735   0.595
12089WAT      O49075   1.735   2.050   1.279
12089WAT     H149076   1.735   1.972   1.319
12089WAT     H249077   1.651   2.073   1.279
12089WAT    EPW49078   1.723   2.042   1.285
12090WAT      O49079   0.366   2.202   1.683
12090WAT     H149080   0.324   2.150   1.627
12090WAT     H249081   0.331   2.281   1.669
12090WAT    EPW49082   0.355   2.206   1.673
12091WAT      O49083   1.861   2.057   1.023
12091WAT     H149084   1.832   2.097   1.095
12091WAT     H249085   1.947   2.051   1.036
12091WAT    EPW49086   1.869   2.062   1.036
12092WAT      O49087   0.830   1.737   0.414
12092WAT     H149088   0.857   1.820   0.421
12092WAT     H249089   0.743   1.745   0.404
12092WAT    EPW49090   0.821   1.751   0.413
12093WAT      O49091   1.627   1.450   1.877
12093WAT     H149092   1.575   1.495   1.930
12093WAT     H249093   1.591   1.370   1.877
12093WAT    EPW49094   1.614   1.445   1.885
12094WAT      O49095   0.178   1.334   1.068
12094WAT     H149096   0.182   1.369   0.987
12094WAT     H249097   0.253   1.358   1.104
12094WAT    EPW49098   0.190   1.343   1.061
12095WAT      O49099   1.974   2.620   1.076
12095WAT     H149100   2.003   2.646   0.998
12095WAT     H249101   2.043   2.630   1.128
12095WAT    EPW49102   1.989   2.626   1.072
12096WAT      O49103   1.476   1.806   1.885
12096WAT     H149104   1.484   1.817   1.971
12096WAT     H249105   1.413   1.862   1.863
12096WAT    EPW49106   1.468   1.816   1.894
12097WAT      O49107   1.703   1.838   1.721
12097WAT     H149108   1.735   1.917   1.742
12097WAT     H249109   1.666   1.811   1.796
12097WAT    EPW49110   1.702   1.846   1.735
12098WAT      O49111   1.634   2.481   0.274
12098WAT     H149112   1.668   2.400   0.278
12098WAT     H249113   1.559   2.474   0.317
12098WAT    EPW49114   1.628   2.468   0.281
12099WAT      O49115   1.683   1.664   0.840
12099WAT     H149116   1.608   1.632   0.872
12099WAT     H249117   1.683   1.747   0.868
12099WAT    EPW49118   1.672   1.672   0.849
12100WAT      O49119   1.973   1.893   1.995
12100WAT     H149120   1.968   1.858   1.915
12100WAT     H249121   2.047   1.939   1.993
12100WAT    EPW49122   1.983   1.894   1.983
12101WAT      O49123   1.927   2.260   1.615
12101WAT     H149124   1.989   2.205   1.590
12101WAT     H249125   1.921   2.317   1.549
12101WAT    EPW49126   1.935   2.260   1.602
12102WAT      O49127   1.372   2.268   0.215
12102WAT     H149128   1.440   2.217   0.198
12102WAT     H249129   1.330   2.273   0.138
12102WAT    EPW49130   1.376   2.261   0.201
12103WAT      O49131   0.840   2.383   1.345
12103WAT     H149132   0.810   2.442   1.402
12103WAT     H249133   0.846   2.427   1.270
12103WAT    EPW49134   0.836   2.399   1.342
12104WAT      O49135   0.638   2.278   1.685
12104WAT     H149136   0.557   2.249   1.701
12104WAT     H249137   0.629   2.365   1.685
12104WAT    EPW49138   0.625   2.287   1.687
12105WAT      O49139   1.574   1.297   1.586
12105WAT     H149140   1.648   1.342   1.580
12105WAT     H249141   1.517   1.344   1.539
12105WAT    EPW49142   1.577   1.311   1.578
12106WAT      O49143   1.092   2.026   1.294
12106WAT     H149144   1.139   2.063   1.357
12106WAT     H249145   1.009   2.039   1.320
12106WAT    EPW49146   1.087   2.033   1.307
12107WAT      O49147   0.763   1.586   1.568
12107WAT     H149148   0.779   1.511   1.611
12107WAT     H249149   0.758   1.561   1.485
12107WAT    EPW49150   0.764   1.571   1.562
12108WAT      O49151   1.018   2.765   0.817
12108WAT     H149152   1.073   2.833   0.822
12108WAT     H249153   0.983   2.773   0.737
12108WAT    EPW49154   1.021   2.776   0.806
12109WAT      O49155   1.702   1.095   1.353
12109WAT     H149156   1.674   1.178   1.349
12109WAT     H249157   1.774   1.100   1.403
12109WAT    EPW49158   1.709   1.108   1.360
12110WAT      O49159   0.938   1.167   1.556
12110WAT     H149160   1.008   1.199   1.516
12110WAT     H249161   0.962   1.086   1.579
12110WAT    EPW49162   0.952   1.159   1.554
12111WAT      O49163   0.836   2.588   1.156
12111WAT     H149164   0.774   2.646   1.138
12111WAT     H249165   0.861   2.559   1.077
12111WAT    EPW49166   0.831   2.592   1.141
12112WAT      O49167   1.267   2.251   1.855
12112WAT     H149168   1.343   2.280   1.822
12112WAT     H249169   1.213   2.256   1.787
12112WAT    EPW49170   1.270   2.256   1.840
12113WAT      O49171   1.658   2.506   1.705
12113WAT     H149172   1.693   2.533   1.780
12113WAT     H249173   1.688   2.564   1.647
12113WAT    EPW49174   1.668   2.519   1.708
12114WAT      O49175   1.844   1.721   0.239
12114WAT     H149176   1.882   1.788   0.199
12114WAT     H249177   1.760   1.743   0.242
12114WAT    EPW49178   1.838   1.734   0.233
12115WAT      O49179   0.589   1.672   1.162
12115WAT     H149180   0.633   1.662   1.088
12115WAT     H249181   0.643   1.641   1.223
12115WAT    EPW49182   0.603   1.666   1.160
12116WAT      O49183   1.390   1.582   1.721
12116WAT     H149184   1.326   1.629   1.756
12116WAT     H249185   1.447   1.573   1.787
12116WAT    EPW49186   1.389   1.588   1.736
12117WAT      O49187   1.359   1.736   1.351
12117WAT     H149188   1.389   1.778   1.422
12117WAT     H249189   1.363   1.652   1.374
12117WAT    EPW49190   1.364   1.730   1.365
12118WAT      O49191   1.102   2.753   1.744
12118WAT     H149192   1.149   2.693   1.702
12118WAT     H249193   1.067   2.708   1.810
12118WAT    EPW49194   1.104   2.737   1.747
12119WAT      O49195   1.614   1.681   0.576
12119WAT     H149196   1.635   1.660   0.659
12119WAT     H249197   1.690   1.707   0.542
12119WAT    EPW49198   1.628   1.682   0.584
12120WAT      O49199   0.943   1.170   1.167
12120WAT     H149200   0.861   1.156   1.191
12120WAT     H249201   0.939   1.174   1.080
12120WAT    EPW49202   0.931   1.169   1.158
12121WAT      O49203   1.716   1.289   0.724
12121WAT     H149204   1.645   1.242   0.741
12121WAT     H249205   1.700   1.323   0.645
12121WAT    EPW49206   1.703   1.287   0.715
12122WAT      O49207   1.760   2.083   0.562
12122WAT     H149208   1.808   2.010   0.557
12122WAT     H249209   1.678   2.055   0.554
12122WAT    EPW49210   1.755   2.068   0.560
12123WAT      O49211   1.108   2.274   1.646
12123WAT     H149212   1.028   2.268   1.681
12123WAT     H249213   1.115   2.359   1.626
12123WAT    EPW49214   1.097   2.286   1.648
12124WAT      O49215   0.691   2.895   1.177
12124WAT     H149216   0.692   2.901   1.264
12124WAT     H249217   0.648   2.820   1.162
12124WAT    EPW49218   0.684   2.885   1.188
12125WAT      O49219   0.506   1.485   0.493
12125WAT     H149220   0.519   1.452   0.413
12125WAT     H249221   0.425   1.460   0.513
12125WAT    EPW49222   0.496   1.476   0.484
12126WAT      O49223   1.382   2.200   0.797
12126WAT     H149224   1.390   2.234   0.877
12126WAT     H249225   1.399   2.115   0.809
12126WAT    EPW49226   1.386   2.192   0.811
12127WAT      O49227   1.134   2.127   0.754
12127WAT     H149228   1.104   2.096   0.830
12127WAT     H249229   1.204   2.175   0.777
12127WAT    EPW49230   1.140   2.130   0.769
12128WAT      O49231   1.156   2.539   1.557
12128WAT     H149232   1.225   2.528   1.609
12128WAT     H249233   1.170   2.618   1.522
12128WAT    EPW49234   1.169   2.549   1.559
12129WAT      O49235   1.974   1.800   1.738
12129WAT     H149236   1.889   1.788   1.750
12129WAT     H249237   1.989   1.761   1.661
12129WAT    EPW49238   1.964   1.792   1.728
12130WAT      O49239   1.425   1.867   1.595
12130WAT     H149240   1.400   1.795   1.637
12130WAT     H249241   1.507   1.878   1.622
12130WAT    EPW49242   1.434   1.858   1.605
12131WAT      O49243   0.367   2.845   1.722
12131WAT     H149244   0.302   2.788   1.731
12131WAT     H249245   0.329   2.922   1.737
12131WAT    EPW49246   0.352   2.848   1.725
12132WAT      O49247   1.219   1.986   1.914
12132WAT     H149248   1.251   2.054   1.871
12132WAT     H249249   1.148   2.018   1.954
12132WAT    EPW49250   1.213   2.000   1.913
12133WAT      O49251   1.527   2.823   1.007
12133WAT     H149252   1.482   2.887   1.045
12133WAT     H249253   1.598   2.815   1.057
12133WAT    EPW49254   1.531   2.831   1.020
12134WAT      O49255   1.197   2.332   1.300
12134WAT     H149256   1.128   2.372   1.334
12134WAT     H249257   1.265   2.375   1.334
12134WAT    EPW49258   1.197   2.344   1.310
12135WAT      O49259   1.735   2.591   1.958
12135WAT     H149260   1.813   2.552   1.966
12135WAT     H249261   1.688   2.558   2.023
12135WAT    EPW49262   1.739   2.581   1.969
12136WAT      O49263   0.504   1.686   1.535
12136WAT     H149264   0.542   1.748   1.486
12136WAT     H249265   0.571   1.638   1.563
12136WAT    EPW49266   0.520   1.688   1.532
12137WAT      O49267   0.282   1.531   1.462
12137WAT     H149268   0.289   1.514   1.377
12137WAT     H249269   0.356   1.571   1.482
12137WAT    EPW49270   0.294   1.534   1.452
12138WAT      O49271   1.837   1.795   0.506
12138WAT     H149272   1.848   1.789   0.420
12138WAT     H249273   1.912   1.761   0.538
12138WAT    EPW49274   1.850   1.789   0.498
12139WAT      O49275   0.537   1.272   1.703
12139WAT     H149276   0.529   1.187   1.724
12139WAT     H249277   0.506   1.276   1.622
12139WAT    EPW49278   0.531   1.260   1.694
12140WAT      O49279   1.229   2.491   0.617
12140WAT     H149280   1.209   2.574   0.601
12140WAT     H249281   1.152   2.453   0.629
12140WAT    EPW49282   1.215   2.498   0.616
12141WAT      O49283   1.748   1.809   1.442
12141WAT     H149284   1.747   1.723   1.454
12141WAT     H249285   1.754   1.842   1.522
12141WAT    EPW49286   1.749   1.801   1.455
12142WAT      O49287   0.221   2.053   1.484
12142WAT     H149288   0.253   2.075   1.406
12142WAT     H249289   0.211   1.967   1.479
12142WAT    EPW49290   0.224   2.044   1.472
12143WAT      O49291   1.336   1.289   1.820
12143WAT     H149292   1.345   1.360   1.869
12143WAT     H249293   1.272   1.245   1.860
12143WAT    EPW49294   1.327   1.293   1.833
12144WAT      O49295   1.235   1.308   0.905
12144WAT     H149296   1.165   1.360   0.900
12144WAT     H249297   1.239   1.270   0.827
12144WAT    EPW49298   1.225   1.310   0.893
12145WAT      O49299   0.766   2.517   0.258
12145WAT     H149300   0.810   2.525   0.332
12145WAT     H249301   0.685   2.496   0.283
12145WAT    EPW49302   0.760   2.515   0.273
12146WAT      O49303   1.595   1.360   1.185
12146WAT     H149304   1.680   1.370   1.200
12146WAT     H249305   1.558   1.415   1.242
12146WAT    EPW49306   1.602   1.369   1.196
12147WAT      O49307   0.698   1.982   1.623
12147WAT     H149308   0.658   2.060   1.630
12147WAT     H249309   0.657   1.945   1.555
12147WAT    EPW49310   0.686   1.988   1.614
12148WAT      O49311   1.625   1.888   1.034
12148WAT     H149312   1.692   1.942   1.050
12148WAT     H249313   1.591   1.919   0.960
12148WAT    EPW49314   1.630   1.900   1.026
12149WAT      O49315   1.656   2.694   0.615
12149WAT     H149316   1.639   2.629   0.670
12149WAT     H249317   1.728   2.667   0.573
12149WAT    EPW49318   1.664   2.681   0.617
12150WAT      O49319   0.499   2.424   0.318
12150WAT     H149320   0.474   2.394   0.396
12150WAT     H249321   0.495   2.354   0.266
12150WAT    EPW49322   0.494   2.409   0.322
12151WAT      O49323   0.780   2.249   0.192
12151WAT     H149324   0.699   2.222   0.206
12151WAT     H249325   0.778   2.334   0.211
12151WAT    EPW49326   0.768   2.257   0.197
12152WAT      O49327   0.740   1.280   1.368
12152WAT     H149328   0.654   1.288   1.376
12152WAT     H249329   0.762   1.229   1.435
12152WAT    EPW49330   0.731   1.274   1.379
12153WAT      O49331   1.942   1.144   1.501
12153WAT     H149332   1.937   1.139   1.588
12153WAT     H249333   2.011   1.093   1.482
12153WAT    EPW49334   1.952   1.136   1.511
12154WAT      O49335   1.151   1.355   1.205
12154WAT     H149336   1.077   1.309   1.217
12154WAT     H249337   1.208   1.315   1.258
12154WAT    EPW49338   1.148   1.342   1.215
12155WAT      O49339   1.424   2.440   1.384
12155WAT     H149340   1.445   2.470   1.463
12155WAT     H249341   1.418   2.512   1.336
12155WAT    EPW49342   1.426   2.455   1.389
12156WAT      O49343   1.377   2.861   1.809
12156WAT     H149344   1.302   2.859   1.765
12156WAT     H249345   1.394   2.946   1.817
12156WAT    EPW49346   1.369   2.873   1.803
12157WAT      O49347   0.901   1.788   1.726
12157WAT     H149348   0.869   1.730   1.669
12157WAT     H249349   0.865   1.863   1.701
12157WAT    EPW49350   0.891   1.790   1.714
12158WAT      O49351   1.905   2.304   1.330
12158WAT     H149352   1.902   2.217   1.316
12158WAT     H249353   1.836   2.334   1.287
12158WAT    EPW49354   1.894   2.295   1.322
12159WAT      O49355   0.745   2.823   1.751
12159WAT     H149356   0.749   2.836   1.837
12159WAT     H249357   0.810   2.767   1.735
12159WAT    EPW49358   0.755   2.817   1.761
12160WAT      O49359   1.716   2.630   1.210
12160WAT     H149360   1.768   2.621   1.141
12160WAT     H249361   1.677   2.552   1.215
12160WAT    EPW49362   1.718   2.617   1.200
12161WAT      O49363   0.462   1.288   1.433
12161WAT     H149364   0.428   1.212   1.409
12161WAT     H249365   0.393   1.341   1.439
12161WAT    EPW49366   0.447   1.285   1.430
12162WAT      O49367   1.367   1.174   1.130
12162WAT     H149368   1.434   1.228   1.143
12162WAT     H249369   1.317   1.216   1.073
12162WAT    EPW49370   1.370   1.188   1.124
12163WAT      O49371   0.504   2.662   1.887
12163WAT     H149372   0.563   2.705   1.934
12163WAT     H249373   0.467   2.724   1.838
12163WAT    EPW49374   0.507   2.677   1.886
12164WAT      O49375   1.303   1.755   0.880
12164WAT     H149376   1.358   1.694   0.910
12164WAT     H249377   1.260   1.781   0.951
12164WAT    EPW49378   1.305   1.750   0.895
12165WAT      O49379   0.328   1.620   0.828
12165WAT     H149380   0.291   1.650   0.901
12165WAT     H249381   0.381   1.557   0.857
12165WAT    EPW49382   0.330   1.615   0.843
12166WAT      O49383   0.297   2.461   1.579
12166WAT     H149384   0.239   2.502   1.630
12166WAT     H249385   0.370   2.507   1.589
12166WAT    EPW49386   0.299   2.474   1.588
12167WAT      O49387   1.500   1.938   0.536
12167WAT     H149388   1.507   1.853   0.554
12167WAT     H249389   1.418   1.946   0.508
12167WAT    EPW49390   1.489   1.927   0.535
12168WAT      O49391   0.475   2.787   0.457
12168WAT     H149392   0.461   2.803   0.372
12168WAT     H249393   0.562   2.795   0.465
12168WAT    EPW49394   0.486   2.791   0.446
12169WAT      O49395   0.892   2.027   0.430
12169WAT     H149396   0.902   2.041   0.344
12169WAT     H249397   0.974   2.021   0.459
12169WAT    EPW49398   0.905   2.028   0.421
12170WAT      O49399   1.808   2.833   0.178
12170WAT     H149400   1.872   2.820   0.236
12170WAT     H249401   1.774   2.754   0.166
12170WAT    EPW49402   1.812   2.820   0.185
12171WAT      O49403   1.827   2.075   1.851
12171WAT     H149404   1.891   2.058   1.908
12171WAT     H249405   1.869   2.115   1.786
12171WAT    EPW49406   1.843   2.079   1.850
12172WAT      O49407   1.415   2.460   0.410
12172WAT     H149408   1.390   2.447   0.493
12172WAT     H249409   1.384   2.390   0.368
12172WAT    EPW49410   1.407   2.448   0.416
12173WAT      O49411   1.890   1.532   1.925
12173WAT     H149412   1.870   1.596   1.980
12173WAT     H249413   1.818   1.483   1.924
12173WAT    EPW49414   1.876   1.534   1.933
12174WAT      O49415   1.880   1.626   1.222
12174WAT     H149416   1.796   1.651   1.215
12174WAT     H249417   1.874   1.542   1.245
12174WAT    EPW49418   1.867   1.617   1.224
12175WAT      O49419   0.806   1.324   1.741
12175WAT     H149420   0.829   1.267   1.680
12175WAT     H249421   0.722   1.306   1.755
12175WAT    EPW49422   0.797   1.313   1.734
12176WAT      O49423   1.568   2.086   1.987
12176WAT     H149424   1.656   2.083   1.983
12176WAT     H249425   1.547   2.128   1.913
12176WAT    EPW49426   1.578   2.092   1.975
12177WAT      O49427   0.544   2.669   1.105
12177WAT     H149428   0.536   2.588   1.073
12177WAT     H249429   0.499   2.717   1.047
12177WAT    EPW49430   0.536   2.664   1.092
12178WAT      O49431   1.104   2.281   0.353
12178WAT     H149432   1.176   2.246   0.317
12178WAT     H249433   1.101   2.361   0.318
12178WAT    EPW49434   1.114   2.287   0.343
12179WAT      O49435   0.301   2.893   1.463
12179WAT     H149436   0.350   2.888   1.535
12179WAT     H249437   0.320   2.820   1.419
12179WAT    EPW49438   0.311   2.881   1.467
12180WAT      O49439   1.840   0.733   6.143
12180WAT     H149440   1.910   0.681   6.143
12180WAT     H249441   1.781   0.688   6.097
12180WAT    EPW49442   1.842   0.718   6.136
12181WAT      O49443   0.501   0.308   5.910
12181WAT     H149444   0.462   0.271   5.841
12181WAT     H249445   0.493   0.248   5.973
12181WAT    EPW49446   0.494   0.294   5.909
12182WAT      O49447   0.464   0.472   6.300
12182WAT     H149448   0.524   0.455   6.360
12182WAT     H249449   0.388   0.458   6.342
12182WAT    EPW49450   0.461   0.468   6.315
12183WAT      O49451   0.353   0.781   5.908
12183WAT     H149452   0.399   0.790   5.834
12183WAT     H249453   0.398   0.723   5.954
12183WAT    EPW49454   0.366   0.774   5.904
12184WAT      O49455   0.864   0.429   7.524
12184WAT     H149456   0.840   0.428   7.608
12184WAT     H249457   0.789   0.414   7.482
12184WAT    EPW49458   0.849   0.426   7.530
12185WAT      O49459   0.862   0.748   7.250
12185WAT     H149460   0.876   0.824   7.210
12185WAT     H249461   0.941   0.711   7.253
12185WAT    EPW49462   0.876   0.754   7.245
12186WAT      O49463   0.972   0.536   6.701
12186WAT     H149464   1.007   0.456   6.704
12186WAT     H249465   1.038   0.587   6.675
12186WAT    EPW49466   0.987   0.532   6.698
12187WAT      O49467   0.977   0.481   6.322
12187WAT     H149468   1.011   0.417   6.371
12187WAT     H249469   1.001   0.460   6.241
12187WAT    EPW49470   0.986   0.469   6.317
12188WAT      O49471   0.772   0.660   6.277
12188WAT     H149472   0.714   0.632   6.336
12188WAT     H249473   0.834   0.599   6.279
12188WAT    EPW49474   0.773   0.647   6.286
12189WAT      O49475   1.386   0.888   6.029
12189WAT     H149476   1.459   0.936   6.039
12189WAT     H249477   1.409   0.809   6.057
12189WAT    EPW49478   1.400   0.884   6.035
12190WAT      O49479   1.203   0.928   6.228
12190WAT     H149480   1.224   0.980   6.294
12190WAT     H249481   1.280   0.910   6.190
12190WAT    EPW49482   1.217   0.933   6.232
12191WAT      O49483   0.342   0.742   6.322
12191WAT     H149484   0.408   0.685   6.324
12191WAT     H249485   0.381   0.817   6.300
12191WAT    EPW49486   0.358   0.745   6.319
12192WAT      O49487   1.447   0.929   7.059
12192WAT     H149488   1.521   0.974   7.058
12192WAT     H249489   1.435   0.907   6.975
12192WAT    EPW49490   1.456   0.932   7.046
12193WAT      O49491   0.424   0.591   6.672
12193WAT     H149492   0.466   0.555   6.605
12193WAT     H249493   0.457   0.549   6.741
12193WAT    EPW49494   0.435   0.579   6.672
12194WAT      O49495   0.747   0.876   6.602
12194WAT     H149496   0.832   0.887   6.582
12194WAT     H249497   0.718   0.958   6.608
12194WAT    EPW49498   0.755   0.890   6.600
12195WAT      O49499   1.604   1.047   6.069
12195WAT     H149500   1.671   1.032   6.015
12195WAT     H249501   1.640   1.039   6.148
12195WAT    EPW49502   1.619   1.044   6.073
12196WAT      O49503   0.647   0.998   7.176
12196WAT     H149504   0.676   0.991   7.258
12196WAT     H249505   0.584   0.938   7.171
12196WAT    EPW49506   0.642   0.988   7.187
12197WAT      O49507   1.372   0.647   7.429
12197WAT     H149508   1.369   0.685   7.507
12197WAT     H249509   1.458   0.643   7.412
12197WAT    EPW49510   1.384   0.652   7.438
12198WAT      O49511   1.086   0.667   5.904
12198WAT     H149512   1.068   0.721   5.970
12198WAT     H249513   1.163   0.696   5.874
12198WAT    EPW49514   1.095   0.679   5.909
12199WAT      O49515   0.446   0.814   7.088
12199WAT     H149516   0.377   0.763   7.100
12199WAT     H249517   0.472   0.794   7.007
12199WAT    EPW49518   0.440   0.804   7.078
12200WAT      O49519   1.217   0.964   7.179
12200WAT     H149520   1.294   0.956   7.138
12200WAT     H249521   1.159   0.951   7.115
12200WAT    EPW49522   1.220   0.961   7.163
12201WAT      O49523   1.845   1.024   6.469
12201WAT     H149524   1.800   1.096   6.489
12201WAT     H249525   1.784   0.967   6.445
12201WAT    EPW49526   1.829   1.026   6.468
12202WAT      O49527   1.545   0.608   6.423
12202WAT     H149528   1.615   0.560   6.442
12202WAT     H249529   1.479   0.551   6.428
12202WAT    EPW49530   1.545   0.593   6.427
12203WAT      O49531   0.582   0.699   7.345
12203WAT     H149532   0.667   0.706   7.322
12203WAT     H249533   0.579   0.739   7.422
12203WAT    EPW49534   0.594   0.706   7.353
12204WAT      O49535   0.779   0.250   6.819
12204WAT     H149536   0.796   0.229   6.902
12204WAT     H249537   0.713   0.197   6.798
12204WAT    EPW49538   0.772   0.239   6.829
12205WAT      O49539   0.854   0.244   7.078
12205WAT     H149540   0.859   0.329   7.099
12205WAT     H249541   0.825   0.207   7.152
12205WAT    EPW49542   0.850   0.251   7.092
12206WAT      O49543   1.471   0.314   6.991
12206WAT     H149544   1.420   0.273   7.049
12206WAT     H249545   1.459   0.398   7.010
12206WAT    EPW49546   1.462   0.320   7.003
12207WAT      O49547   1.797   0.358   6.004
12207WAT     H149548   1.809   0.329   6.086
12207WAT     H249549   1.877   0.360   5.971
12207WAT    EPW49550   1.810   0.354   6.011
12208WAT      O49551   0.510   0.331   6.537
12208WAT     H149552   0.595   0.323   6.520
12208WAT     H249553   0.475   0.263   6.496
12208WAT    EPW49554   0.518   0.320   6.529
12209WAT      O49555   0.387   1.003   6.661
12209WAT     H149556   0.320   0.954   6.636
12209WAT     H249557   0.427   1.022   6.586
12209WAT    EPW49558   0.383   0.999   6.646
12210WAT      O49559   2.020   0.809   7.430
12210WAT     H149560   1.952   0.840   7.385
12210WAT     H249561   1.983   0.763   7.494
12210WAT    EPW49562   2.005   0.806   7.432
12211WAT      O49563   0.747   0.332   6.361
12211WAT     H149564   0.818   0.381   6.370
12211WAT     H249565   0.769   0.275   6.298
12211WAT    EPW49566   0.761   0.330   6.353
12212WAT      O49567   1.199   0.702   6.593
12212WAT     H149568   1.147   0.765   6.564
12212WAT     H249569   1.230   0.665   6.521
12212WAT    EPW49570   1.196   0.706   6.578
12213WAT      O49571   0.607   0.481   6.869
12213WAT     H149572   0.654   0.510   6.937
12213WAT     H249573   0.664   0.433   6.824
12213WAT    EPW49574   0.622   0.478   6.873
12214WAT      O49575   0.264   0.248   6.724
12214WAT     H149576   0.307   0.235   6.649
12214WAT     H249577   0.243   0.332   6.721
12214WAT    EPW49578   0.267   0.258   6.712
12215WAT      O49579   1.804   0.847   7.239
12215WAT     H149580   1.736   0.898   7.260
12215WAT     H249581   1.810   0.857   7.152
12215WAT    EPW49582   1.795   0.856   7.229
12216WAT      O49583   0.672   0.599   6.552
12216WAT     H149584   0.685   0.684   6.571
12216WAT     H249585   0.739   0.559   6.592
12216WAT    EPW49586   0.684   0.606   6.561
12217WAT      O49587   1.003   0.922   6.998
12217WAT     H149588   0.975   0.858   6.946
12217WAT     H249589   0.982   0.994   6.954
12217WAT    EPW49590   0.996   0.923   6.984
12218WAT      O49591   1.533   0.400   7.441
12218WAT     H149592   1.582   0.472   7.450
12218WAT     H249593   1.573   0.357   7.376
12218WAT    EPW49594   1.546   0.404   7.432
12219WAT      O49595   0.963   0.684   7.558
12219WAT     H149596   0.998   0.667   7.636
12219WAT     H249597   0.919   0.612   7.538
12219WAT    EPW49598   0.962   0.671   7.567
12220WAT      O49599   1.776   0.463   6.448
12220WAT     H149600   1.812   0.428   6.519
12220WAT     H249601   1.775   0.397   6.391
12220WAT    EPW49602   1.781   0.448   6.450
12221WAT      O49603   1.381   0.770   6.832
12221WAT     H149604   1.320   0.740   6.776
12221WAT     H249605   1.435   0.815   6.781
12221WAT    EPW49606   1.380   0.772   6.816
12222WAT      O49607   1.382   0.455   6.772
12222WAT     H149608   1.302   0.477   6.799
12222WAT     H249609   1.408   0.395   6.831
12222WAT    EPW49610   1.374   0.449   6.785
12223WAT      O49611   0.771   0.936   6.217
12223WAT     H149612   0.757   0.858   6.254
12223WAT     H249613   0.840   0.921   6.165
12223WAT    EPW49614   0.779   0.922   6.215
12224WAT      O49615   1.000   0.888   6.057
12224WAT     H149616   1.063   0.904   6.116
12224WAT     H249617   1.004   0.957   6.004
12224WAT    EPW49618   1.010   0.900   6.058
12225WAT      O49619   1.708   0.255   7.257
12225WAT     H149620   1.714   0.267   7.170
12225WAT     H249621   1.783   0.287   7.287
12225WAT    EPW49622   1.720   0.261   7.248
12226WAT      O49623   1.281   0.235   7.217
12226WAT     H149624   1.266   0.296   7.277
12226WAT     H249625   1.335   0.179   7.257
12226WAT    EPW49626   1.287   0.236   7.232
12227WAT      O49627   1.642   0.508   6.869
12227WAT     H149628   1.594   0.538   6.803
12227WAT     H249629   1.607   0.430   6.887
12227WAT    EPW49630   1.630   0.501   6.862
12228WAT      O49631   1.042   0.280   6.726
12228WAT     H149632   0.957   0.260   6.734
12228WAT     H249633   1.074   0.263   6.805
12228WAT    EPW49634   1.034   0.275   6.738
12229WAT      O49635   0.717   0.953   5.814
12229WAT     H149636   0.761   0.883   5.843
12229WAT     H249637   0.738   1.015   5.871
12229WAT    EPW49638   0.727   0.952   5.827
12230WAT      O49639   0.427   0.249   6.957
12230WAT     H149640   0.499   0.298   6.953
12230WAT     H249641   0.400   0.246   6.874
12230WAT    EPW49642   0.433   0.256   6.944
12231WAT      O49643   2.011   0.925   6.063
12231WAT     H149644   2.081   0.878   6.039
12231WAT     H249645   1.957   0.865   6.097
12231WAT    EPW49646   2.014   0.909   6.065
12232WAT      O49647   0.366   0.354   7.385
12232WAT     H149648   0.324   0.303   7.329
12232WAT     H249649   0.331   0.433   7.371
12232WAT    EPW49650   0.355   0.358   7.375
12233WAT      O49651   1.861   0.209   6.725
12233WAT     H149652   1.832   0.249   6.797
12233WAT     H249653   1.947   0.203   6.738
12233WAT    EPW49654   1.869   0.214   6.737
12234WAT      O49655   1.974   0.773   6.778
12234WAT     H149656   2.003   0.798   6.700
12234WAT     H249657   2.043   0.782   6.830
12234WAT    EPW49658   1.989   0.778   6.774
12235WAT      O49659   1.634   0.633   5.976
12235WAT     H149660   1.668   0.552   5.980
12235WAT     H249661   1.559   0.626   6.019
12235WAT    EPW49662   1.628   0.620   5.983
12236WAT      O49663   1.927   0.412   7.317
12236WAT     H149664   1.989   0.357   7.292
12236WAT     H249665   1.921   0.469   7.251
12236WAT    EPW49666   1.935   0.413   7.304
12237WAT      O49667   1.372   0.420   5.916
12237WAT     H149668   1.440   0.369   5.899
12237WAT     H249669   1.330   0.425   5.840
12237WAT    EPW49670   1.376   0.414   5.903
12238WAT      O49671   0.840   0.535   7.047
12238WAT     H149672   0.810   0.595   7.103
12238WAT     H249673   0.846   0.580   6.972
12238WAT    EPW49674   0.836   0.551   7.044
12239WAT      O49675   0.638   0.430   7.387
12239WAT     H149676   0.557   0.401   7.403
12239WAT     H249677   0.629   0.517   7.387
12239WAT    EPW49678   0.625   0.439   7.389
12240WAT      O49679   1.092   0.178   6.996
12240WAT     H149680   1.139   0.215   7.059
12240WAT     H249681   1.009   0.191   7.022
12240WAT    EPW49682   1.087   0.185   7.009
12241WAT      O49683   1.018   0.917   6.519
12241WAT     H149684   1.073   0.985   6.524
12241WAT     H249685   0.983   0.925   6.439
12241WAT    EPW49686   1.021   0.928   6.508
12242WAT      O49687   0.836   0.740   6.858
12242WAT     H149688   0.774   0.798   6.839
12242WAT     H249689   0.861   0.711   6.779
12242WAT    EPW49690   0.831   0.744   6.843
12243WAT      O49691   1.267   0.403   7.556
12243WAT     H149692   1.343   0.432   7.524
12243WAT     H249693   1.213   0.408   7.489
12243WAT    EPW49694   1.270   0.408   7.542
12244WAT      O49695   1.658   0.658   7.407
12244WAT     H149696   1.693   0.685   7.482
12244WAT     H249697   1.688   0.716   7.349
12244WAT    EPW49698   1.668   0.671   7.409
12245WAT      O49699   0.996   0.217   5.849
12245WAT     H149700   0.915   0.200   5.821
12245WAT     H249701   0.992   0.303   5.868
12245WAT    EPW49702   0.983   0.227   5.848
12246WAT      O49703   1.102   0.905   7.446
12246WAT     H149704   1.149   0.845   7.404
12246WAT     H249705   1.067   0.860   7.512
12246WAT    EPW49706   1.104   0.889   7.449
12247WAT      O49707   1.760   0.235   6.264
12247WAT     H149708   1.808   0.163   6.259
12247WAT     H249709   1.678   0.207   6.256
12247WAT    EPW49710   1.755   0.220   6.262
12248WAT      O49711   1.108   0.427   7.348
12248WAT     H149712   1.028   0.420   7.383
12248WAT     H249713   1.115   0.511   7.328
12248WAT    EPW49714   1.097   0.438   7.350
12249WAT      O49715   0.691   1.047   6.879
12249WAT     H149716   0.692   1.053   6.966
12249WAT     H249717   0.648   0.973   6.864
12249WAT    EPW49718   0.684   1.037   6.890
12250WAT      O49719   1.382   0.352   6.499
12250WAT     H149720   1.390   0.386   6.579
12250WAT     H249721   1.399   0.267   6.511
12250WAT    EPW49722   1.386   0.345   6.513
12251WAT      O49723   1.134   0.280   6.456
12251WAT     H149724   1.104   0.248   6.531
12251WAT     H249725   1.204   0.327   6.479
12251WAT    EPW49726   1.140   0.282   6.470
12252WAT      O49727   1.156   0.691   7.258
12252WAT     H149728   1.225   0.680   7.311
12252WAT     H249729   1.170   0.770   7.224
12252WAT    EPW49730   1.169   0.701   7.261
12253WAT      O49731   0.367   0.997   7.423
12253WAT     H149732   0.302   0.940   7.433
12253WAT     H249733   0.329   1.074   7.439
12253WAT    EPW49734   0.352   1.000   7.427
12254WAT      O49735   1.527   0.975   6.709
12254WAT     H149736   1.482   1.039   6.747
12254WAT     H249737   1.598   0.967   6.759
12254WAT    EPW49738   1.531   0.983   6.722
12255WAT      O49739   1.197   0.484   7.002
12255WAT     H149740   1.128   0.524   7.036
12255WAT     H249741   1.265   0.527   7.036
12255WAT    EPW49742   1.197   0.496   7.012
12256WAT      O49743   1.229   0.643   6.319
12256WAT     H149744   1.209   0.727   6.303
12256WAT     H249745   1.152   0.605   6.331
12256WAT    EPW49746   1.215   0.650   6.318
12257WAT      O49747   0.766   0.669   5.959
12257WAT     H149748   0.810   0.677   6.034
12257WAT     H249749   0.685   0.648   5.985
12257WAT    EPW49750   0.760   0.667   5.974
12258WAT      O49751   1.656   0.847   6.317
12258WAT     H149752   1.639   0.781   6.372
12258WAT     H249753   1.728   0.819   6.275
12258WAT    EPW49754   1.664   0.833   6.319
12259WAT      O49755   0.499   0.576   6.020
12259WAT     H149756   0.474   0.546   6.098
12259WAT     H249757   0.495   0.506   5.968
12259WAT    EPW49758   0.494   0.562   6.023
12260WAT      O49759   0.780   0.401   5.894
12260WAT     H149760   0.699   0.374   5.908
12260WAT     H249761   0.778   0.486   5.912
12260WAT    EPW49762   0.768   0.410   5.899
12261WAT      O49763   1.424   0.592   7.086
12261WAT     H149764   1.445   0.622   7.165
12261WAT     H249765   1.418   0.664   7.037
12261WAT    EPW49766   1.426   0.607   7.090
12262WAT      O49767   1.377   1.013   7.511
12262WAT     H149768   1.302   1.011   7.466
12262WAT     H249769   1.394   1.098   7.519
12262WAT    EPW49770   1.369   1.026   7.505
12263WAT      O49771   1.905   0.456   7.032
12263WAT     H149772   1.902   0.370   7.018
12263WAT     H249773   1.836   0.486   6.988
12263WAT    EPW49774   1.894   0.447   7.023
12264WAT      O49775   0.745   0.976   7.452
12264WAT     H149776   0.749   0.988   7.539
12264WAT     H249777   0.810   0.920   7.437
12264WAT    EPW49778   0.755   0.969   7.463
12265WAT      O49779   1.716   0.782   6.911
12265WAT     H149780   1.768   0.773   6.842
12265WAT     H249781   1.677   0.704   6.917
12265WAT    EPW49782   1.718   0.769   6.902
12266WAT      O49783   0.504   0.814   7.588
12266WAT     H149784   0.563   0.857   7.636
12266WAT     H249785   0.467   0.876   7.539
12266WAT    EPW49786   0.507   0.829   7.588
12267WAT      O49787   0.297   0.613   7.281
12267WAT     H149788   0.239   0.654   7.332
12267WAT     H249789   0.370   0.659   7.291
12267WAT    EPW49790   0.299   0.626   7.290
12268WAT      O49791   0.475   0.939   6.159
12268WAT     H149792   0.461   0.955   6.074
12268WAT     H249793   0.562   0.947   6.167
12268WAT    EPW49794   0.486   0.943   6.147
12269WAT      O49795   0.892   0.179   6.132
12269WAT     H149796   0.902   0.193   6.046
12269WAT     H249797   0.974   0.173   6.161
12269WAT    EPW49798   0.905   0.180   6.123
12270WAT      O49799   1.808   0.986   5.880
12270WAT     H149800   1.872   0.972   5.938
12270WAT     H249801   1.774   0.906   5.868
12270WAT    EPW49802   1.812   0.972   5.886
12271WAT      O49803   1.827   0.227   7.553
12271WAT     H149804   1.891   0.210   7.610
12271WAT     H249805   1.869   0.268   7.488
12271WAT    EPW49806   1.843   0.231   7.552
12272WAT      O49807   1.415   0.612   6.112
12272WAT     H149808   1.390   0.599   6.194
12272WAT     H249809   1.384   0.543   6.070
12272WAT    EPW49810   1.407   0.600   6.118
12273WAT      O49811   1.568   0.238   7.688
12273WAT     H149812   1.656   0.235   7.685
12273WAT     H249813   1.547   0.280   7.615
12273WAT    EPW49814   1.578   0.244   7.677
12274WAT      O49815   0.544   0.821   6.806
12274WAT     H149816   0.536   0.740   6.775
12274WAT     H249817   0.499   0.870   6.749
12274WAT    EPW49818   0.536   0.816   6.793
12275WAT      O49819   1.104   0.433   6.055
12275WAT     H149820   1.176   0.398   6.019
12275WAT     H249821   1.101   0.513   6.020
12275WAT    EPW49822   1.114   0.440   6.044
12276WAT      O49823   0.301   1.045   7.165
12276WAT     H149824   0.350   1.040   7.236
12276WAT     H249825   0.320   0.972   7.121
12276WAT    EPW49826   0.311   1.034   7.169
12277WAT      O49827   1.840   0.733   4.243
12277WAT     H149828   1.910   0.681   4.242
12277WAT     H249829   1.781   0.688   4.196
12277WAT    EPW49830   1.842   0.718   4.236
12278WAT      O49831   0.501   0.308   4.009
12278WAT     H149832   0.462   0.271   3.941
12278WAT     H249833   0.493   0.248   4.072
12278WAT    EPW49834   0.494   0.294   4.008
12279WAT      O49835   0.464   0.472   4.399
12279WAT     H149836   0.524   0.455   4.460
12279WAT     H249837   0.388   0.458   4.441
12279WAT    EPW49838   0.461   0.468   4.414
12280WAT      O49839   0.353   0.781   4.007
12280WAT     H149840   0.399   0.790   3.934
12280WAT     H249841   0.398   0.723   4.054
12280WAT    EPW49842   0.366   0.774   4.003
12281WAT      O49843   0.864   0.429   5.624
12281WAT     H149844   0.840   0.428   5.708
12281WAT     H249845   0.789   0.414   5.581
12281WAT    EPW49846   0.849   0.426   5.630
12282WAT      O49847   0.862   0.748   5.350
12282WAT     H149848   0.876   0.824   5.309
12282WAT     H249849   0.941   0.711   5.353
12282WAT    EPW49850   0.876   0.754   5.344
12283WAT      O49851   0.972   0.536   4.800
12283WAT     H149852   1.007   0.456   4.803
12283WAT     H249853   1.038   0.587   4.775
12283WAT    EPW49854   0.987   0.532   4.797
12284WAT      O49855   0.977   0.481   4.421
12284WAT     H149856   1.011   0.417   4.470
12284WAT     H249857   1.001   0.460   4.340
12284WAT    EPW49858   0.986   0.469   4.417
12285WAT      O49859   0.772   0.660   4.376
12285WAT     H149860   0.714   0.632   4.436
12285WAT     H249861   0.834   0.599   4.379
12285WAT    EPW49862   0.773   0.647   4.385
12286WAT      O49863   1.386   0.888   4.129
12286WAT     H149864   1.459   0.936   4.139
12286WAT     H249865   1.409   0.809   4.157
12286WAT    EPW49866   1.400   0.884   4.134
12287WAT      O49867   1.203   0.928   4.328
12287WAT     H149868   1.224   0.980   4.394
12287WAT     H249869   1.280   0.910   4.290
12287WAT    EPW49870   1.217   0.933   4.332
12288WAT      O49871   0.342   0.742   4.421
12288WAT     H149872   0.408   0.685   4.423
12288WAT     H249873   0.381   0.817   4.399
12288WAT    EPW49874   0.358   0.745   4.418
12289WAT      O49875   1.447   0.929   5.158
12289WAT     H149876   1.521   0.974   5.157
12289WAT     H249877   1.435   0.907   5.074
12289WAT    EPW49878   1.456   0.932   5.146
12290WAT      O49879   0.424   0.591   4.771
12290WAT     H149880   0.466   0.555   4.704
12290WAT     H249881   0.457   0.549   4.841
12290WAT    EPW49882   0.435   0.579   4.772
12291WAT      O49883   0.747   0.876   4.701
12291WAT     H149884   0.832   0.887   4.682
12291WAT     H249885   0.718   0.958   4.708
12291WAT    EPW49886   0.755   0.890   4.699
12292WAT      O49887   1.604   1.047   4.169
12292WAT     H149888   1.671   1.032   4.114
12292WAT     H249889   1.640   1.039   4.248
12292WAT    EPW49890   1.619   1.044   4.172
12293WAT      O49891   0.647   0.998   5.275
12293WAT     H149892   0.676   0.991   5.357
12293WAT     H249893   0.584   0.938   5.271
12293WAT    EPW49894   0.642   0.988   5.287
12294WAT      O49895   1.372   0.647   5.528
12294WAT     H149896   1.369   0.685   5.607
12294WAT     H249897   1.458   0.643   5.511
12294WAT    EPW49898   1.384   0.652   5.538
12295WAT      O49899   1.086   0.667   4.003
12295WAT     H149900   1.068   0.721   4.069
12295WAT     H249901   1.163   0.696   3.973
12295WAT    EPW49902   1.095   0.679   4.009
12296WAT      O49903   0.446   0.814   5.187
12296WAT     H149904   0.377   0.763   5.200
12296WAT     H249905   0.472   0.794   5.106
12296WAT    EPW49906   0.440   0.804   5.177
12297WAT      O49907   1.217   0.964   5.278
12297WAT     H149908   1.294   0.956   5.238
12297WAT     H249909   1.159   0.951   5.214
12297WAT    EPW49910   1.220   0.961   5.263
12298WAT      O49911   1.845   1.024   4.568
12298WAT     H149912   1.800   1.096   4.588
12298WAT     H249913   1.784   0.967   4.544
12298WAT    EPW49914   1.829   1.026   4.568
12299WAT      O49915   1.545   0.608   4.523
12299WAT     H149916   1.615   0.560   4.542
12299WAT     H249917   1.479   0.551   4.527
12299WAT    EPW49918   1.545   0.593   4.526
12300WAT      O49919   0.582   0.699   5.444
12300WAT     H149920   0.667   0.706   5.422
12300WAT     H249921   0.579   0.739   5.522
12300WAT    EPW49922   0.594   0.706   5.452
12301WAT      O49923   0.779   0.250   4.919
12301WAT     H149924   0.796   0.229   5.002
12301WAT     H249925   0.713   0.197   4.897
12301WAT    EPW49926   0.772   0.239   4.928
12302WAT      O49927   0.854   0.244   5.178
12302WAT     H149928   0.859   0.329   5.198
12302WAT     H249929   0.825   0.207   5.252
12302WAT    EPW49930   0.850   0.251   5.192
12303WAT      O49931   1.471   0.314   5.091
12303WAT     H149932   1.420   0.273   5.148
12303WAT     H249933   1.459   0.398   5.109
12303WAT    EPW49934   1.462   0.320   5.102
12304WAT      O49935   1.797   0.358   4.104
12304WAT     H149936   1.809   0.329   4.185
12304WAT     H249937   1.877   0.360   4.071
12304WAT    EPW49938   1.810   0.354   4.111
12305WAT      O49939   0.510   0.331   4.637
12305WAT     H149940   0.595   0.323   4.619
12305WAT     H249941   0.475   0.263   4.595
12305WAT    EPW49942   0.518   0.320   4.628
12306WAT      O49943   0.387   1.003   4.760
12306WAT     H149944   0.320   0.954   4.736
12306WAT     H249945   0.427   1.022   4.685
12306WAT    EPW49946   0.383   0.999   4.746
12307WAT      O49947   2.020   0.809   5.529
12307WAT     H149948   1.952   0.840   5.484
12307WAT     H249949   1.983   0.763   5.593
12307WAT    EPW49950   2.005   0.806   5.532
12308WAT      O49951   0.747   0.332   4.460
12308WAT     H149952   0.818   0.381   4.469
12308WAT     H249953   0.769   0.275   4.398
12308WAT    EPW49954   0.761   0.330   4.452
12309WAT      O49955   1.199   0.702   4.693
12309WAT     H149956   1.147   0.765   4.664
12309WAT     H249957   1.230   0.665   4.620
12309WAT    EPW49958   1.196   0.706   4.678
12310WAT      O49959   0.607   0.481   4.969
12310WAT     H149960   0.654   0.510   5.037
12310WAT     H249961   0.664   0.433   4.923
12310WAT    EPW49962   0.622   0.478   4.972
12311WAT      O49963   0.264   0.248   4.823
12311WAT     H149964   0.307   0.235   4.749
12311WAT     H249965   0.243   0.332   4.821
12311WAT    EPW49966   0.267   0.258   4.812
12312WAT      O49967   1.804   0.847   5.338
12312WAT     H149968   1.736   0.898   5.360
12312WAT     H249969   1.810   0.857   5.252
12312WAT    EPW49970   1.795   0.856   5.328
12313WAT      O49971   0.672   0.599   4.651
12313WAT     H149972   0.685   0.684   4.670
12313WAT     H249973   0.739   0.559   4.691
12313WAT    EPW49974   0.684   0.606   4.660
12314WAT      O49975   1.003   0.922   5.098
12314WAT     H149976   0.975   0.858   5.045
12314WAT     H249977   0.982   0.994   5.054
12314WAT    EPW49978   0.996   0.923   5.083
12315WAT      O49979   1.533   0.400   5.540
12315WAT     H149980   1.582   0.472   5.550
12315WAT     H249981   1.573   0.357   5.475
12315WAT    EPW49982   1.546   0.404   5.532
12316WAT      O49983   0.963   0.684   5.658
12316WAT     H149984   0.998   0.667   5.735
12316WAT     H249985   0.919   0.612   5.638
12316WAT    EPW49986   0.962   0.671   5.666
12317WAT      O49987   1.776   0.463   4.547
12317WAT     H149988   1.812   0.428   4.619
12317WAT     H249989   1.775   0.397   4.490
12317WAT    EPW49990   1.781   0.448   4.549
12318WAT      O49991   1.381   0.770   4.931
12318WAT     H149992   1.320   0.740   4.876
12318WAT     H249993   1.435   0.815   4.881
12318WAT    EPW49994   1.380   0.772   4.916
12319WAT      O49995   1.382   0.455   4.871
12319WAT     H149996   1.302   0.477   4.899
12319WAT     H249997   1.408   0.395   4.930
12319WAT    EPW49998   1.374   0.449   4.884
12320WAT      O49999   0.771   0.936   4.316
12320WAT     H150000   0.757   0.858   4.353
12320WAT     H250001   0.840   0.921   4.265
12320WAT    EPW50002   0.779   0.922   4.314
12321WAT      O50003   1.000   0.888   4.156
12321WAT     H150004   1.063   0.904   4.215
12321WAT     H250005   1.004   0.957   4.103
12321WAT    EPW50006   1.010   0.900   4.157
12322WAT      O50007   1.708   0.255   5.356
12322WAT     H150008   1.714   0.267   5.270
12322WAT     H250009   1.783   0.287   5.386
12322WAT    EPW50010   1.720   0.261   5.348
12323WAT      O50011   1.327   0.789   5.784
12323WAT     H150012   1.344   0.818   5.865
12323WAT     H250013   1.353   0.856   5.733
12323WAT    EPW50014   1.333   0.803   5.788
12324WAT      O50015   1.281   0.235   5.316
12324WAT     H150016   1.266   0.296   5.376
12324WAT     H250017   1.335   0.179   5.357
12324WAT    EPW50018   1.287   0.236   5.331
12325WAT      O50019   1.642   0.508   4.969
12325WAT     H150020   1.594   0.538   4.902
12325WAT     H250021   1.607   0.430   4.987
12325WAT    EPW50022   1.630   0.501   4.962
12326WAT      O50023   1.042   0.280   4.825
12326WAT     H150024   0.957   0.260   4.833
12326WAT     H250025   1.074   0.263   4.904
12326WAT    EPW50026   1.034   0.275   4.838
12327WAT      O50027   0.717   0.953   3.914
12327WAT     H150028   0.761   0.883   3.942
12327WAT     H250029   0.738   1.015   3.971
12327WAT    EPW50030   0.727   0.952   3.926
12328WAT      O50031   0.427   0.249   5.057
12328WAT     H150032   0.499   0.298   5.053
12328WAT     H250033   0.400   0.246   4.974
12328WAT    EPW50034   0.433   0.256   5.044
12329WAT      O50035   2.011   0.925   4.163
12329WAT     H150036   2.081   0.878   4.138
12329WAT     H250037   1.957   0.865   4.196
12329WAT    EPW50038   2.014   0.909   4.164
12330WAT      O50039   0.366   0.354   5.484
12330WAT     H150040   0.324   0.303   5.428
12330WAT     H250041   0.331   0.433   5.470
12330WAT    EPW50042   0.355   0.358   5.474
12331WAT      O50043   1.861   0.209   4.824
12331WAT     H150044   1.832   0.249   4.896
12331WAT     H250045   1.947   0.203   4.837
12331WAT    EPW50046   1.869   0.214   4.837
12332WAT      O50047   1.974   0.773   4.877
12332WAT     H150048   2.003   0.798   4.799
12332WAT     H250049   2.043   0.782   4.929
12332WAT    EPW50050   1.989   0.778   4.873
12333WAT      O50051   1.634   0.633   4.075
12333WAT     H150052   1.668   0.552   4.079
12333WAT     H250053   1.559   0.626   4.118
12333WAT    EPW50054   1.628   0.620   4.082
12334WAT      O50055   1.927   0.412   5.417
12334WAT     H150056   1.989   0.357   5.391
12334WAT     H250057   1.921   0.469   5.350
12334WAT    EPW50058   1.935   0.413   5.403
12335WAT      O50059   1.372   0.420   4.016
12335WAT     H150060   1.440   0.369   3.999
12335WAT     H250061   1.330   0.425   3.939
12335WAT    EPW50062   1.376   0.414   4.002
12336WAT      O50063   0.840   0.535   5.146
12336WAT     H150064   0.810   0.595   5.203
12336WAT     H250065   0.846   0.580   5.071
12336WAT    EPW50066   0.836   0.551   5.143
12337WAT      O50067   0.638   0.430   5.486
12337WAT     H150068   0.557   0.401   5.503
12337WAT     H250069   0.629   0.517   5.487
12337WAT    EPW50070   0.625   0.439   5.488
12338WAT      O50071   1.092   0.178   5.095
12338WAT     H150072   1.139   0.215   5.158
12338WAT     H250073   1.009   0.191   5.121
12338WAT    EPW50074   1.087   0.185   5.108
12339WAT      O50075   1.018   0.917   4.618
12339WAT     H150076   1.073   0.985   4.623
12339WAT     H250077   0.983   0.925   4.539
12339WAT    EPW50078   1.021   0.928   4.607
12340WAT      O50079   0.836   0.740   4.957
12340WAT     H150080   0.774   0.798   4.939
12340WAT     H250081   0.861   0.711   4.878
12340WAT    EPW50082   0.831   0.744   4.943
12341WAT      O50083   1.267   0.403   5.656
12341WAT     H150084   1.343   0.432   5.623
12341WAT     H250085   1.213   0.408   5.588
12341WAT    EPW50086   1.270   0.408   5.641
12342WAT      O50087   1.658   0.658   5.506
12342WAT     H150088   1.693   0.685   5.582
12342WAT     H250089   1.688   0.716   5.448
12342WAT    EPW50090   1.668   0.671   5.509
12343WAT      O50091   0.996   0.217   3.948
12343WAT     H150092   0.915   0.200   3.920
12343WAT     H250093   0.992   0.303   3.968
12343WAT    EPW50094   0.983   0.227   3.947
12344WAT      O50095   1.102   0.905   5.545
12344WAT     H150096   1.149   0.845   5.503
12344WAT     H250097   1.067   0.860   5.611
12344WAT    EPW50098   1.104   0.889   5.549
12345WAT      O50099   1.760   0.235   4.363
12345WAT     H150100   1.808   0.163   4.358
12345WAT     H250101   1.678   0.207   4.355
12345WAT    EPW50102   1.755   0.220   4.361
12346WAT      O50103   1.108   0.427   5.447
12346WAT     H150104   1.028   0.420   5.482
12346WAT     H250105   1.115   0.511   5.427
12346WAT    EPW50106   1.097   0.438   5.449
12347WAT      O50107   0.691   1.047   4.979
12347WAT     H150108   0.692   1.053   5.066
12347WAT     H250109   0.648   0.973   4.964
12347WAT    EPW50110   0.684   1.037   4.989
12348WAT      O50111   1.382   0.352   4.599
12348WAT     H150112   1.390   0.386   4.678
12348WAT     H250113   1.399   0.267   4.611
12348WAT    EPW50114   1.386   0.345   4.612
12349WAT      O50115   1.134   0.280   4.555
12349WAT     H150116   1.104   0.248   4.631
12349WAT     H250117   1.204   0.327   4.579
12349WAT    EPW50118   1.140   0.282   4.570
12350WAT      O50119   1.156   0.691   5.358
12350WAT     H150120   1.225   0.680   5.410
12350WAT     H250121   1.170   0.770   5.323
12350WAT    EPW50122   1.169   0.701   5.360
12351WAT      O50123   0.367   0.997   5.523
12351WAT     H150124   0.302   0.940   5.533
12351WAT     H250125   0.329   1.074   5.538
12351WAT    EPW50126   0.352   1.000   5.527
12352WAT      O50127   1.527   0.975   4.808
12352WAT     H150128   1.482   1.039   4.846
12352WAT     H250129   1.598   0.967   4.859
12352WAT    EPW50130   1.531   0.983   4.821
12353WAT      O50131   1.197   0.484   5.101
12353WAT     H150132   1.128   0.524   5.135
12353WAT     H250133   1.265   0.527   5.135
12353WAT    EPW50134   1.197   0.496   5.111
12354WAT      O50135   1.735   0.743   5.759
12354WAT     H150136   1.813   0.704   5.767
12354WAT     H250137   1.688   0.710   5.825
12354WAT    EPW50138   1.739   0.733   5.770
12355WAT      O50139   1.229   0.643   4.418
12355WAT     H150140   1.209   0.727   4.402
12355WAT     H250141   1.152   0.605   4.430
12355WAT    EPW50142   1.215   0.650   4.417
12356WAT      O50143   0.766   0.669   4.059
12356WAT     H150144   0.810   0.677   4.134
12356WAT     H250145   0.685   0.648   4.085
12356WAT    EPW50146   0.760   0.667   4.074
12357WAT      O50147   1.656   0.847   4.416
12357WAT     H150148   1.639   0.781   4.471
12357WAT     H250149   1.728   0.819   4.374
12357WAT    EPW50150   1.664   0.833   4.418
12358WAT      O50151   0.499   0.576   4.119
12358WAT     H150152   0.474   0.546   4.197
12358WAT     H250153   0.495   0.506   4.067
12358WAT    EPW50154   0.494   0.562   4.123
12359WAT      O50155   0.780   0.401   3.993
12359WAT     H150156   0.699   0.374   4.007
12359WAT     H250157   0.778   0.486   4.012
12359WAT    EPW50158   0.768   0.410   3.998
12360WAT      O50159   1.424   0.592   5.185
12360WAT     H150160   1.445   0.622   5.265
12360WAT     H250161   1.418   0.664   5.137
12360WAT    EPW50162   1.426   0.607   5.190
12361WAT      O50163   1.377   1.013   5.610
12361WAT     H150164   1.302   1.011   5.566
12361WAT     H250165   1.394   1.098   5.618
12361WAT    EPW50166   1.369   1.026   5.605
12362WAT      O50167   1.905   0.456   5.131
12362WAT     H150168   1.902   0.370   5.118
12362WAT     H250169   1.836   0.486   5.088
12362WAT    EPW50170   1.894   0.447   5.123
12363WAT      O50171   0.745   0.976   5.552
12363WAT     H150172   0.749   0.988   5.638
12363WAT     H250173   0.810   0.920   5.536
12363WAT    EPW50174   0.755   0.969   5.562
12364WAT      O50175   1.716   0.782   5.011
12364WAT     H150176   1.768   0.773   4.942
12364WAT     H250177   1.677   0.704   5.016
12364WAT    EPW50178   1.718   0.769   5.001
12365WAT      O50179   0.504   0.814   5.688
12365WAT     H150180   0.563   0.857   5.735
12365WAT     H250181   0.467   0.876   5.639
12365WAT    EPW50182   0.507   0.829   5.687
12366WAT      O50183   0.297   0.613   5.381
12366WAT     H150184   0.239   0.654   5.432
12366WAT     H250185   0.370   0.659   5.390
12366WAT    EPW50186   0.299   0.626   5.390
12367WAT      O50187   0.475   0.939   4.258
12367WAT     H150188   0.461   0.955   4.174
12367WAT     H250189   0.562   0.947   4.266
12367WAT    EPW50190   0.486   0.943   4.247
12368WAT      O50191   0.892   0.179   4.231
12368WAT     H150192   0.902   0.193   4.145
12368WAT     H250193   0.974   0.173   4.261
12368WAT    EPW50194   0.905   0.180   4.223
12369WAT      O50195   1.808   0.986   3.979
12369WAT     H150196   1.872   0.972   4.037
12369WAT     H250197   1.774   0.906   3.967
12369WAT    EPW50198   1.812   0.972   3.986
12370WAT      O50199   1.827   0.227   5.652
12370WAT     H150200   1.891   0.210   5.710
12370WAT     H250201   1.869   0.268   5.587
12370WAT    EPW50202   1.843   0.231   5.651
12371WAT      O50203   1.415   0.612   4.211
12371WAT     H150204   1.390   0.599   4.294
12371WAT     H250205   1.384   0.543   4.169
12371WAT    EPW50206   1.407   0.600   4.217
12372WAT      O50207   1.568   0.238   5.788
12372WAT     H150208   1.656   0.235   5.784
12372WAT     H250209   1.547   0.280   5.715
12372WAT    EPW50210   1.578   0.244   5.776
12373WAT      O50211   0.544   0.821   4.906
12373WAT     H150212   0.536   0.740   4.874
12373WAT     H250213   0.499   0.870   4.849
12373WAT    EPW50214   0.536   0.816   4.893
12374WAT      O50215   1.104   0.433   4.154
12374WAT     H150216   1.176   0.398   4.119
12374WAT     H250217   1.101   0.513   4.119
12374WAT    EPW50218   1.114   0.440   4.144
12375WAT      O50219   0.301   1.045   5.264
12375WAT     H150220   0.350   1.040   5.336
12375WAT     H250221   0.320   0.972   5.220
12375WAT    EPW50222   0.311   1.034   5.268
12376WAT      O50223   1.840   0.733   2.342
12376WAT     H150224   1.910   0.681   2.342
12376WAT     H250225   1.781   0.688   2.295
12376WAT    EPW50226   1.842   0.718   2.335
12377WAT      O50227   0.501   0.308   2.109
12377WAT     H150228   0.462   0.271   2.040
12377WAT     H250229   0.493   0.248   2.172
12377WAT    EPW50230   0.494   0.294   2.108
12378WAT      O50231   0.464   0.472   2.499
12378WAT     H150232   0.524   0.455   2.559
12378WAT     H250233   0.388   0.458   2.541
12378WAT    EPW50234   0.461   0.468   2.514
12379WAT      O50235   0.353   0.781   2.106
12379WAT     H150236   0.399   0.790   2.033
12379WAT     H250237   0.398   0.723   2.153
12379WAT    EPW50238   0.366   0.774   2.102
12380WAT      O50239   0.864   0.429   3.723
12380WAT     H150240   0.840   0.428   3.807
12380WAT     H250241   0.789   0.414   3.681
12380WAT    EPW50242   0.849   0.426   3.729
12381WAT      O50243   0.862   0.748   3.449
12381WAT     H150244   0.876   0.824   3.409
12381WAT     H250245   0.941   0.711   3.452
12381WAT    EPW50246   0.876   0.754   3.444
12382WAT      O50247   0.972   0.536   2.900
12382WAT     H150248   1.007   0.456   2.903
12382WAT     H250249   1.038   0.587   2.874
12382WAT    EPW50250   0.987   0.532   2.896
12383WAT      O50251   0.977   0.481   2.521
12383WAT     H150252   1.011   0.417   2.569
12383WAT     H250253   1.001   0.460   2.440
12383WAT    EPW50254   0.986   0.469   2.516
12384WAT      O50255   0.772   0.660   2.476
12384WAT     H150256   0.714   0.632   2.535
12384WAT     H250257   0.834   0.599   2.478
12384WAT    EPW50258   0.773   0.647   2.485
12385WAT      O50259   1.386   0.888   2.228
12385WAT     H150260   1.459   0.936   2.238
12385WAT     H250261   1.409   0.809   2.256
12385WAT    EPW50262   1.400   0.884   2.234
12386WAT      O50263   1.203   0.928   2.427
12386WAT     H150264   1.224   0.980   2.493
12386WAT     H250265   1.280   0.910   2.389
12386WAT    EPW50266   1.217   0.933   2.431
12387WAT      O50267   0.342   0.742   2.521
12387WAT     H150268   0.408   0.685   2.522
12387WAT     H250269   0.381   0.817   2.499
12387WAT    EPW50270   0.358   0.745   2.518
12388WAT      O50271   1.447   0.929   3.257
12388WAT     H150272   1.521   0.974   3.256
12388WAT     H250273   1.435   0.907   3.174
12388WAT    EPW50274   1.456   0.932   3.245
12389WAT      O50275   0.424   0.591   2.871
12389WAT     H150276   0.466   0.555   2.803
12389WAT     H250277   0.457   0.549   2.940
12389WAT    EPW50278   0.435   0.579   2.871
12390WAT      O50279   0.747   0.876   2.800
12390WAT     H150280   0.832   0.887   2.781
12390WAT     H250281   0.718   0.958   2.807
12390WAT    EPW50282   0.755   0.890   2.799
12391WAT      O50283   1.604   1.047   2.268
12391WAT     H150284   1.671   1.032   2.213
12391WAT     H250285   1.640   1.039   2.347
12391WAT    EPW50286   1.619   1.044   2.272
12392WAT      O50287   0.647   0.998   3.374
12392WAT     H150288   0.676   0.991   3.456
12392WAT     H250289   0.584   0.938   3.370
12392WAT    EPW50290   0.642   0.988   3.386
12393WAT      O50291   1.372   0.647   3.628
12393WAT     H150292   1.369   0.685   3.706
12393WAT     H250293   1.458   0.643   3.611
12393WAT    EPW50294   1.384   0.652   3.637
12394WAT      O50295   1.086   0.667   2.103
12394WAT     H150296   1.068   0.721   2.169
12394WAT     H250297   1.163   0.696   2.073
12394WAT    EPW50298   1.095   0.679   2.108
12395WAT      O50299   0.446   0.814   3.287
12395WAT     H150300   0.377   0.763   3.299
12395WAT     H250301   0.472   0.794   3.206
12395WAT    EPW50302   0.440   0.804   3.277
12396WAT      O50303   1.217   0.964   3.378
12396WAT     H150304   1.294   0.956   3.337
12396WAT     H250305   1.159   0.951   3.314
12396WAT    EPW50306   1.220   0.961   3.362
12397WAT      O50307   1.845   1.024   2.668
12397WAT     H150308   1.800   1.096   2.688
12397WAT     H250309   1.784   0.967   2.644
12397WAT    EPW50310   1.829   1.026   2.667
12398WAT      O50311   1.545   0.608   2.622
12398WAT     H150312   1.615   0.560   2.641
12398WAT     H250313   1.479   0.551   2.627
12398WAT    EPW50314   1.545   0.593   2.626
12399WAT      O50315   0.582   0.699   3.543
12399WAT     H150316   0.667   0.706   3.521
12399WAT     H250317   0.579   0.739   3.621
12399WAT    EPW50318   0.594   0.706   3.552
12400WAT      O50319   0.779   0.250   3.018
12400WAT     H150320   0.796   0.229   3.101
12400WAT     H250321   0.713   0.197   2.997
12400WAT    EPW50322   0.772   0.239   3.027
12401WAT      O50323   0.854   0.244   3.277
12401WAT     H150324   0.859   0.329   3.297
12401WAT     H250325   0.825   0.207   3.351
12401WAT    EPW50326   0.850   0.251   3.291
12402WAT      O50327   1.471   0.314   3.190
12402WAT     H150328   1.420   0.273   3.247
12402WAT     H250329   1.459   0.398   3.208
12402WAT    EPW50330   1.462   0.320   3.201
12403WAT      O50331   1.797   0.358   2.203
12403WAT     H150332   1.809   0.329   2.284
12403WAT     H250333   1.877   0.360   2.170
12403WAT    EPW50334   1.810   0.354   2.210
12404WAT      O50335   0.510   0.331   2.736
12404WAT     H150336   0.595   0.323   2.719
12404WAT     H250337   0.475   0.263   2.695
12404WAT    EPW50338   0.518   0.320   2.727
12405WAT      O50339   0.387   1.003   2.860
12405WAT     H150340   0.320   0.954   2.835
12405WAT     H250341   0.427   1.022   2.785
12405WAT    EPW50342   0.383   0.999   2.845
12406WAT      O50343   2.020   0.809   3.628
12406WAT     H150344   1.952   0.840   3.584
12406WAT     H250345   1.983   0.763   3.693
12406WAT    EPW50346   2.005   0.806   3.631
12407WAT      O50347   0.747   0.332   2.560
12407WAT     H150348   0.818   0.381   2.569
12407WAT     H250349   0.769   0.275   2.497
12407WAT    EPW50350   0.761   0.330   2.552
12408WAT      O50351   1.199   0.702   2.792
12408WAT     H150352   1.147   0.765   2.763
12408WAT     H250353   1.230   0.665   2.719
12408WAT    EPW50354   1.196   0.706   2.777
12409WAT      O50355   0.607   0.481   3.068
12409WAT     H150356   0.654   0.510   3.136
12409WAT     H250357   0.664   0.433   3.023
12409WAT    EPW50358   0.622   0.478   3.072
12410WAT      O50359   0.264   0.248   2.923
12410WAT     H150360   0.307   0.235   2.848
12410WAT     H250361   0.243   0.332   2.920
12410WAT    EPW50362   0.267   0.258   2.911
12411WAT      O50363   1.804   0.847   3.437
12411WAT     H150364   1.736   0.898   3.459
12411WAT     H250365   1.810   0.857   3.351
12411WAT    EPW50366   1.795   0.856   3.428
12412WAT      O50367   0.672   0.599   2.751
12412WAT     H150368   0.685   0.684   2.770
12412WAT     H250369   0.739   0.559   2.790
12412WAT    EPW50370   0.684   0.606   2.759
12413WAT      O50371   1.003   0.922   3.197
12413WAT     H150372   0.975   0.858   3.145
12413WAT     H250373   0.982   0.994   3.153
12413WAT    EPW50374   0.996   0.923   3.183
12414WAT      O50375   1.533   0.400   3.639
12414WAT     H150376   1.582   0.472   3.649
12414WAT     H250377   1.573   0.357   3.574
12414WAT    EPW50378   1.546   0.404   3.631
12415WAT      O50379   0.963   0.684   3.757
12415WAT     H150380   0.998   0.667   3.835
12415WAT     H250381   0.919   0.612   3.737
12415WAT    EPW50382   0.962   0.671   3.766
12416WAT      O50383   1.776   0.463   2.646
12416WAT     H150384   1.812   0.428   2.718
12416WAT     H250385   1.775   0.397   2.589
12416WAT    EPW50386   1.781   0.448   2.649
12417WAT      O50387   1.381   0.770   3.031
12417WAT     H150388   1.320   0.740   2.975
12417WAT     H250389   1.435   0.815   2.980
12417WAT    EPW50390   1.380   0.772   3.015
12418WAT      O50391   1.382   0.455   2.971
12418WAT     H150392   1.302   0.477   2.998
12418WAT     H250393   1.408   0.395   3.029
12418WAT    EPW50394   1.374   0.449   2.984
12419WAT      O50395   0.771   0.936   2.416
12419WAT     H150396   0.757   0.858   2.453
12419WAT     H250397   0.840   0.921   2.364
12419WAT    EPW50398   0.779   0.922   2.414
12420WAT      O50399   1.000   0.888   2.256
12420WAT     H150400   1.063   0.904   2.315
12420WAT     H250401   1.004   0.957   2.203
12420WAT    EPW50402   1.010   0.900   2.257
12421WAT      O50403   1.708   0.255   3.455
12421WAT     H150404   1.714   0.267   3.369
12421WAT     H250405   1.783   0.287   3.486
12421WAT    EPW50406   1.720   0.261   3.447
12422WAT      O50407   1.327   0.789   3.883
12422WAT     H150408   1.344   0.818   3.964
12422WAT     H250409   1.353   0.856   3.833
12422WAT    EPW50410   1.333   0.803   3.888
12423WAT      O50411   1.281   0.235   3.415
12423WAT     H150412   1.266   0.296   3.476
12423WAT     H250413   1.335   0.179   3.456
12423WAT    EPW50414   1.287   0.236   3.430
12424WAT      O50415   1.642   0.508   3.068
12424WAT     H150416   1.594   0.538   3.002
12424WAT     H250417   1.607   0.430   3.086
12424WAT    EPW50418   1.630   0.501   3.061
12425WAT      O50419   1.042   0.280   2.924
12425WAT     H150420   0.957   0.260   2.932
12425WAT     H250421   1.074   0.263   3.004
12425WAT    EPW50422   1.034   0.275   2.937
12426WAT      O50423   0.717   0.953   2.013
12426WAT     H150424   0.761   0.883   2.042
12426WAT     H250425   0.738   1.015   2.070
12426WAT    EPW50426   0.727   0.952   2.026
12427WAT      O50427   0.427   0.249   3.156
12427WAT     H150428   0.499   0.298   3.152
12427WAT     H250429   0.400   0.246   3.073
12427WAT    EPW50430   0.433   0.256   3.143
12428WAT      O50431   2.011   0.925   2.262
12428WAT     H150432   2.081   0.878   2.237
12428WAT     H250433   1.957   0.865   2.296
12428WAT    EPW50434   2.014   0.909   2.263
12429WAT      O50435   0.366   0.354   3.584
12429WAT     H150436   0.324   0.303   3.528
12429WAT     H250437   0.331   0.433   3.569
12429WAT    EPW50438   0.355   0.358   3.573
12430WAT      O50439   1.861   0.209   2.924
12430WAT     H150440   1.832   0.249   2.996
12430WAT     H250441   1.947   0.203   2.936
12430WAT    EPW50442   1.869   0.214   2.936
12431WAT      O50443   1.974   0.773   2.977
12431WAT     H150444   2.003   0.798   2.899
12431WAT     H250445   2.043   0.782   3.029
12431WAT    EPW50446   1.989   0.778   2.973
12432WAT      O50447   1.634   0.633   2.175
12432WAT     H150448   1.668   0.552   2.178
12432WAT     H250449   1.559   0.626   2.218
12432WAT    EPW50450   1.628   0.620   2.182
12433WAT      O50451   1.927   0.412   3.516
12433WAT     H150452   1.989   0.357   3.490
12433WAT     H250453   1.921   0.469   3.450
12433WAT    EPW50454   1.935   0.413   3.502
12434WAT      O50455   1.372   0.420   2.115
12434WAT     H150456   1.440   0.369   2.098
12434WAT     H250457   1.330   0.425   2.039
12434WAT    EPW50458   1.376   0.414   2.101
12435WAT      O50459   0.840   0.535   3.246
12435WAT     H150460   0.810   0.595   3.302
12435WAT     H250461   0.846   0.580   3.171
12435WAT    EPW50462   0.836   0.551   3.243
12436WAT      O50463   0.638   0.430   3.585
12436WAT     H150464   0.557   0.401   3.602
12436WAT     H250465   0.629   0.517   3.586
12436WAT    EPW50466   0.625   0.439   3.588
12437WAT      O50467   1.092   0.178   3.195
12437WAT     H150468   1.139   0.215   3.257
12437WAT     H250469   1.009   0.191   3.221
12437WAT    EPW50470   1.087   0.185   3.208
12438WAT      O50471   1.018   0.917   2.717
12438WAT     H150472   1.073   0.985   2.723
12438WAT     H250473   0.983   0.925   2.638
12438WAT    EPW50474   1.021   0.928   2.706
12439WAT      O50475   0.836   0.740   3.056
12439WAT     H150476   0.774   0.798   3.038
12439WAT     H250477   0.861   0.711   2.978
12439WAT    EPW50478   0.831   0.744   3.042
12440WAT      O50479   1.267   0.403   3.755
12440WAT     H150480   1.343   0.432   3.723
12440WAT     H250481   1.213   0.408   3.687
12440WAT    EPW50482   1.270   0.408   3.740
12441WAT      O50483   1.658   0.658   3.606
12441WAT     H150484   1.693   0.685   3.681
12441WAT     H250485   1.688   0.716   3.548
12441WAT    EPW50486   1.668   0.671   3.608
12442WAT      O50487   0.996   0.217   2.048
12442WAT     H150488   0.915   0.200   2.019
12442WAT     H250489   0.992   0.303   2.067
12442WAT    EPW50490   0.983   0.227   2.047
12443WAT      O50491   1.102   0.905   3.644
12443WAT     H150492   1.149   0.845   3.603
12443WAT     H250493   1.067   0.860   3.711
12443WAT    EPW50494   1.104   0.889   3.648
12444WAT      O50495   1.760   0.235   2.462
12444WAT     H150496   1.808   0.163   2.458
12444WAT     H250497   1.678   0.207   2.455
12444WAT    EPW50498   1.755   0.220   2.461
12445WAT      O50499   1.108   0.427   3.546
12445WAT     H150500   1.028   0.420   3.581
12445WAT     H250501   1.115   0.511   3.527
12445WAT    EPW50502   1.097   0.438   3.549
12446WAT      O50503   0.691   1.047   3.078
12446WAT     H150504   0.692   1.053   3.165
12446WAT     H250505   0.648   0.973   3.063
12446WAT    EPW50506   0.684   1.037   3.089
12447WAT      O50507   1.382   0.352   2.698
12447WAT     H150508   1.390   0.386   2.778
12447WAT     H250509   1.399   0.267   2.710
12447WAT    EPW50510   1.386   0.345   2.712
12448WAT      O50511   1.134   0.280   2.654
12448WAT     H150512   1.104   0.248   2.730
12448WAT     H250513   1.204   0.327   2.678
12448WAT    EPW50514   1.140   0.282   2.669
12449WAT      O50515   1.156   0.691   3.457
12449WAT     H150516   1.225   0.680   3.510
12449WAT     H250517   1.170   0.770   3.423
12449WAT    EPW50518   1.169   0.701   3.460
12450WAT      O50519   0.367   0.997   3.622
12450WAT     H150520   0.302   0.940   3.632
12450WAT     H250521   0.329   1.074   3.637
12450WAT    EPW50522   0.352   1.000   3.626
12451WAT      O50523   1.527   0.975   2.907
12451WAT     H150524   1.482   1.039   2.945
12451WAT     H250525   1.598   0.967   2.958
12451WAT    EPW50526   1.531   0.983   2.921
12452WAT      O50527   1.197   0.484   3.200
12452WAT     H150528   1.128   0.524   3.235
12452WAT     H250529   1.265   0.527   3.234
12452WAT    EPW50530   1.197   0.496   3.211
12453WAT      O50531   1.735   0.743   3.858
12453WAT     H150532   1.813   0.704   3.867
12453WAT     H250533   1.688   0.710   3.924
12453WAT    EPW50534   1.739   0.733   3.869
12454WAT      O50535   1.229   0.643   2.517
12454WAT     H150536   1.209   0.727   2.501
12454WAT     H250537   1.152   0.605   2.530
12454WAT    EPW50538   1.215   0.650   2.517
12455WAT      O50539   0.766   0.669   2.158
12455WAT     H150540   0.810   0.677   2.233
12455WAT     H250541   0.685   0.648   2.184
12455WAT    EPW50542   0.760   0.667   2.173
12456WAT      O50543   1.656   0.847   2.516
12456WAT     H150544   1.639   0.781   2.571
12456WAT     H250545   1.728   0.819   2.473
12456WAT    EPW50546   1.664   0.833   2.518
12457WAT      O50547   0.499   0.576   2.218
12457WAT     H150548   0.474   0.546   2.296
12457WAT     H250549   0.495   0.506   2.167
12457WAT    EPW50550   0.494   0.562   2.222
12458WAT      O50551   0.780   0.401   2.093
12458WAT     H150552   0.699   0.374   2.107
12458WAT     H250553   0.778   0.486   2.111
12458WAT    EPW50554   0.768   0.410   2.097
12459WAT      O50555   1.424   0.592   3.285
12459WAT     H150556   1.445   0.622   3.364
12459WAT     H250557   1.418   0.664   3.236
12459WAT    EPW50558   1.426   0.607   3.289
12460WAT      O50559   1.377   1.013   3.709
12460WAT     H150560   1.302   1.011   3.665
12460WAT     H250561   1.394   1.098   3.718
12460WAT    EPW50562   1.369   1.026   3.704
12461WAT      O50563   1.905   0.456   3.231
12461WAT     H150564   1.902   0.370   3.217
12461WAT     H250565   1.836   0.486   3.187
12461WAT    EPW50566   1.894   0.447   3.222
12462WAT      O50567   0.745   0.976   3.651
12462WAT     H150568   0.749   0.988   3.737
12462WAT     H250569   0.810   0.920   3.636
12462WAT    EPW50570   0.755   0.969   3.662
12463WAT      O50571   1.716   0.782   3.110
12463WAT     H150572   1.768   0.773   3.041
12463WAT     H250573   1.677   0.704   3.116
12463WAT    EPW50574   1.718   0.769   3.101
12464WAT      O50575   0.504   0.814   3.787
12464WAT     H150576   0.563   0.857   3.834
12464WAT     H250577   0.467   0.876   3.738
12464WAT    EPW50578   0.507   0.829   3.787
12465WAT      O50579   0.297   0.613   3.480
12465WAT     H150580   0.239   0.654   3.531
12465WAT     H250581   0.370   0.659   3.490
12465WAT    EPW50582   0.299   0.626   3.489
12466WAT      O50583   0.475   0.939   2.358
12466WAT     H150584   0.461   0.955   2.273
12466WAT     H250585   0.562   0.947   2.365
12466WAT    EPW50586   0.486   0.943   2.346
12467WAT      O50587   0.892   0.179   2.330
12467WAT     H150588   0.902   0.193   2.245
12467WAT     H250589   0.974   0.173   2.360
12467WAT    EPW50590   0.905   0.180   2.322
12468WAT      O50591   1.808   0.986   2.078
12468WAT     H150592   1.872   0.972   2.136
12468WAT     H250593   1.774   0.906   2.067
12468WAT    EPW50594   1.812   0.972   2.085
12469WAT      O50595   1.827   0.227   3.752
12469WAT     H150596   1.891   0.210   3.809
12469WAT     H250597   1.869   0.268   3.686
12469WAT    EPW50598   1.843   0.231   3.751
12470WAT      O50599   1.415   0.612   2.311
12470WAT     H150600   1.390   0.599   2.393
12470WAT     H250601   1.384   0.543   2.268
12470WAT    EPW50602   1.407   0.600   2.317
12471WAT      O50603   1.568   0.238   3.887
12471WAT     H150604   1.656   0.235   3.884
12471WAT     H250605   1.547   0.280   3.814
12471WAT    EPW50606   1.578   0.244   3.876
12472WAT      O50607   0.544   0.821   3.005
12472WAT     H150608   0.536   0.740   2.974
12472WAT     H250609   0.499   0.870   2.948
12472WAT    EPW50610   0.536   0.816   2.992
12473WAT      O50611   1.104   0.433   2.254
12473WAT     H150612   1.176   0.398   2.218
12473WAT     H250613   1.101   0.513   2.219
12473WAT    EPW50614   1.114   0.440   2.243
12474WAT      O50615   0.301   1.045   3.363
12474WAT     H150616   0.350   1.040   3.435
12474WAT     H250617   0.320   0.972   3.320
12474WAT    EPW50618   0.311   1.034   3.368
12475WAT      O50619   1.840   0.733   0.442
12475WAT     H150620   1.910   0.681   0.441
12475WAT     H250621   1.781   0.688   0.395
12475WAT    EPW50622   1.842   0.718   0.435
12476WAT      O50623   0.501   0.308   0.208
12476WAT     H150624   0.462   0.271   0.139
12476WAT     H250625   0.493   0.248   0.271
12476WAT    EPW50626   0.494   0.294   0.207
12477WAT      O50627   0.464   0.472   0.598
12477WAT     H150628   0.524   0.455   0.658
12477WAT     H250629   0.388   0.458   0.640
12477WAT    EPW50630   0.461   0.468   0.613
12478WAT      O50631   0.353   0.781   0.206
12478WAT     H150632   0.399   0.790   0.133
12478WAT     H250633   0.398   0.723   0.253
12478WAT    EPW50634   0.366   0.774   0.202
12479WAT      O50635   0.864   0.429   1.822
12479WAT     H150636   0.840   0.428   1.906
12479WAT     H250637   0.789   0.414   1.780
12479WAT    EPW50638   0.849   0.426   1.828
12480WAT      O50639   0.862   0.748   1.549
12480WAT     H150640   0.876   0.824   1.508
12480WAT     H250641   0.941   0.711   1.551
12480WAT    EPW50642   0.876   0.754   1.543
12481WAT      O50643   0.972   0.536   0.999
12481WAT     H150644   1.007   0.456   1.002
12481WAT     H250645   1.038   0.587   0.974
12481WAT    EPW50646   0.987   0.532   0.996
12482WAT      O50647   0.977   0.481   0.620
12482WAT     H150648   1.011   0.417   0.669
12482WAT     H250649   1.001   0.460   0.539
12482WAT    EPW50650   0.986   0.469   0.615
12483WAT      O50651   0.772   0.660   0.575
12483WAT     H150652   0.714   0.632   0.634
12483WAT     H250653   0.834   0.599   0.578
12483WAT    EPW50654   0.773   0.647   0.584
12484WAT      O50655   1.386   0.888   0.327
12484WAT     H150656   1.459   0.936   0.338
12484WAT     H250657   1.409   0.809   0.355
12484WAT    EPW50658   1.400   0.884   0.333
12485WAT      O50659   1.203   0.928   0.526
12485WAT     H150660   1.224   0.980   0.593
12485WAT     H250661   1.280   0.910   0.488
12485WAT    EPW50662   1.217   0.933   0.531
12486WAT      O50663   0.342   0.742   0.620
12486WAT     H150664   0.408   0.685   0.622
12486WAT     H250665   0.381   0.817   0.598
12486WAT    EPW50666   0.358   0.745   0.617
12487WAT      O50667   1.447   0.929   1.357
12487WAT     H150668   1.521   0.974   1.356
12487WAT     H250669   1.435   0.907   1.273
12487WAT    EPW50670   1.456   0.932   1.344
12488WAT      O50671   0.424   0.591   0.970
12488WAT     H150672   0.466   0.555   0.903
12488WAT     H250673   0.457   0.549   1.039
12488WAT    EPW50674   0.435   0.579   0.971
12489WAT      O50675   0.747   0.876   0.900
12489WAT     H150676   0.832   0.887   0.880
12489WAT     H250677   0.718   0.958   0.907
12489WAT    EPW50678   0.755   0.890   0.898
12490WAT      O50679   1.604   1.047   0.367
12490WAT     H150680   1.671   1.032   0.313
12490WAT     H250681   1.640   1.039   0.446
12490WAT    EPW50682   1.619   1.044   0.371
12491WAT      O50683   0.647   0.998   1.474
12491WAT     H150684   0.676   0.991   1.556
12491WAT     H250685   0.584   0.938   1.469
12491WAT    EPW50686   0.642   0.988   1.485
12492WAT      O50687   1.372   0.647   1.727
12492WAT     H150688   1.369   0.685   1.806
12492WAT     H250689   1.458   0.643   1.710
12492WAT    EPW50690   1.384   0.652   1.736
12493WAT      O50691   1.086   0.667   0.202
12493WAT     H150692   1.068   0.721   0.268
12493WAT     H250693   1.163   0.696   0.172
12493WAT    EPW50694   1.095   0.679   0.208
12494WAT      O50695   0.446   0.814   1.386
12494WAT     H150696   0.377   0.763   1.399
12494WAT     H250697   0.472   0.794   1.305
12494WAT    EPW50698   0.440   0.804   1.376
12495WAT      O50699   1.217   0.964   1.477
12495WAT     H150700   1.294   0.956   1.436
12495WAT     H250701   1.159   0.951   1.413
12495WAT    EPW50702   1.220   0.961   1.462
12496WAT      O50703   1.845   1.024   0.767
12496WAT     H150704   1.800   1.096   0.787
12496WAT     H250705   1.784   0.967   0.743
12496WAT    EPW50706   1.829   1.026   0.767
12497WAT      O50707   1.545   0.608   0.722
12497WAT     H150708   1.615   0.560   0.740
12497WAT     H250709   1.479   0.551   0.726
12497WAT    EPW50710   1.545   0.593   0.725
12498WAT      O50711   0.582   0.699   1.643
12498WAT     H150712   0.667   0.706   1.621
12498WAT     H250713   0.579   0.739   1.720
12498WAT    EPW50714   0.594   0.706   1.651
12499WAT      O50715   0.779   0.250   1.118
12499WAT     H150716   0.796   0.229   1.201
12499WAT     H250717   0.713   0.197   1.096
12499WAT    EPW50718   0.772   0.239   1.127
12500WAT      O50719   0.854   0.244   1.377
12500WAT     H150720   0.859   0.329   1.397
12500WAT     H250721   0.825   0.207   1.450
12500WAT    EPW50722   0.850   0.251   1.390
12501WAT      O50723   1.471   0.314   1.290
12501WAT     H150724   1.420   0.273   1.347
12501WAT     H250725   1.459   0.398   1.308
12501WAT    EPW50726   1.462   0.320   1.301
12502WAT      O50727   1.797   0.358   0.302
12502WAT     H150728   1.809   0.329   0.384
12502WAT     H250729   1.877   0.360   0.269
12502WAT    EPW50730   1.810   0.354   0.310
12503WAT      O50731   0.510   0.331   0.835
12503WAT     H150732   0.595   0.323   0.818
12503WAT     H250733   0.475   0.263   0.794
12503WAT    EPW50734   0.518   0.320   0.827
12504WAT      O50735   0.387   1.003   0.959
12504WAT     H150736   0.320   0.954   0.935
12504WAT     H250737   0.427   1.022   0.884
12504WAT    EPW50738   0.383   0.999   0.944
12505WAT      O50739   2.020   0.809   1.728
12505WAT     H150740   1.952   0.840   1.683
12505WAT     H250741   1.983   0.763   1.792
12505WAT    EPW50742   2.005   0.806   1.731
12506WAT      O50743   0.747   0.332   0.659
12506WAT     H150744   0.818   0.381   0.668
12506WAT     H250745   0.769   0.275   0.596
12506WAT    EPW50746   0.761   0.330   0.651
12507WAT      O50747   1.199   0.702   0.892
12507WAT     H150748   1.147   0.765   0.862
12507WAT     H250749   1.230   0.665   0.819
12507WAT    EPW50750   1.196   0.706   0.877
12508WAT      O50751   0.607   0.481   1.168
12508WAT     H150752   0.654   0.510   1.235
12508WAT     H250753   0.664   0.433   1.122
12508WAT    EPW50754   0.622   0.478   1.171
12509WAT      O50755   0.264   0.248   1.022
12509WAT     H150756   0.307   0.235   0.947
12509WAT     H250757   0.243   0.332   1.019
12509WAT    EPW50758   0.267   0.258   1.011
12510WAT      O50759   1.804   0.847   1.537
12510WAT     H150760   1.736   0.898   1.559
12510WAT     H250761   1.810   0.857   1.450
12510WAT    EPW50762   1.795   0.856   1.527
12511WAT      O50763   0.672   0.599   0.850
12511WAT     H150764   0.685   0.684   0.869
12511WAT     H250765   0.739   0.559   0.890
12511WAT    EPW50766   0.684   0.606   0.859
12512WAT      O50767   1.003   0.922   1.296
12512WAT     H150768   0.975   0.858   1.244
12512WAT     H250769   0.982   0.994   1.253
12512WAT    EPW50770   0.996   0.923   1.282
12513WAT      O50771   1.533   0.400   1.739
12513WAT     H150772   1.582   0.472   1.749
12513WAT     H250773   1.573   0.357   1.674
12513WAT    EPW50774   1.546   0.404   1.731
12514WAT      O50775   0.963   0.684   1.857
12514WAT     H150776   0.998   0.667   1.934
12514WAT     H250777   0.919   0.612   1.837
12514WAT    EPW50778   0.962   0.671   1.865
12515WAT      O50779   1.776   0.463   0.746
12515WAT     H150780   1.812   0.428   0.817
12515WAT     H250781   1.775   0.397   0.689
12515WAT    EPW50782   1.781   0.448   0.748
12516WAT      O50783   1.381   0.770   1.130
12516WAT     H150784   1.320   0.740   1.075
12516WAT     H250785   1.435   0.815   1.079
12516WAT    EPW50786   1.380   0.772   1.114
12517WAT      O50787   1.382   0.455   1.070
12517WAT     H150788   1.302   0.477   1.098
12517WAT     H250789   1.408   0.395   1.129
12517WAT    EPW50790   1.374   0.449   1.083
12518WAT      O50791   0.771   0.936   0.515
12518WAT     H150792   0.757   0.858   0.552
12518WAT     H250793   0.840   0.921   0.464
12518WAT    EPW50794   0.779   0.922   0.513
12519WAT      O50795   1.000   0.888   0.355
12519WAT     H150796   1.063   0.904   0.414
12519WAT     H250797   1.004   0.957   0.302
12519WAT    EPW50798   1.010   0.900   0.356
12520WAT      O50799   1.708   0.255   1.555
12520WAT     H150800   1.714   0.267   1.469
12520WAT     H250801   1.783   0.287   1.585
12520WAT    EPW50802   1.720   0.261   1.547
12521WAT      O50803   1.327   0.789   1.983
12521WAT     H150804   1.344   0.818   2.063
12521WAT     H250805   1.353   0.856   1.932
12521WAT    EPW50806   1.333   0.803   1.987
12522WAT      O50807   1.281   0.235   1.515
12522WAT     H150808   1.266   0.296   1.575
12522WAT     H250809   1.335   0.179   1.555
12522WAT    EPW50810   1.287   0.236   1.530
12523WAT      O50811   1.642   0.508   1.168
12523WAT     H150812   1.594   0.538   1.101
12523WAT     H250813   1.607   0.430   1.185
12523WAT    EPW50814   1.630   0.501   1.160
12524WAT      O50815   1.042   0.280   1.024
12524WAT     H150816   0.957   0.260   1.032
12524WAT     H250817   1.074   0.263   1.103
12524WAT    EPW50818   1.034   0.275   1.037
12525WAT      O50819   0.427   0.249   1.255
12525WAT     H150820   0.499   0.298   1.252
12525WAT     H250821   0.400   0.246   1.172
12525WAT    EPW50822   0.433   0.256   1.243
12526WAT      O50823   2.011   0.925   0.362
12526WAT     H150824   2.081   0.878   0.337
12526WAT     H250825   1.957   0.865   0.395
12526WAT    EPW50826   2.014   0.909   0.363
12527WAT      O50827   0.366   0.354   1.683
12527WAT     H150828   0.324   0.303   1.627
12527WAT     H250829   0.331   0.433   1.669
12527WAT    EPW50830   0.355   0.358   1.673
12528WAT      O50831   1.861   0.209   1.023
12528WAT     H150832   1.832   0.249   1.095
12528WAT     H250833   1.947   0.203   1.036
12528WAT    EPW50834   1.869   0.214   1.036
12529WAT      O50835   1.974   0.773   1.076
12529WAT     H150836   2.003   0.798   0.998
12529WAT     H250837   2.043   0.782   1.128
12529WAT    EPW50838   1.989   0.778   1.072
12530WAT      O50839   1.634   0.633   0.274
12530WAT     H150840   1.668   0.552   0.278
12530WAT     H250841   1.559   0.626   0.317
12530WAT    EPW50842   1.628   0.620   0.281
12531WAT      O50843   1.927   0.412   1.615
12531WAT     H150844   1.989   0.357   1.590
12531WAT     H250845   1.921   0.469   1.549
12531WAT    EPW50846   1.935   0.413   1.602
12532WAT      O50847   1.372   0.420   0.215
12532WAT     H150848   1.440   0.369   0.198
12532WAT     H250849   1.330   0.425   0.138
12532WAT    EPW50850   1.376   0.414   0.201
12533WAT      O50851   0.840   0.535   1.345
12533WAT     H150852   0.810   0.595   1.402
12533WAT     H250853   0.846   0.580   1.270
12533WAT    EPW50854   0.836   0.551   1.342
12534WAT      O50855   0.638   0.430   1.685
12534WAT     H150856   0.557   0.401   1.701
12534WAT     H250857   0.629   0.517   1.685
12534WAT    EPW50858   0.625   0.439   1.687
12535WAT      O50859   1.092   0.178   1.294
12535WAT     H150860   1.139   0.215   1.357
12535WAT     H250861   1.009   0.191   1.320
12535WAT    EPW50862   1.087   0.185   1.307
12536WAT      O50863   1.018   0.917   0.817
12536WAT     H150864   1.073   0.985   0.822
12536WAT     H250865   0.983   0.925   0.737
12536WAT    EPW50866   1.021   0.928   0.806
12537WAT      O50867   0.836   0.740   1.156
12537WAT     H150868   0.774   0.798   1.138
12537WAT     H250869   0.861   0.711   1.077
12537WAT    EPW50870   0.831   0.744   1.141
12538WAT      O50871   1.267   0.403   1.855
12538WAT     H150872   1.343   0.432   1.822
12538WAT     H250873   1.213   0.408   1.787
12538WAT    EPW50874   1.270   0.408   1.840
12539WAT      O50875   1.658   0.658   1.705
12539WAT     H150876   1.693   0.685   1.780
12539WAT     H250877   1.688   0.716   1.647
12539WAT    EPW50878   1.668   0.671   1.708
12540WAT      O50879   1.102   0.905   1.744
12540WAT     H150880   1.149   0.845   1.702
12540WAT     H250881   1.067   0.860   1.810
12540WAT    EPW50882   1.104   0.889   1.747
12541WAT      O50883   1.760   0.235   0.562
12541WAT     H150884   1.808   0.163   0.557
12541WAT     H250885   1.678   0.207   0.554
12541WAT    EPW50886   1.755   0.220   0.560
12542WAT      O50887   1.108   0.427   1.646
12542WAT     H150888   1.028   0.420   1.681
12542WAT     H250889   1.115   0.511   1.626
12542WAT    EPW50890   1.097   0.438   1.648
12543WAT      O50891   0.691   1.047   1.177
12543WAT     H150892   0.692   1.053   1.264
12543WAT     H250893   0.648   0.973   1.162
12543WAT    EPW50894   0.684   1.037   1.188
12544WAT      O50895   1.382   0.352   0.797
12544WAT     H150896   1.390   0.386   0.877
12544WAT     H250897   1.399   0.267   0.809
12544WAT    EPW50898   1.386   0.345   0.811
12545WAT      O50899   1.134   0.280   0.754
12545WAT     H150900   1.104   0.248   0.830
12545WAT     H250901   1.204   0.327   0.777
12545WAT    EPW50902   1.140   0.282   0.769
12546WAT      O50903   1.156   0.691   1.557
12546WAT     H150904   1.225   0.680   1.609
12546WAT     H250905   1.170   0.770   1.522
12546WAT    EPW50906   1.169   0.701   1.559
12547WAT      O50907   0.367   0.997   1.722
12547WAT     H150908   0.302   0.940   1.731
12547WAT     H250909   0.329   1.074   1.737
12547WAT    EPW50910   0.352   1.000   1.725
12548WAT      O50911   1.527   0.975   1.007
12548WAT     H150912   1.482   1.039   1.045
12548WAT     H250913   1.598   0.967   1.057
12548WAT    EPW50914   1.531   0.983   1.020
12549WAT      O50915   1.197   0.484   1.300
12549WAT     H150916   1.128   0.524   1.334
12549WAT     H250917   1.265   0.527   1.334
12549WAT    EPW50918   1.197   0.496   1.310
12550WAT      O50919   1.735   0.743   1.958
12550WAT     H150920   1.813   0.704   1.966
12550WAT     H250921   1.688   0.710   2.023
12550WAT    EPW50922   1.739   0.733   1.969
12551WAT      O50923   1.229   0.643   0.617
12551WAT     H150924   1.209   0.727   0.601
12551WAT     H250925   1.152   0.605   0.629
12551WAT    EPW50926   1.215   0.650   0.616
12552WAT      O50927   0.766   0.669   0.258
12552WAT     H150928   0.810   0.677   0.332
12552WAT     H250929   0.685   0.648   0.283
12552WAT    EPW50930   0.760   0.667   0.273
12553WAT      O50931   1.656   0.847   0.615
12553WAT     H150932   1.639   0.781   0.670
12553WAT     H250933   1.728   0.819   0.573
12553WAT    EPW50934   1.664   0.833   0.617
12554WAT      O50935   0.499   0.576   0.318
12554WAT     H150936   0.474   0.546   0.396
12554WAT     H250937   0.495   0.506   0.266
12554WAT    EPW50938   0.494   0.562   0.322
12555WAT      O50939   0.780   0.401   0.192
12555WAT     H150940   0.699   0.374   0.206
12555WAT     H250941   0.778   0.486   0.211
12555WAT    EPW50942   0.768   0.410   0.197
12556WAT      O50943   1.424   0.592   1.384
12556WAT     H150944   1.445   0.622   1.463
12556WAT     H250945   1.418   0.664   1.336
12556WAT    EPW50946   1.426   0.607   1.389
12557WAT      O50947   1.377   1.013   1.809
12557WAT     H150948   1.302   1.011   1.765
12557WAT     H250949   1.394   1.098   1.817
12557WAT    EPW50950   1.369   1.026   1.803
12558WAT      O50951   1.905   0.456   1.330
12558WAT     H150952   1.902   0.370   1.316
12558WAT     H250953   1.836   0.486   1.287
12558WAT    EPW50954   1.894   0.447   1.322
12559WAT      O50955   0.745   0.976   1.751
12559WAT     H150956   0.749   0.988   1.837
12559WAT     H250957   0.810   0.920   1.735
12559WAT    EPW50958   0.755   0.969   1.761
12560WAT      O50959   1.716   0.782   1.210
12560WAT     H150960   1.768   0.773   1.141
12560WAT     H250961   1.677   0.704   1.215
12560WAT    EPW50962   1.718   0.769   1.200
12561WAT      O50963   0.504   0.814   1.887
12561WAT     H150964   0.563   0.857   1.934
12561WAT     H250965   0.467   0.876   1.838
12561WAT    EPW50966   0.507   0.829   1.886
12562WAT      O50967   0.297   0.613   1.579
12562WAT     H150968   0.239   0.654   1.630
12562WAT     H250969   0.370   0.659   1.589
12562WAT    EPW50970   0.299   0.626   1.588
12563WAT      O50971   0.475   0.939   0.457
12563WAT     H150972   0.461   0.955   0.372
12563WAT     H250973   0.562   0.947   0.465
12563WAT    EPW50974   0.486   0.943   0.446
12564WAT      O50975   0.892   0.179   0.430
12564WAT     H150976   0.902   0.193   0.344
12564WAT     H250977   0.974   0.173   0.459
12564WAT    EPW50978   0.905   0.180   0.421
12565WAT      O50979   1.808   0.986   0.178
12565WAT     H150980   1.872   0.972   0.236
12565WAT     H250981   1.774   0.906   0.166
12565WAT    EPW50982   1.812   0.972   0.185
12566WAT      O50983   1.827   0.227   1.851
12566WAT     H150984   1.891   0.210   1.908
12566WAT     H250985   1.869   0.268   1.786
12566WAT    EPW50986   1.843   0.231   1.850
12567WAT      O50987   1.415   0.612   0.410
12567WAT     H150988   1.390   0.599   0.493
12567WAT     H250989   1.384   0.543   0.368
12567WAT    EPW50990   1.407   0.600   0.416
12568WAT      O50991   1.568   0.238   1.987
12568WAT     H150992   1.656   0.235   1.983
12568WAT     H250993   1.547   0.280   1.913
12568WAT    EPW50994   1.578   0.244   1.975
12569WAT      O50995   0.544   0.821   1.105
12569WAT     H150996   0.536   0.740   1.073
12569WAT     H250997   0.499   0.870   1.047
12569WAT    EPW50998   0.536   0.816   1.092
12570WAT      O50999   1.104   0.433   0.353
12570WAT     H151000   1.176   0.398   0.317
12570WAT     H251001   1.101   0.513   0.318
12570WAT    EPW51002   1.114   0.440   0.343
12571WAT      O51003   0.301   1.045   1.463
12571WAT     H151004   0.350   1.040   1.535
12571WAT     H251005   0.320   0.972   1.419
12571WAT    EPW51006   0.311   1.034   1.467
   7.75279   7.69708   7.86611
