default_name
 51006
  33.3996181  51.9863801  33.4981080  33.5728441  52.0897467  34.4366746
  34.2528441  53.2587467  34.8896746  33.6427094  54.0903766  34.5372150
  35.1962577  53.2440528  34.3439129  34.5358441  53.4397467  36.3716746
  34.7517626  54.4983052  36.5163590  33.3358441  53.2037467  37.1516746
  33.6998441  52.8797467  38.4846746  33.2611331  53.6100306  39.1646150
  33.0618441  51.6167467  38.8736746  32.5188441  50.7717467  37.9506746
  32.5753565  51.0152305  36.8999982  31.9118441  49.6367467  38.3226746
  31.4839494  48.9845696  37.5613128  31.8598441  49.3457467  39.7106746
  31.2518441  48.2337467  40.1456746  31.2378450  48.0651940  41.1414127
  30.8266819  47.5955914  39.4883361  32.4048441  50.1567467  40.6156746
  33.0168441  51.3017467  40.2156746  33.5468441  52.0857467  41.0186746
  35.5208441  52.5097467  37.0476746  35.9166753  51.5013163  36.9273203
  35.2168441  52.7627467  38.5146746  35.7737505  51.9257460  38.9358458
  35.7648441  53.9757467  38.9846746  35.6904078  53.9651754  39.9417264
  36.8518441  52.8777467  36.7936746  38.0008441  51.7837467  36.9626746
  39.2838441  52.4477467  36.6006746  37.5658441  50.5407467  36.2556746
  38.0258441  51.5037467  38.5266746  38.4288441  52.5317467  39.4236746
  37.7979185  53.4089572  39.2803758  39.4660995  52.7926359  39.2135823
  38.3148441  52.0687467  40.8486746  38.5924708  52.8956318  41.5023441
  36.9238441  51.8107467  41.1606746  36.8498441  50.8347467  42.1876746
  36.2632147  51.1795434  43.0391911  36.0748441  49.6887467  41.6946746
  35.8018441  49.5167467  40.3636746  36.2188951  50.2131841  39.6513238
  35.0798441  48.4867467  39.9086746  34.9220954  48.3471241  38.8392257
  34.5668441  47.5157467  40.8216746  33.9358441  46.4997467  40.5216746
  34.8858441  47.7437467  42.1306746  34.5136410  47.0146555  42.8503909
  35.6248441  48.7817467  42.6306746  35.8678441  48.8847467  43.8186746
  38.9938441  50.7627467  41.2056746  39.3329552  49.8408575  40.7332100
  38.2868441  50.4327467  42.5126746  38.6410820  49.4089508  42.6329108
  38.7548441  51.2217467  43.5876746  38.4057856  50.8337305  44.3934054
  40.3898441  50.9487467  41.4106746  41.3908441  49.6867467  41.3336746
  42.7458441  50.3037467  41.3876746  41.0218441  48.7837467  40.2006746
  41.1158441  48.8657467  42.6756746  41.2358441  49.4727467  43.9646746
  40.6086279  50.3595176  44.0559832  42.2810207  49.7524199  44.0969226
  40.8488441  48.4787467  45.0336746  41.0551665  48.8598834  46.0338072
  39.4208441  48.2497467  45.0206746  39.1528441  46.9077467  45.3816746
  38.4633701  46.8867165  46.2256429  38.3948441  46.2787467  44.2996746
  38.3618441  46.6377467  42.9916746  38.9408134  47.4691388  42.6175305
  37.5678441  45.8737467  42.2856746  37.0648441  44.9777467  43.1966746
  36.1458441  43.9237467  43.0326746  35.5798441  43.5607467  42.0036746
  35.9008441  43.2587467  44.2216746  35.2537814  42.4966745  44.1981312
  36.4678441  43.5647467  45.4256746  36.0768441  42.7877467  46.4826746
  35.4113713  42.0281774  46.4653359  36.4827565  43.0099587  47.3804262
  37.3378441  44.5487467  45.5906746  37.5778441  45.2027467  44.4546746
  41.4088441  47.0997467  44.7846746  41.8453807  46.5401603  43.9573913
  40.4788441  46.1957467  45.5716746  40.7591491  45.2546862  45.0984585
  40.7788441  46.1367467  46.9466746  40.2728383  45.4079687  47.3133370
  42.7138441  47.0107467  45.2816746  43.6688441  45.8777467  44.7146746
  45.0568441  46.3297467  44.9466746  43.2048441  45.5187467  43.3396746
  43.3698441  44.6457467  45.6546746  43.2588441  43.3667467  45.1096746
  44.2101167  42.8407224  45.1901665  42.9657376  43.4281242  44.0616183
  42.2228441  42.6187467  45.8626746  42.3923194  42.7205856  46.9345917
  40.9288441  43.2137467  45.6436746  39.9438441  42.1927467  45.5976746
  39.1101465  42.4653661  46.2447651  39.3658441  42.1997467  44.2746746
  39.6918441  43.0437467  43.2406746  40.4442212  43.8080313  43.3679527
  39.0138441  42.8137467  42.1586746  38.1898441  41.7427467  42.4896746
  37.2468441  41.0567467  41.7116746  36.9808441  41.2047467  40.5146746
  36.5958441  40.0797467  42.4556746  35.8764895  39.5524176  42.0035115
  36.8688441  39.7807467  43.7616746  36.1378441  38.7787467  44.3046746
  35.4110694  38.2425912  43.8525286  36.3258749  38.5560174  45.2716994
  37.7828441  40.3997467  44.4866746  38.3958441  41.3737467  43.7886746
  42.0618441  41.1877467  45.4296746  42.3584292  40.4986125  44.6389596
  40.6438441  40.8647467  45.8786746  40.5244606  39.9648937  45.2752582
  40.5268441  40.5327467  47.2456746  39.6532010  40.1543558  47.3688352
  43.0458441  40.4437467  46.1106746  43.8608441  39.3147467  45.3276746
  44.9328441  38.8217467  46.2366746  44.2168441  39.8987467  44.0086746
  42.7888441  38.1557467  45.1466746  42.1978441  37.5487467  46.2786746
  41.8713885  38.3102393  46.9869513  42.9333403  36.9010072  46.7557275
  41.0098441  36.7227467  45.8566746  40.5018567  36.3509486  46.7465141
  40.0388441  37.5887467  45.2196746  39.3048441  36.8507467  44.2546746
  38.2416430  36.8286823  44.4938726  39.3558441  37.5457467  42.9666746
  40.1908441  38.5637467  42.5846746  40.9824640  38.9077212  43.2338445
  39.9108441  39.0357467  41.3936746  38.8388441  38.2697467  40.9646746
  38.0618441  38.3307467  39.7546746  38.1788441  39.1107467  38.7866746
  37.0678441  37.3527467  39.7426746  36.4712521  37.3107832  38.9412287
  36.8428441  36.4397467  40.7486746  35.8308441  35.5647467  40.5466746
  35.2185541  35.5181499  39.7447831  35.6561608  34.8986382  41.2855157
  37.5478441  36.3817467  41.8666746  38.5098441  37.3177467  41.9106746
  41.2588441  35.6477467  44.8086746  42.0103705  35.3872028  44.0634071
  39.8668441  35.4327467  44.2236746  40.1585706  34.8975555  43.3200346
  39.0678441  34.5877467  45.0356746  38.2955921  34.3491037  44.5177201
  41.7198441  34.4467467  45.4136746  42.6068441  33.4147467  44.5596746
  43.8708441  33.1917467  45.3116746  42.6648441  33.9407467  43.1716746
  41.7808441  32.0537467  44.6236746  41.7218441  31.3217467  45.8396746
  41.5342867  32.0051205  46.6678789  42.6768951  30.8192956  45.9930408
  40.6248441  30.2937467  45.7886746  40.5384199  29.8067365  46.7599888
  39.3538441  30.9517467  45.5996746  38.5138441  30.1397467  44.8016746
  37.5063078  30.0652438  45.2108433  38.3048441  30.8357467  43.5416746
  39.1298441  31.8497467  43.1626746  39.9658220  32.1073585  43.7960603
  38.9748441  32.4967467  42.0216746  39.6351313  33.3171351  41.7404562
  37.9058441  32.1257467  41.1416746  37.6438441  32.6507467  40.0646746
  37.1178441  31.0957467  41.5896746  36.2955639  30.7914953  40.9420737
  37.2578441  30.4177467  42.7636746  36.5068441  29.5137467  43.0936746
  40.6988441  29.3167467  44.6356746  41.1833811  29.2372789  43.6625315
  39.2558441  28.8417467  44.5246746  39.3465160  28.3513704  43.5554435
  38.8578441  27.8967467  45.4936746  38.0110023  27.5441308  45.2106173
  41.5948441  28.2737467  44.9546746  42.7498441  27.8887467  43.9176746
  43.5398441  26.7507467  44.4916746  43.4348441  29.1537467  43.5246746
  41.9328441  27.3397467  42.6716746  40.9488441  26.3377467  42.8556746
  40.4401920  26.4558842  43.8124487  41.4492768  25.3698127  42.8278991
  39.9338441  26.4027467  41.7436746  39.0863308  25.7536716  41.9639517
  39.3708441  27.7397467  41.7186746  39.0418441  28.0867467  40.3856746
  38.0145045  28.4504685  40.3662086  39.8238441  29.2437467  39.9786746
  40.8678441  29.7157467  40.7226746  41.1280717  29.2338412  41.6535068
  41.5798441  30.7707467  40.3186746  42.4109339  31.1275000  40.9270473
  41.1978441  31.3797467  39.0936746  41.8548441  32.4507467  38.6256746
  41.5439577  32.8465798  37.7500226  42.6319796  32.8371231  39.1422743
  40.1808441  30.9187467  38.3716746  39.4798441  29.8467467  38.8006746
  38.5228441  29.3787467  38.1586746  40.4768441  26.2347467  40.3326746
  41.4308506  26.3063424  39.8103293  39.3918441  26.8987467  39.4996746
  39.9400570  26.9499087  38.5589598  38.2358441  26.1117467  39.3266746
  37.7064954  26.5360484  38.6474408  40.6128441  24.8647467  40.0046746
  42.0118441  24.3127467  39.4506746  41.7298441  23.5347467  38.2056746
  42.7108441  23.6607467  40.5916746  42.8198441  25.6187467  39.0476746
  43.4808441  25.6607467  37.8056746  44.1357132  24.7948789  37.7081061
  44.0721626  26.5732586  37.7297465  42.4588441  25.6377467  36.6946746
  41.8050582  24.7772492  36.8368268  41.5858441  26.7807467  36.8246746
  41.9308441  27.7777467  35.8656746  41.0173242  28.3185304  35.6184225
  42.7238441  28.7557467  36.5896746  43.2788441  28.5727467  37.8356746
  43.0737356  27.6750638  38.4000308  44.0318441  29.5607467  38.2186746
  43.9628441  30.4687467  37.1686746  44.5878441  31.7207467  37.0046746
  45.3948441  32.2887467  37.7566746  44.2078441  32.3247467  35.8086746
  44.5878787  33.2286829  35.6125326  43.3558441  31.7877467  34.8866746
  43.1068441  32.5587467  33.8086746  43.4721727  33.4821407  33.6243413
  42.4716210  32.1805154  33.1205368  42.7888441  30.5987467  35.0106746
  43.1328441  29.9977467  36.1736746  42.9948441  25.7467467  35.2956746
  44.0421447  25.4932960  35.4600616  42.8908441  27.1767467  34.8336746
  43.9501867  27.4279024  34.7806341  42.3378441  27.1967467  33.5356746
  42.4598072  28.0848938  33.1922793  43.1878441  24.6327467  34.4936746
  44.5938441  23.9067467  34.5756746  44.6608441  22.8487467  33.5366746
  44.8318441  23.5627467  36.0056746  45.6128441  25.0717467  34.2396746
  46.9648441  24.9207467  34.5976746  47.3017289  23.8841152  34.5996355
  47.0583633  25.3345334  35.6017340  47.8148441  25.7107467  33.6606746
  48.8822597  25.5392315  33.7996205  47.5498441  25.2707467  32.3056746
  47.7128441  26.3647467  31.4206746  48.4746007  26.1466023  30.6721833
  46.4868441  26.5267467  30.6306746  45.4008441  25.7217467  30.8226746
  45.3913166  24.9968012  31.6231514  44.3328441  25.8187467  30.0226746
  43.4780277  25.1631203  30.1886359  44.3788441  26.7937467  28.9746746
  43.3718441  26.9057467  28.1226746  43.4450428  27.6062346  27.3987552
  42.5648029  26.3042706  28.2064143  45.4158441  27.6107467  28.8126746
  46.4758441  27.5117467  29.6396746  47.4408441  28.2797467  29.5626746
  47.4318441  27.1737467  33.5956746  46.5600893  27.7906958  33.8136566
  48.0268441  27.5917467  32.2656746  47.5564591  28.5699832  32.1662236
  49.4298441  27.7477467  32.3176746  49.6957571  28.1710077  31.4980765
  47.9938441  27.8877467  34.6696746  47.0818441  28.9137467  35.4926746
  47.9178441  29.4187467  36.6076746  45.8148441  28.2007467  35.7856746
  46.8548441  30.1167467  34.4786746  47.9648441  30.8187467  33.9626746
  48.8080306  30.1450214  33.8102576  48.2469101  31.5987637  34.6698612
  47.5958441  31.4497467  32.6546746  48.4801676  31.8208915  32.1366757
  47.0758441  30.4137467  31.7876746  46.0388441  30.9407467  30.9786746
  46.2266671  30.8558239  29.9083429  44.8358441  30.1277467  31.1676746
  44.5708441  29.2127467  32.1556746  45.2692118  29.0774344  32.9683091
  43.4088441  28.6137467  32.0286746  42.8638441  29.1757467  30.8796746
  41.6298441  28.9637467  30.1906746  40.6998441  28.0777467  30.5676746
  39.8488784  27.9802271  30.0324658  40.8491396  27.5067935  31.3873221
  41.3978441  29.7067467  29.0886746  42.3388441  30.5837467  28.7066746
  42.1702409  31.1878532  27.8274549  43.5258441  30.8627467  29.2546746
  43.7288441  30.1187467  30.3486746  46.4788441  32.4737467  32.7286746
  45.7180114  32.8094575  33.4333239  45.8828441  32.4227467  31.3206746
  44.9415422  32.9112525  31.5724918  46.5758441  33.2007467  30.3596746
  46.0085708  33.2639519  29.5877895  47.0148441  33.7537467  33.0526746
  46.4588441  34.5517467  34.3376746  47.3948441  35.6677467  34.6686746
  46.1048441  33.5517467  35.3716746  45.1298441  35.2357467  33.8166746
  45.2168441  36.3567467  32.9546746  45.3750511  36.0546349  31.9193973
  46.0560689  36.9680350  33.2865316  43.9598441  37.1577467  33.0456746
  43.8470823  37.8537336  32.2144187  42.8868441  36.2137467  32.8736746
  41.7858441  36.5957467  33.6626746  40.9074122  36.7493193  33.0358796
  41.4218441  35.4657467  34.4916746  42.0688441  34.9757467  35.5936746
  42.9693023  35.4420986  35.9652832  41.4828441  33.9277467  36.1016746
  40.3848441  33.7257467  35.2796746  39.3648441  32.7417467  35.3216746
  39.2048441  31.8247467  36.1406746  38.4588441  32.9037467  34.2726746
  37.7109722  32.2433325  34.2053012  38.5188441  33.8927467  33.3166746
  37.5668441  33.8657467  32.3576746  36.8217739  33.1909405  32.2596580
  37.6168915  34.5864929  31.6518977  39.4448441  34.8277467  33.2936746
  40.3418441  34.6757467  34.2876746  43.6888441  37.8007467  34.3986746
  44.0758941  37.7645105  35.4169958  42.1618441  37.8547467  34.4356746
  42.0782045  37.9843111  35.5147097  41.5908441  38.9737467  33.7806746
  40.6696420  39.0152995  34.0476213  44.1458441  39.1517467  34.4576746
  45.5288441  39.5887467  33.7596746  45.6088441  39.1127467  32.3426746
  46.5978441  39.2207467  34.7276746  45.4028441  41.1767467  33.6866746
  44.1288441  41.8217467  33.8006746  44.0304871  42.2888160  34.7806094
  43.3452906  41.0745889  33.6745806  43.9848441  42.8767467  32.7316746
  43.2797540  43.6464447  33.0455410  45.2498441  43.5547467  32.6606746
  45.4968441  43.9787467  31.3396746  45.4698785  45.0617630  31.2194755
  46.8848441  43.6437467  31.0036746  47.5088441  42.5307467  31.5236746
  46.9273560  41.8394777  32.1156365  48.7928441  42.2467467  31.2806746
  49.2672809  41.3649459  31.7112988  49.5658441  43.1197467  30.4416746
  50.7568441  42.9817467  30.1566746  48.8678441  44.2037467  29.9336746
  49.4253877  44.8778557  29.2834263  47.5478441  44.5147467  30.1626746
  46.9998441  45.4877467  29.6586746  43.7298441  42.3837467  31.3126746
  43.6732219  41.4237007  30.7996401  44.4288441  43.4017467  30.4126746
  44.6194883  42.6769849  29.6211732  43.6198441  44.4417467  29.9116746
  44.1016179  44.8481122  29.1875464  42.3198441  42.2847467  31.0666746
  41.3138441  43.4727467  31.5366746  42.0618441  44.7197467  31.8686746
  40.3948441  42.8727467  32.5506746  40.4088441  43.7727467  30.2626746
  40.9338441  44.4647467  29.1426746  42.0232603  44.4608692  29.1781360
  40.5740726  45.4935794  29.1556456  40.4768441  43.7957467  27.8706746
  40.5500517  44.4940786  27.0369645  41.3358441  42.6917467  27.4956746
  40.5638441  41.7027467  26.8286746  40.8831497  41.5230272  25.8021055
  40.8248441  40.4237467  27.4826746  41.6878441  40.1747467  28.5266746
  42.2330756  40.9849409  28.9878791  41.7078441  38.9207467  28.9036746
  40.7978441  38.3037467  28.0546746  40.3528441  36.9797467  27.9516746
  40.7688441  35.9917467  28.7476746  40.4090390  35.0564291  28.6218867
  41.4433239  36.1797105  29.4755794  39.4448441  36.6967467  26.9926746
  39.0108441  37.6907467  26.2026746  38.2859557  37.4870407  25.4284397
  39.3448441  38.9767467  26.2106746  40.2528441  39.2187467  27.1716746
  39.1148441  43.1607467  27.9976746  38.3975693  42.8655861  28.7635047
  39.0948441  42.1447467  26.8656746  38.2922768  41.5291868  27.2719637
  38.6858441  42.6957467  25.6316746  38.4921413  41.9600129  25.0462043
  38.1488441  44.1687467  27.8806746  37.1818441  44.4487467  29.1136746
  36.8438441  45.8987467  29.1196746  37.8158441  43.8327467  30.3096746
  35.9138441  43.5897467  28.7116746  35.5818441  43.4447467  27.3456746
  36.3780598  43.7948568  26.6887396  34.6838451  44.0387677  27.1758589
  35.2878441  42.0117467  27.0406746  34.8567267  41.8981631  26.0460210
  36.5048441  41.2377467  26.9976746  36.2068441  39.8937467  27.3396746
  36.4327306  39.1855722  26.5424523  37.1078441  39.4817467  28.4096746
  38.0598441  40.2257467  29.0546746  38.1689460  41.2767857  28.8314812
  38.7288441  39.5577467  29.9616746  38.1668441  38.2877467  29.9236746
  38.4258441  37.1097467  30.6536746  39.3478441  37.0127467  31.6126746
  39.4821791  36.1368655  32.0973265  39.9116512  37.8151775  31.8541806
  37.6858441  36.0197467  30.3606746  36.7508441  36.1187467  29.4116746
  36.1470813  35.2585055  29.1629689  36.4108441  37.1647467  28.6686746
  37.1678441  38.2317467  28.9746746  34.5148441  41.3097467  28.1266746
  34.3118957  41.4060028  29.1932793  34.7458441  39.8537467  27.7866746
  34.4126780  39.4079410  28.7238815  33.9008441  39.4317467  26.7396746
  33.9593325  38.4743370  26.7003507  33.1568441  41.6487467  28.0736746
  32.4338441  42.0967467  29.4166746  31.1558441  42.7827467  29.0776746
  33.4808441  42.7927467  30.2226746  32.0958441  40.7137467  30.1106746
  31.3558441  39.7347467  29.4116746  31.6325548  39.6781265  28.3589043
  30.3035111  40.0059689  29.4961392  31.5718441  38.4007467  30.0486746
  30.9788669  37.6203784  29.5717023  32.9438441  37.9867467  29.8486746
  33.3768441  37.2357467  30.9726746  33.7900867  36.2836418  30.6397690
  34.5238441  37.9187467  31.5766746  34.8298441  39.2167467  31.2716746
  34.2082640  39.7745867  30.5869466  35.8978441  39.8147467  31.8126746
  36.1224304  40.8489247  31.5516436  36.6988441  39.0447467  32.7146746
  37.7998441  39.5827467  33.2806746  38.3348999  39.0026143  33.9109620
  38.0667430  40.5340924  33.0713715  36.3938441  37.7827467  33.0216746
  35.3078441  37.2047467  32.4726746  34.9798441  36.0457467  32.7456746
  31.4518441  38.4197467  31.5516746  31.5140264  39.1393655  32.3679962
  32.1958441  37.1577467  31.9336746  32.2672720  37.3175349  33.0095301
  31.4328441  35.9977467  31.6806746  31.8869570  35.2653112  32.1036644
  30.1088441  38.3937467  31.9606746  29.7218441  39.0387467  33.3656746
  28.2468441  39.2267467  33.3936746  30.6348441  40.2047467  33.5506746
  30.0928441  37.8817467  34.3906746  29.6788441  36.5417467  34.1366746
  30.0034035  36.1894588  33.1575656  28.5897754  36.5365816  34.1814321
  30.2228441  35.6217467  35.1996746  29.8057535  34.6186503  35.1106115
  31.6568441  35.4367467  35.0306746  32.2768441  35.2977467  36.3096746
  32.8877163  34.3952839  36.3319310  33.2578441  36.3877467  36.4876746
  33.2648441  37.4797467  35.6646746  32.5063160  37.5791591  34.9023413
  34.1978441  38.4367467  35.7826746  34.1787150  39.2880317  35.1021981
  35.1748441  38.2797467  36.8006746  36.1488441  39.1957467  36.9406746
  36.8266380  39.0517782  37.6755006  36.1883448  39.9951131  36.3245947
  35.1618441  37.2347467  37.6336746  34.2018441  36.2757467  37.5086746
  34.1408441  35.3007467  38.2756746  30.1458441  36.1947467  36.5916746
  30.0724714  37.1732480  37.0662801  31.1518441  35.3467467  37.3376746
  31.2117378  35.9086613  38.2697497  30.6308441  34.0577467  37.5976746
  31.2311714  33.6313577  38.2136294  28.8758441  36.0737467  37.1466746
  28.4848441  37.0477467  38.3276746  27.0718441  36.7777467  38.6826746
  28.9178441  38.4037467  37.8886746  29.4348441  36.5817467  39.5136746
  29.2708441  35.3027467  40.1096746  29.5774493  34.5188350  39.4171605
  28.2184946  35.1726211  40.3621192  30.0998441  35.2047467  41.3696746
  29.9278102  34.2411587  41.8492598  31.5108441  35.1927467  41.0246746
  32.2498441  35.9067467  42.0016746  33.1429874  35.3474705  42.2802507
  32.7838441  37.1177467  41.3616746  32.2638441  37.5837467  40.1846746
  31.4208409  37.0835563  39.7312930  32.7838441  38.6567467  39.5786746
  32.3554535  39.0035190  38.6382860  33.8938441  39.2937467  40.2116746
  34.4708441  40.3497467  39.6436746  35.2531992  40.7717825  40.1231608
  34.1270375  40.7055320  38.7631547  34.3878441  38.8617467  41.3716746
  33.8448441  37.7807467  41.9726746  34.2578441  37.3657467  43.0546746
  29.9868441  36.3787467  42.3186746  29.6651354  37.4201711  42.3125592
  31.2688441  36.2507467  43.1166746  31.2603698  37.2074546  43.6389172
  31.1678441  35.1987467  44.0586746  31.9247625  35.2729142  44.6444854
  28.8698441  36.2607467  43.1616746  28.2698441  37.5787467  43.8336746
  27.0308441  37.1497467  44.5326746  28.2258441  38.6607467  42.8086746
  29.3608441  37.9887467  44.9156746  29.5928441  37.1707467  46.0566746
  29.8529221  36.1440763  45.7989783  28.6647947  37.1773638  46.6283223
  30.6898441  37.7627467  46.8906746  30.9347900  37.1339251  47.7466444
  31.8998441  37.7817467  46.0966746  32.6958441  38.8927467  46.4756746
  33.7152004  38.5660968  46.6813730  32.8418441  39.7707467  45.3226746
  32.0598441  39.6177467  44.2156746  31.2906213  38.8599093  44.1962193
  32.2288441  40.3937467  43.1466746  31.5875065  40.2566616  42.2760461
  33.2528441  41.3757467  43.2086746  33.4818441  42.1697467  42.1696746
  34.2193266  42.8544639  42.2555964  32.9292857  42.0802418  41.3289788
  34.0078441  41.5397467  44.2916746  33.8088441  40.7617467  45.3736746
  34.4548441  40.9187467  46.4256746  30.5228441  39.2267467  47.2306746
  29.9863519  40.0924018  46.8421955  31.9388441  39.6237467  47.5716746
  31.8021700  40.7040929  47.6193344  32.3508441  39.1487467  48.8276746
  33.1791022  39.5872764  49.0357150  29.6888441  39.4347467  48.3316746
  28.7568441  40.7207467  48.3466746  27.7678441  40.4907467  49.4276746
  28.3118441  40.9217467  46.9466746  29.7348441  41.9007467  48.7526746
  30.3848441  41.8637467  50.0006746  30.6975008  40.8525418  50.2610789
  29.6776682  42.2280751  50.7458374  31.5838441  42.7597467  49.9806746
  32.2152909  42.5829583  50.8513756  32.4068441  42.3817467  48.8536746
  33.1058441  43.5167467  48.3726746  34.1895457  43.4000384  48.3643424
  32.7848441  43.7067467  46.9606746  31.9108441  43.0107467  46.1666746
  31.2684171  42.2576433  46.5985592  31.9098441  43.3987467  44.9126746
  32.8298441  44.4397467  44.8866746  33.2988441  45.2717467  43.8496746
  32.8918441  45.1767467  42.5806746  33.2658382  45.8030825  41.8821525
  32.2101761  44.4785952  42.3198835  34.2158441  46.2157467  44.1696746
  34.6258441  46.3037467  45.4416746  35.3549078  47.0498344  45.7213503
  34.2628441  45.5767467  46.4976746  33.3568441  44.6487467  46.1456746
  31.3108441  44.2247467  49.7166746  30.5232911  44.8560854  49.3052496
  32.6608441  44.7067467  49.2136746  32.3455962  45.6726447  48.8190115
  33.5878441  44.9057467  50.2546746  34.3337884  45.3794704  49.8795033
  30.9868441  44.9007467  50.9106746  30.2748441  46.3287467  50.8386746
  29.8938441  46.6747467  52.2356746  29.2288441  46.1917467  49.7826746
  31.4158441  47.3457467  50.3786746  32.3798441  47.8407467  51.2986746
  33.0367171  47.0495686  51.6601372  31.8341197  48.2711302  52.1383504
  33.2078441  48.9107467  50.6476746  34.2023634  49.0727086  51.0633658
  33.4498441  48.4717467  49.2876746  32.8088441  49.3437467  48.3786746
  33.5752613  50.0174726  47.9955332  32.3068441  48.6677467  47.1746746
  31.5918441  47.5017467  47.0516746  31.3176457  46.9180479  47.9179961
  31.3068441  47.2117467  45.8056746  31.8738441  48.2407467  45.0686746
  31.9078441  48.4617467  43.6626746  31.4288441  47.7527467  42.7526746
  32.5808441  49.6397467  43.3496746  32.6572682  49.8843670  42.3830729
  33.1408441  50.4957467  44.2636746  33.7328441  51.6147467  43.7536746
  33.8111957  51.8708077  42.7798193  34.1550172  52.2453840  44.4201335
  33.1218441  50.2887467  45.5686746  32.4818441  49.1517467  45.8966746
  32.4058441  50.2087467  50.5316746  31.6270701  50.4926333  51.2395010
  31.8468441  50.2477467  49.1226746  30.7764895  50.1143982  49.2797040
  32.0848441  51.5217467  48.5836746  31.6108033  51.5668781  47.7500985
  33.0648441  51.4457467  50.7936746  34.0588441  51.5857467  52.0186746
  33.8438441  50.3837467  52.8476746  33.8748441  52.9417467  52.6046746
  35.4898441  51.4917467  51.3376746  36.6138441  51.0537467  52.0816746
  36.8128340  49.9929340  51.9294267  36.4243535  51.2392644  53.1389244
  37.7998441  51.8397467  51.6526746  38.7575523  51.4488561  51.9963298
  37.8578441  51.7267467  50.2186746  38.1738441  52.9747467  49.6476746
  39.1296585  52.9961711  49.1241680  37.2088441  53.2387467  48.5816746
  35.9658441  52.6647467  48.6046746  35.6645885  52.1173561  49.4855882
  35.0948441  52.7987467  47.6046746  34.1478184  52.2591160  47.6110753
  35.4498441  53.5667467  46.4586746  34.7958441  53.6627467  45.4216746
  36.6898441  54.1527467  46.5226746  36.9698348  54.7749164  45.6726094
  37.6028441  54.0457467  47.5346746  38.6718441  54.6287467  47.5016746
  37.6408441  53.3177467  51.9476746  36.8880389  53.9545323  52.4123111
  38.2438441  54.0387467  50.7396746  37.5443496  54.8678083  50.8467422
  39.5608441  54.5207467  50.8456746  39.6827846  55.1614652  50.1412522
  38.2038441  53.6057467  53.2326746  39.7798441  53.3587467  53.5196746
  40.2798441  54.5387467  54.2736746  40.4918441  52.9257467  52.2976746
  39.8128441  52.0947467  54.4856746  40.6308441  50.9677467  54.1816746
  41.6553705  51.1485269  54.5068888  40.6183513  50.7834699  53.1074369
  40.0918441  49.7617467  54.8956746  40.7317382  48.8854147  54.7923440
  40.1108441  50.0577467  56.3026746  38.8758441  49.7357467  56.8926746
  38.9004309  48.9316361  57.6281342  38.4408441  50.8967467  57.6856746
  38.6588441  52.1957467  57.2756746  38.9928547  52.3630728  56.2623439
  38.4248441  53.2597467  58.0626746  38.7133841  54.2631775  57.7496708
  37.9128441  53.0607467  59.3816746  37.8008441  53.9277467  60.2546746
  37.6488441  51.7347467  59.6926746  37.2163237  51.5493901  60.6758682
  37.8728441  50.6347467  58.8966746  37.5888441  49.5137467  59.2386746
  38.6508441  49.4617467  54.5386746  37.9229860  49.8608419  53.8322440
  37.9478441  49.1107467  55.8516746  36.9898317  49.5289454  55.5427715
  37.7958441  47.7317467  56.1146746  37.1468360  47.6498813  56.8173033
  38.6518441  48.4667467  53.5246746  39.5278441  47.1187467  53.6946746
  39.4518441  46.5597467  55.0676746  40.8438441  47.3737467  53.0806746
  38.7878441  46.1197467  52.7106746  37.3778441  45.9597467  52.8046746
  37.0215611  46.6961200  53.5250334  37.1285627  44.9584606  53.1559375
  36.7028441  46.2017467  51.4696746  35.6325862  46.0856660  51.6404744
  36.8518441  47.5647467  51.0256746  36.7118441  47.6007467  49.6226746
  35.8038822  48.1026356  49.2882919  37.7738441  48.4437467  49.0766746
  39.0608441  48.5787467  49.5226746  39.4191357  47.9735508  50.3422883
  39.7728441  49.4347467  48.8266746  38.8958441  49.8827467  47.8546746
  39.0358441  50.7977467  46.8086746  40.1528441  51.4737467  46.5556746
  40.1866885  52.1216126  45.7815780  40.9673023  51.3392689  47.1376303
  37.9688441  51.0097467  46.0196746  36.8368441  50.3557467  46.2806746
  35.9674228  50.5175960  45.6607469  36.5768441  49.4817467  47.2346746
  37.6598441  49.2817467  47.9946746  37.2098441  45.3807467  50.3096746
  38.0498163  44.7574822  50.0029388  36.6898441  46.1557467  49.1106746
  37.3456317  45.7747103  48.3278252  35.3688441  45.7367467  48.8606746
  35.1187741  46.0924832  48.0048024  36.5428441  44.1287467  50.3746746
  37.3978441  42.7737467  50.3416746  38.8258441  43.1637467  50.5226746
  36.9758441  42.0227467  49.1256746  36.9108441  41.9577467  51.6196746
  37.3458441  42.3137467  52.9256746  37.0645623  43.3351344  53.1820876
  38.4316388  42.2203662  52.9464292  36.7488441  41.3687467  53.9326746
  37.0829647  41.6107929  54.9415732  35.3118441  41.5287467  53.9786746
  34.7088441  40.2907467  54.2966746  34.0854658  40.3361053  55.1896703
  33.7578441  39.9537467  53.2506746  33.7088441  40.4037467  51.9596746
  34.4760274  41.0661587  51.5867916  32.7158441  39.9077467  51.2646746
  32.0628441  39.0757467  52.1646746  30.9228441  38.2407467  52.0486746
  30.2008441  38.0917467  50.9306746  29.3994363  37.4770784  50.9252311
  30.4577236  38.5940401  50.0929317  30.5508441  37.5427467  53.1406746
  31.2798441  37.6667467  54.2566746  31.0018934  37.1112514  55.1401719
  32.3618441  38.4057467  54.4836746  32.7028441  39.0957467  53.3866746
  36.9008441  39.9107467  53.5756746  37.0648976  39.3078832  52.6825112
  35.8268441  39.2667467  54.4296746  35.8319804  38.2638331  54.0027822
  36.1898441  39.1997467  55.7866746  35.5424268  38.6412385  56.2231605
  38.1898441  39.4657467  53.9226746  38.8518441  38.2767467  53.0816746
  40.2378441  38.0807467  53.5676746  38.6028441  38.5617467  51.6456746
  37.9928441  37.0087467  53.4956746  37.9068441  36.6527467  54.8546746
  37.6273199  37.4960984  55.4861207  38.8954156  36.2955031  55.1431259
  36.9158441  35.5537467  55.0376746  36.8857333  35.2014561  56.0687343
  35.5818441  36.0507467  54.7856746  34.7648441  34.9837467  54.3206746
  33.9173352  34.8693408  54.9964994  34.1438441  35.3777467  53.0486746
  34.6598441  36.3987467  52.2966746  35.5319229  36.9340168  52.6421662
  34.0998441  36.7517467  51.1286746  34.5330737  37.5696978  50.5530285
  32.9438441  36.0237467  50.7036746  32.3318441  36.3337467  49.5506746
  31.5193054  35.7932792  49.2903359  32.6832997  37.0844010  48.9735277
  32.4328441  35.0247467  51.4296746  33.0088441  34.6797467  52.6086746
  32.5538441  33.7607467  53.3146746  37.0368441  34.4497467  54.0186746
  37.4345019  34.2861584  53.0170729  35.6788441  33.7717467  54.1426746
  35.7444977  33.1658842  53.2389493  35.5608441  32.9257467  55.2686746
  34.7616931  32.4076801  55.1479878  38.1118441  33.5937467  54.3466746
  38.7378441  32.6557467  53.2146746  39.8688441  31.8847467  53.8006746
  38.9788441  33.5537467  52.0626746  37.5468441  31.6517467  52.8806746
  37.2888441  31.2197467  51.5506746  37.7572313  30.2504109  51.3800826
  37.6927258  31.9468637  50.8462024  35.7988441  31.0957467  51.3366746
  35.3449479  30.6624422  52.2279236  35.2128441  32.4167467  51.2366746
  34.1558441  32.4027467  50.2926746  33.2092148  32.8171368  50.6394786
  34.5278441  33.2997467  49.2046746  35.6348441  34.0997467  49.1486746
  36.4021232  34.0211779  49.9046583  35.6708441  34.8727467  48.0946746
  34.5188441  34.5417467  47.4026746  33.9638441  35.0247467  46.2116746
  34.5138441  36.0107467  45.4906746  34.0703476  36.3205756  44.6377865
  35.3720147  36.4443184  45.7999603  32.8088441  34.4677467  45.7856746
  32.2608441  33.5047467  46.5216746  31.3406971  33.0407649  46.1984882
  32.6778441  32.9787467  47.6636746  33.8208441  33.5497467  48.0576746
  35.3708441  30.4107467  50.0576746  35.7812997  30.0743886  49.1055778
  33.9718441  30.9617467  49.8396746  33.8386603  30.6418994  48.8062052
  32.9998441  30.3387467  50.6536746  32.1406181  30.6096356  50.3220869
  35.3208441  29.0277467  50.3106746  36.0058441  28.0207467  49.2836746
  35.9468441  26.6697467  49.9136746  37.3148441  28.6117467  48.8656746
  35.0028441  28.0487467  48.0576746  33.6128441  27.8867467  48.2806746
  33.2734212  28.4469753  49.1519013  33.4269993  26.8242297  48.4375822
  32.8568441  28.3447467  47.0776746  31.7920991  28.1265189  47.1601001
  32.9248441  29.7847467  46.9826746  32.8948441  30.1597467  45.6216746
  32.0739787  30.8221698  45.3469478  34.0708441  30.9677467  45.3526746
  35.2458441  31.0557467  46.0416746  35.4477489  30.3882949  46.8663831
  36.0668441  31.9517467  45.5596746  35.3898441  32.4677467  44.4686746
  35.7128441  33.4697467  43.5426746  36.8448441  34.1767467  43.5786746
  37.0194129  34.8864021  42.8815260  37.5266125  34.0019256  44.3030559
  34.8188441  33.7337467  42.5746746  33.6718441  33.0347467  42.5556746
  32.9400783  33.2287396  41.7854249  33.2518441  32.0807467  43.3756746
  34.1688441  31.8477467  44.3176746  33.4658441  27.8887467  45.7736746
  34.4162613  27.5162455  45.3915112  32.8808441  28.8827467  44.7906746
  33.5358446  28.6839753  43.9424037  31.5518441  28.5597467  44.4436746
  31.3151869  29.1118462  43.6948220  33.0468441  26.5857467  45.4666746
  33.9908441  25.6517467  44.5826746  33.7608441  24.2757467  45.0956746
  35.3648441  26.2307467  44.5776746  33.3608441  25.7437467  43.1236746
  32.1228441  25.0967467  42.8376746  31.3931577  25.2901161  43.6239736
  32.3093724  24.0248706  42.7714210  31.5768441  25.5847467  41.5266746
  30.5511711  25.2401748  41.3949011  31.4708441  27.0257467  41.5796746
  31.6548441  27.5527467  40.2836746  30.8470828  28.2088482  39.9594037
  32.7948441  28.4317467  40.3116746  34.0268441  28.2647467  40.8746746
  34.2963628  27.3264546  41.3365936  34.8058441  29.2987467  40.7306746
  34.0278441  30.1997467  40.0106746  34.2668441  31.4887467  39.5386746
  35.4078441  32.1367467  39.7196746  35.5216404  33.0710172  39.3532181
  36.1640589  31.6965773  40.2241435  33.2738441  32.1047467  38.8586746
  32.1298441  31.4477467  38.6726746  31.3209696  31.9142490  38.1299991
  31.7918441  30.2347467  39.0676746  32.8018441  29.6627467  39.7436746
  32.4538441  25.3487467  40.3126746  33.4924292  25.1169952  40.0766003
  31.9358441  26.3947467  39.3426746  32.7431941  26.3509710  38.6116691
  30.7258441  26.0197467  38.7276746  30.5704878  26.6405782  38.0121096
  32.1978441  24.0827467  39.7576746  32.9918441  23.6367467  38.4476746
  32.4008441  22.3237467  38.0526746  34.4418441  23.7457467  38.7526746
  32.6428441  24.7397467  37.3476746  31.5208441  24.5707467  36.4916746
  30.6142149  24.4788946  37.0897437  31.6629845  23.6622721  35.9063793
  31.3808441  25.7487467  35.5546746  30.3779307  25.6995896  35.1305903
  31.3878441  26.9727467  36.3286746  31.7868441  28.0437467  35.5016746
  31.0605330  28.8563468  35.5175589  32.9718441  28.6517467  36.0906746
  33.9388441  28.1267467  36.9116746  33.8999084  27.0908419  37.2146380
  34.8898441  28.9797467  37.2046746  34.5138441  30.1347467  36.5376746
  35.0958441  31.4067467  36.4346746  36.2348441  31.7457467  37.0266746
  36.6039399  32.6791834  36.9145780  36.7322222  31.0702000  37.5891250
  34.4588441  32.3317467  35.6926746  33.3128441  31.9927467  35.0936746
  32.7832726  32.7177396  34.4933928  32.6688441  30.8357467  35.1116746
  33.3298441  29.9447467  35.8566746  32.4678441  26.0147467  34.5306746
  33.5254892  25.8099769  34.3646777  32.1648441  27.4497467  34.1476746
  33.0937942  27.6743503  33.6235523  31.0858441  27.5257467  33.2436746
  31.0726381  28.4208702  32.8970046  32.3388441  25.2267467  33.3686746
  33.5258441  25.2307467  32.2896746  33.1258441  24.3607467  31.1676746
  34.8048441  24.9887467  32.9986746  33.5648441  26.7097467  31.7246746
  32.5468441  27.1627467  30.8626746  31.5451037  27.0485071  31.2768792
  32.6302330  26.5761260  29.9477849  32.7848441  28.5957467  30.5476746
  31.9237042  29.1019358  30.1114294  32.9948441  29.2627467  31.8106746
  33.9468441  30.2897467  31.6496746  33.5397750  31.2377895  32.0012552
  35.0628441  30.0307467  32.5656746  35.2388441  28.8107467  33.1596746
  34.5682227  27.9952536  32.9324350  36.2388441  28.6067467  34.0276746
  36.3561103  27.6285578  34.4940387  37.1058441  29.7057467  34.2956746
  38.1078441  29.5717467  35.1586746  38.6988886  30.3746621  35.3202106
  38.2603397  28.6910451  35.6290056  36.9468441  30.8887467  33.7036746
  35.9328441  31.0727467  32.8286746  35.7508441  32.1457467  32.2436746
  34.0758441  28.8537467  29.8026746  35.0138646  28.3464968  29.5770334
  34.3588441  30.2957467  30.1806746  35.3811192  30.3741334  29.8106633
  33.5348441  31.2087467  29.4836746  33.8886176  32.0863445  29.6457456
  33.8658441  28.7007467  28.4136746  35.1118441  28.7627467  27.4116746
  34.5498441  28.7047467  26.0356746  36.1378441  27.7737467  27.8476746
  35.6868441  30.2247467  27.6166746  35.0978441  31.3267467  26.9556746
  34.1978576  31.6778025  27.4605351  34.8479975  31.0206417  25.9398119
  36.0938441  32.4347467  26.9026746  35.6843284  33.3649740  26.5088810
  36.4518441  32.7457467  28.2656746  37.8428441  32.9957467  28.3496746
  38.1564371  33.9706709  28.7228788  38.4088441  32.0707467  29.3296746
  37.8998441  30.8787467  29.7896746  37.0541203  30.4230004  29.2962700
  38.5698441  30.3717467  30.7926746  39.6108441  31.2677467  30.9796746
  40.6598441  31.3107467  31.9076746  40.8278441  30.4177467  32.8886746
  41.6071258  30.5071314  33.5249385  40.1754578  29.6538577  32.9933858
  41.5398441  32.3247467  31.8046746  41.3568441  33.2407467  30.8426746
  42.0530722  34.0605326  30.7446103  40.4018441  33.3207467  29.9256746
  39.5488441  32.2937467  30.0526746  37.4068441  32.0397467  26.2446746
  37.9052027  31.1352064  25.8960424  38.4188441  32.9417467  26.9376746
  39.3292053  32.4191022  26.6441025  38.4378441  34.2547467  26.4086746
  39.2123313  34.6918365  26.7702306  37.3258441  32.3127467  24.8576746
  38.3428441  31.6097467  23.8416746  37.5068441  30.8257467  22.9056746
  39.4118441  30.9317467  24.6246746  38.9598441  32.8477467  23.0536746
  38.1298441  33.9007467  22.5646746  37.3088513  34.0844009  23.2577417
  37.7271445  33.6220503  21.5908872  38.9498441  35.1617467  22.4206746
  38.3622305  35.9560858  21.9604192  39.2848441  35.6737467  23.7386746
  40.6458441  36.0737467  23.7766746  40.8330371  37.0638433  24.1923269
  41.3378441  35.1847467  24.7166746  41.0748441  33.8577467  24.9476746
  40.3580643  33.3307620  24.3353712  41.8068441  33.3337467  25.9006746
  42.6168441  34.3797467  26.3166746  43.6188441  34.4777467  27.3156746
  43.9668441  33.4717467  28.1356746  44.6906028  33.6105501  28.8263325
  43.5046616  32.5767798  28.0613748  44.2498441  35.6637467  27.4536746
  43.8848441  36.6797467  26.6596746  44.3748295  37.6374559  26.7551020
  42.9558441  36.7157467  25.7046746  42.3528441  35.5247467  25.5796746
  40.2908441  34.9477467  21.7376746  40.9159835  34.0887436  21.4939261
  41.1558441  36.0527467  22.3356746  42.1377488  35.7008599  22.0192284
  40.8908441  37.3057467  21.7396746  41.5785847  37.9075143  22.0337652
  40.1698441  35.0157467  20.3166746  40.7998441  33.8417467  19.4006746
  40.6998441  34.2507467  17.9656746  40.2138441  32.5447467  19.8506746
  42.3318441  33.7967467  19.8256746  42.6618441  33.3507467  21.1126746
  42.6776933  32.2608639  21.1147566  41.9124659  33.7040580  21.8209852
  44.0058441  33.8627467  21.5226746  44.2125701  34.8661366  21.1504214
  43.9858441  34.0067467  22.9576746  44.9368441  33.1457467  23.5386746
  45.3499926  33.5938937  24.4423183  44.2148441  31.9777467  24.0316746
  42.9808441  31.5307467  23.6176746  42.4344198  32.0527868  22.8461199
  42.5848441  30.4597467  24.2456746  43.6178441  30.1847467  25.1286746
  43.7588441  29.1437467  26.0716746  42.9758441  28.2257467  26.3216746
  44.9608441  29.2417467  26.7626746  45.1559436  28.5504279  27.4583851
  45.8988441  30.2267467  26.5696746  46.9788441  30.1717467  27.3686746
  47.1634310  29.4951250  28.0954559  47.6712447  30.8960270  27.2417875
  45.7838441  31.1947467  25.6756746  44.6268441  31.1147467  25.0016746
  45.1238441  32.8927467  21.1846746  45.2407418  31.9541167  20.6430037
  45.9778441  32.8587467  22.4546746  46.4088333  31.8784603  22.2512388
  47.0108441  33.8237467  22.5166746  47.6009182  33.5580888  23.2257861
  45.7638441  33.3347467  19.9816746  46.4902440  32.7828471  19.6827622
  37.3588441  36.4567467  35.2216746  36.5548441  35.1667467  35.6686746
  37.0308441  34.6527467  36.7236746  38.0908441  34.9957467  37.4806746
  38.8358441  36.0737467  37.1666746  38.4108441  36.9067467  35.8936746
  39.0778441  37.8537467  35.6256746  39.9858441  36.3127467  38.1626746
  40.9908441  37.3977467  38.0976746  41.7348441  38.2787467  38.0126746
  39.8848441  35.3227467  39.0566746  38.8458441  34.4557467  38.8496746
  35.4628441  34.7647467  34.9246746  36.9848441  36.7877467  34.5206746
  40.4158441  35.1617467  39.7626746  38.3988441  33.7567467  39.0676746
  35.2528441  35.4037467  34.3596746  35.0198441  34.1127467  35.4496746
  50.5198553  37.7163833  41.4896493  48.8048553  41.2223833  54.4696493
  22.3910113  44.7683833  40.0696493  40.3648553  20.9542753  48.2326493
  51.5028553  47.0883833  37.0934083  50.1778553  29.9253833  44.7866493
  37.6620113  16.2562753  31.2254083  23.6960113  29.0273833  45.1636493
  43.6168553  53.6754913  30.6284083  30.8660113  35.4533833  21.2124083
  49.2368553  50.5044913  50.0656493  28.8690113  45.8313833  60.5708903
  39.4248553  22.7332753  21.2214083  39.5988553  16.2952753  41.4206493
  25.3350113  46.9363833  33.7444083  47.1078553  30.1443833  53.5736493
  23.4890113  31.3613833  33.3334083  42.3648553  41.6773833  62.9988903
  20.9310113  43.7163833  51.1686493  54.5558553  35.1193833  27.4074083
  50.5198553  19.2382753  41.4896493  31.2140113  50.0374913  28.0584083
  30.8370113  60.2754913  51.0106493  32.1360113  26.3722753  57.8376493
  45.2008553  58.7494913  44.6016493  48.5898553  43.6243833  21.0284083
  28.6390113  23.2892753  25.2084083  27.1620113  17.3732753  42.1516493
  35.4460113  43.5383833  17.0501673  21.6800113  33.7833833  52.6326493
  53.9998553  32.9733833  37.7774083  44.5718553  55.8684913  58.4478903
  24.3780113  54.8154913  45.3936493  42.7268553  30.8153833  10.8621673
  49.9868553  18.3632753  30.4514083  40.0508553  32.6883833  62.6638903
  23.9680113  40.2643833  27.3604083  40.6948553  61.5614913  34.8004083
  30.8660113  53.9314913  59.2248903  29.7810113  20.2552753  50.9526493
  35.1650113  28.8583833  16.6551673  53.1778553  43.0393833  45.2276493
  39.7958553  62.1944913  70.1748903  18.4441673  35.6843833  40.4016493
  54.7528553  29.4293833  13.5321673  61.4256993  47.5054913  26.1574083
  27.2280113  62.8324913  30.5634083  26.8850113  15.3692753  31.7114083
  41.3908553  22.0212753  54.8436493  34.6030113  49.9274913  72.8808903
  60.8606993  20.9692753  31.5594083  43.0988553  68.1495993  55.0436493
  38.9140113  50.4084913  21.0674083  31.8940113  54.5034913  65.8158903
  55.6968553  40.5323833  22.0294083  24.6890113  25.4712753  54.4396493
  36.4690113  57.7884913  24.6244083  58.9116993  35.9563833  43.9556493
  32.2200113  12.8912753  37.2044083  42.4808553  64.8284913  61.5878903
  19.0511673  41.5133833  32.3054083  32.4560113  35.8363833  13.5121673
  45.4418553  27.8372753  62.1688903  16.2511673  37.3553833  48.3556493
  56.6278553  15.3152753  38.2544083  24.7960113  55.8734913  32.5774083
  46.1298553  23.8322753  13.4491673  46.8188553  67.5295993  46.8826493
  36.6000113  15.0762753  53.8476493  35.2860113  42.0363833  68.6938903
  44.1998553  46.9363833  14.7381673  55.7648553  45.4233833  53.3796493
  35.0040113  16.8052753  24.7704083  61.5916993  30.8153833  29.8684083
  69.0426993  66.8815993  63.7928903  68.7976993  67.3695993  63.1128903
  69.9056993  66.8085993  63.6928903  69.1336993  66.9425993  63.6778903
  68.8516993  73.7975993  68.4638903  68.3276993  74.3935993  68.8268903
  69.2486993  73.4295993  69.1478903  68.8326993  73.8315993  68.6188903
  58.4636993  71.7295993  60.4268903  57.6856993  71.8915993  60.0668903
  58.5026993  70.8585993  60.4488903  58.3546993  71.6245993  60.3768903
  71.5226993  74.8645993  65.1398903  71.6026993  74.8685993  64.2708903
  70.9386993  74.2325993  65.2888903  71.4476993  74.7715993  65.0338903
  65.5116993  67.9685993  62.9478903  65.4416993  68.6455993  62.4018903
  66.2526993  67.5805993  62.6988903  65.6106993  68.0115993  62.8298903
  60.1066993  75.1935993  64.3768903  59.6446993  74.8015993  63.7498903
  60.8066993  74.6805993  64.4688903  60.1416993  75.0605993  64.2978903
  64.6146993  70.8035993  69.7238903  65.2926993  70.8215993  69.1748903
  64.5696993  69.9675993  69.9688903  64.7076993  70.6825993  69.6788903
  62.1076993  73.2935993  64.3998903  62.9246993  73.1065993  64.6428903
  61.6306993  72.6795993  64.7958903  62.1576993  73.1755993  64.4948903
  68.3366993  72.8545993  74.5598903  67.4886993  72.7555993  74.3818903
  68.3656993  73.5995993  75.0138903  68.2156993  72.9505993  74.6008903
  62.7046993  68.3875993  63.6658903  62.4086993  68.8885993  63.0158903
  63.5716993  68.4655993  63.6088903  62.7886993  68.4735993  63.5618903
  72.8946993  65.8145993  73.6738903  72.7366993  66.5835993  73.2918903
  72.1226993  65.5945993  74.0178903  72.7566993  65.8955993  73.6688903
  65.6836993  67.5295993  65.8888903  65.7566993  68.3895993  66.0178903
  65.6456993  67.4545993  65.0208903  65.6886993  67.6455993  65.7798903
  70.3566993  70.4555993  58.1878903  69.9066993  71.1365993  58.4948903
  70.4706993  69.9515993  58.8908903  70.3076993  70.4815993  58.3368903
  58.5626993  72.9545993  67.3898903  58.3066993  73.7855993  67.3148903
  57.8986993  72.5715993  67.8068903  58.4266993  73.0205993  67.4408903
  61.5916993  67.7715993  67.8808903  61.0706993  67.1435993  67.5728903
  62.1826993  67.3345993  68.3518903  61.6026993  67.6135993  67.9048903
  75.7506993  70.4285993  64.4828903  75.4046993  71.1065993  64.9088903
  75.1146993  69.8305993  64.4988903  75.6056993  70.4405993  64.5478903
  60.6306993  69.5015993  76.1628903  59.8526993  69.1115993  76.0908903
  61.1216993  69.0895993  75.5718903  60.5876993  69.3825993  76.0648903
  67.2796993  67.1445993  75.3308903  67.4576993  66.3355993  75.0558903
  67.1366993  67.5855993  74.5918903  67.2846993  67.0905993  75.1808903
  67.8736993  72.0705993  64.1038903  68.1606993  71.8385993  63.3138903
  68.6056993  72.1495993  64.5728903  68.0236993  72.0475993  64.0568903
  68.5956993  72.4095993  59.2248903  68.8766993  73.1975993  59.4738903
  67.8196993  72.5745993  58.8618903  68.5226993  72.5505993  59.2078903
  57.9786993  70.0495993  73.7488903  57.9746993  70.6365993  74.3948903
  58.5726993  70.3615993  73.1918903  58.0656993  70.1825993  73.7618903
  70.9616993  68.4765993  60.0948903  71.5016993  67.7945993  60.1708903
  71.0236993  68.8745993  60.8688903  71.0506993  68.4345993  60.2208903
  58.9156993  69.6445993  62.6638903  58.8016993  68.7805993  62.6948903
  58.4406993  69.9385993  63.3338903  58.8286993  69.5605993  62.7668903
  68.2196993  70.8525993  61.4088903  67.7116993  70.1905993  61.1548903
  68.2716993  71.3565993  60.6988903  68.1526993  70.8295993  61.2668903
  68.2196993  67.7935993  61.2998903  67.7646993  67.3915993  60.6738903
  68.9926993  67.9485993  60.9248903  68.2666993  67.7575993  61.1518903
  66.8176993  70.1605993  65.8218903  66.8916993  70.7285993  65.1638903
  66.9386993  70.6525993  66.5318903  66.8456993  70.3175993  65.8298903
  61.4256993  65.9835993  64.1698903  61.9616993  66.6715993  64.1598903
  61.4286993  65.7095993  63.3418903  61.5046993  66.0445993  64.0458903
  70.6096993  70.3305993  71.7098903  70.5146993  70.6495993  72.5158903
  70.0166993  69.6915993  71.6718903  70.5076993  70.2825993  71.8238903
  71.8656993  66.2745993  64.5458903  71.9146993  65.9565993  65.3568903
  72.1886993  65.6305993  64.0528903  71.9206993  66.1325993  64.5928903
  74.3296993  70.5105993  72.8538903  75.1016993  70.2855993  73.1908903
  73.8546993  70.7275993  73.5538903  74.3736993  70.5095993  73.0068903
  61.8736993  69.7935993  65.8238903  62.1456993  69.3635993  65.1158903
  61.6976993  69.1575993  66.3948903  61.8876993  69.6365993  65.8038903
  60.0146993  70.8955993  68.9058903  60.8576993  71.1155993  68.8628903
  59.6256993  71.4685993  68.3748903  60.0816993  71.0125993  68.8208903
  72.4566993  74.0255993  59.6268903  72.2366993  74.7565993  59.2048903
  72.0086993  74.0765993  60.3738903  72.3576993  74.1405993  59.6748903
  74.6456993  68.4445993  61.3588903  75.3916993  68.0375993  61.5578903
  74.9086993  69.1595993  60.9338903  74.7946993  68.4905993  61.3258903
  71.0996993  70.7325993  66.4318903  71.4436993  70.8845993  67.2188903
  70.6466993  69.9945993  66.5448903  71.0836993  70.6455993  66.5648903
  65.5756993  69.9525993  60.8888903  65.5736993  69.8355993  60.0238903
  65.3946993  70.8005993  60.9808903  65.5486993  70.0605993  60.7748903
  61.4436993  73.3875993  75.3828903  60.9076993  72.8815993  75.8508903
  61.4636993  72.9975993  74.6028903  61.3666993  73.2545993  75.3368903
  61.9286993  72.7845993  60.5228903  61.8006993  72.3365993  61.2608903
  61.3466993  72.4425993  59.9708903  61.8236993  72.6675993  60.5508903
  62.0956993  74.6145993  67.1218903  61.3146993  74.5555993  66.7388903
  62.1676993  73.8625993  67.5588903  61.9906993  74.4955993  67.1298903
  62.5256993  74.3515993  70.5898903  62.5506993  73.6765993  70.0388903
  61.8796993  74.8475993  70.2778903  62.4346993  74.3245993  70.4628903
  72.4206993  72.0645993  68.9858903  71.7586993  72.3925993  69.4488903
  72.6076993  72.6985993  68.4168903  72.3506993  72.2065993  68.9698903
  69.0656993  67.9705993  72.4148903  69.2146993  67.1455993  72.1718903
  69.4446993  68.0255993  73.1988903  69.1436993  67.8565993  72.4948903
  70.6136993  70.0335993  62.4968903  71.1036993  70.7505993  62.4198903
  69.8236993  70.2945993  62.2338903  70.5696993  70.1775993  62.4468903
  67.1956993  71.5035993  68.2218903  67.6756993  72.2025993  68.4298903
  67.5686993  70.8565993  68.6728903  67.3216993  71.5115993  68.3188903
  69.3846993  74.6725993  60.4958903  69.3766993  75.3945993  60.0058903
  68.7456993  74.8075993  61.0728903  69.2896993  74.7995993  60.5088903
  63.9776993  67.0145993  60.1568903  64.0746993  66.9075993  61.0178903
  63.2696993  67.5205993  60.0918903  63.8876993  67.0735993  60.2748903
  74.7066993  66.7555993  75.5538903  74.0696993  66.3555993  75.1118903
  74.7326993  66.3245993  76.3118903  74.6166993  66.6335993  75.5998903
  58.0966993  66.9825993  62.3678903  58.2256993  66.2745993  61.8758903
  57.7296993  66.6645993  63.0928903  58.0616993  66.8305993  62.4028903
  67.7896993  74.6635993  62.8248903  67.8486993  75.3135993  63.4038903
  67.6006993  73.9675993  63.3158903  67.7706993  74.6565993  62.9828903
  62.2856993  69.1805993  59.3368903  61.7746993  69.2335993  58.6308903
  63.0696993  69.4205993  59.0408903  62.3256993  69.2235993  59.1888903
  64.0906993  71.5745993  66.3068903  64.9366993  71.3845993  66.4048903
  63.7206993  70.7975993  66.1688903  64.1606993  71.4315993  66.3008903
  58.9116993  72.9125993  62.9618903  59.4006993  72.6205993  63.6228903
  59.0406993  72.3195993  62.3348903  59.0026993  72.7815993  62.9668903
  63.4366993  74.3465993  58.4478903  62.8266993  73.9415993  58.9218903
  63.0506993  74.4645993  57.6748903  63.2896993  74.3035993  58.4038903
  64.8916993  72.8075993  61.1578903  65.1636993  73.6335993  61.2248903
  64.0286993  72.8825993  61.0618903  64.8046993  72.9405993  61.1528903
  72.8646993  69.9295993  75.7898903  72.3396993  70.3885993  76.3138903
  72.5036993  69.1345993  75.7838903  72.7336993  69.8795993  75.8658903
  58.3716993  68.7775993  67.6938903  58.4156993  69.1215993  66.8928903
  59.1266993  69.0145993  68.0608903  58.4896993  68.8635993  67.6298903
  71.3566993  73.4985993  75.8658903  71.4296993  73.6025993  76.7288903
  70.7226993  74.0565993  75.6448903  71.2736993  73.5965993  75.9608903
  73.6246993  73.8175993  74.2308903  73.9436993  74.6035993  74.4338903
  73.2546993  73.5475993  74.9738903  73.6176993  73.8935993  74.3708903
  73.4206993  72.0755993  65.4198903  72.6756993  71.7525993  65.7378903
  73.4226993  72.9015993  65.6998903  73.3106993  72.1495993  65.5078903
  72.3326993  68.4055993  72.8808903  73.0766993  68.8575993  72.8178903
  71.7666993  68.8755993  72.4118903  72.3596993  68.5425993  72.8028903
  64.2206993  71.2925993  72.6998903  64.3816993  70.5485993  73.1268903
  64.1756993  71.0435993  71.8648903  64.2376993  71.1455993  72.6398903
  73.6176993  66.3855993  70.5508903  73.3376993  67.2105993  70.5068903
  74.3336993  66.4385993  71.0468903  73.6826993  66.5155993  70.6178903
  65.9726993  67.1005993  72.5798903  66.6776993  67.4205993  72.1778903
  66.2136993  66.2935993  72.8068903  66.1116993  67.0285993  72.5538903
  75.0386993  72.6405993  59.4078903  75.4166993  73.3175993  59.0078903
  74.1966993  72.8645993  59.4388903  74.9696993  72.7735993  59.3528903
  62.4816993  72.1535993  68.6408903  62.9216993  72.0505993  67.8948903
  63.0266993  71.8405993  69.2458903  62.6266993  72.0925993  68.6198903
  70.4976993  71.2555993  74.2328903  69.8496993  71.7255993  74.5808903
  71.0626993  71.1665993  74.8918903  70.4856993  71.3115993  74.3818903
  70.1856993  72.7925993  70.5308903  70.4876993  73.2125993  71.2338903
  70.2216993  71.9525993  70.7628903  70.2356993  72.7305993  70.6688903
  72.7336993  72.2395993  62.7828903  72.9406993  72.0385993  63.6068903
  73.4896993  72.5075993  62.4408903  72.8756993  72.2495993  62.8538903
  66.0286993  67.1385993  68.6878903  65.2026993  66.9895993  68.9248903
  65.9886993  67.1735993  67.8168903  65.9006993  67.1215993  68.5938903
  73.7556993  68.3225993  64.2568903  73.0416993  67.8515993  64.4278903
  73.5936993  68.6635993  63.4708903  73.6266993  68.3035993  64.1658903
  58.5936993  67.5365993  74.7228903  58.4536993  68.3315993  74.3918903
  57.8076993  67.2935993  75.0118903  58.4566993  67.6185993  74.7168903
  61.6576993  70.2805993  61.9478903  61.7836993  69.9515993  61.1498903
  60.8456993  70.0315993  62.1468903  61.5566993  70.1955993  61.8598903
  70.8476993  74.0995993  72.9708903  70.5926993  73.3805993  73.3928903
  71.6686993  74.2155993  73.2408903  70.9316993  74.0105993  73.0728903
  61.6346993  72.2915993  72.3638903  62.0096993  72.9105993  71.8768903
  62.3086993  71.8175993  72.6488903  61.7896993  72.3135993  72.3338903
  59.4096993  70.7395993  71.6388903  59.4866993  70.5705993  70.7858903
  60.1556993  71.1455993  71.8358903  59.5306993  70.7745993  71.5418903
  74.9686993  73.3795993  62.0788903  75.0716993  73.3215993  61.2148903
  75.7096993  73.0475993  62.3968903  75.0936993  73.3225993  61.9978903
  61.9636993  68.1495993  74.0498903  61.8826993  67.3055993  74.2558903
  61.6496993  68.1935993  73.2368903  61.9056993  68.0315993  73.9598903
  74.0706993  73.5255993  71.4348903  74.0686993  72.6625993  71.5588903
  74.1376993  73.8495993  72.2418903  74.0806993  73.4455993  71.5718903
  60.2626993  71.9015993  58.4808903  59.5906993  71.9155993  59.0368903
  60.3576993  71.0535993  58.2968903  60.1776993  71.7785993  58.5358903
  69.9496993  68.3255993  75.2168903  70.0416993  69.0375993  75.7108903
  69.3126993  67.8805993  75.6138903  69.8686993  68.3645993  75.3488903
  68.9436993  68.5155993  66.0708903  68.2436993  69.0335993  66.0148903
  68.9816993  68.1355993  65.2868903  68.8456993  68.5365993  65.9468903
  72.5416993  69.0315993  68.8708903  73.3966993  69.1305993  69.0158903
  72.1726993  69.5845993  69.4358903  72.6136993  69.1285993  68.9758903
  72.8456993  74.3115993  67.3618903  73.5116993  74.8525993  67.5218903
  72.5006993  74.6225993  66.6228903  72.8926993  74.4375993  67.2768903
  63.9986993  68.2345993  70.6978903  63.1346993  68.3185993  70.7778903
  64.2186993  67.7205993  71.3668903  63.9036993  68.1715993  70.8088903
  68.1016993  68.9825993  69.0718903  67.3646993  68.5285993  69.1848903
  68.6726993  68.5805993  69.5948903  68.0766993  68.8555993  69.1658903
  65.6046993  73.3115993  74.2758903  65.2826993  72.7355993  73.7058903
  65.2456993  74.0665993  74.0298903  65.5046993  73.3375993  74.1558903
  66.4006993  66.5635993  58.9028903  66.4786993  66.8105993  58.0698903
  65.6576993  66.9405993  59.1608903  66.3026993  66.6555993  58.8178903
  61.2186993  68.3175993  71.3458903  60.8756993  67.5505993  71.1118903
  60.5236993  68.8415993  71.4098903  61.0656993  68.2815993  71.3208903
  70.2646993  67.1735993  68.3228903  70.9346993  67.7175993  68.4498903
  69.7616993  67.5975993  67.7498903  70.2896993  67.3165993  68.2568903
  69.6236993  72.9815993  65.8158903  70.1746993  72.3745993  66.1158903
  69.1986993  73.2445993  66.5308903  69.6426993  72.9305993  65.9648903
  59.8716993  71.6315993  65.3018903  59.5036993  71.9335993  66.0328903
  60.4056993  71.0025993  65.5858903  59.8956993  71.5835993  65.4518903
  71.5936993  74.8125993  62.3778903  71.6616993  73.9625993  62.5588903
  70.7706993  74.8985993  62.0998903  71.4816993  74.6995993  62.3638903
  75.4926993  70.7495993  76.2668903  75.2966993  71.3935993  76.8218903
  74.7706993  70.2595993  76.2588903  75.3576993  70.7725993  76.3478903
  75.3916993  71.6905993  69.2378903  74.5586993  71.9405993  69.1658903
  75.3356993  70.8505993  69.4668903  75.2606993  71.6035993  69.2608903
  64.6516993  68.6785993  74.4318903  64.8856993  68.1025993  73.8188903
  63.8096993  68.4975993  74.5728903  64.5616993  68.5665993  74.3618903
  69.0426993  66.8815993  44.7866493  68.7976993  67.3695993  44.1066493
  69.9056993  66.8085993  44.6866493  69.1336993  66.9425993  44.6716493
  68.8516993  73.7975993  49.4576493  68.3276993  74.3935993  49.8206493
  69.2486993  73.4295993  50.1416493  68.8326993  73.8315993  49.6126493
  58.4636993  71.7295993  41.4206493  57.6856993  71.8915993  41.0606493
  58.5026993  70.8585993  41.4426493  58.3546993  71.6245993  41.3706493
  71.5226993  74.8645993  46.1336493  71.6026993  74.8685993  45.2646493
  70.9386993  74.2325993  46.2826493  71.4476993  74.7715993  46.0276493
  65.5116993  67.9685993  43.9416493  65.4416993  68.6455993  43.3956493
  66.2526993  67.5805993  43.6926493  65.6106993  68.0115993  43.8236493
  60.1066993  75.1935993  45.3706493  59.6446993  74.8015993  44.7436493
  60.8066993  74.6805993  45.4626493  60.1416993  75.0605993  45.2916493
  64.6146993  70.8035993  50.7176493  65.2926993  70.8215993  50.1686493
  64.5696993  69.9675993  50.9626493  64.7076993  70.6825993  50.6726493
  62.1076993  73.2935993  45.3936493  62.9246993  73.1065993  45.6366493
  61.6306993  72.6795993  45.7896493  62.1576993  73.1755993  45.4886493
  68.3366993  72.8545993  55.5536493  67.4886993  72.7555993  55.3756493
  68.3656993  73.5995993  56.0076493  68.2156993  72.9505993  55.5946493
  62.7046993  68.3875993  44.6596493  62.4086993  68.8885993  44.0096493
  63.5716993  68.4655993  44.6026493  62.7886993  68.4735993  44.5556493
  72.8946993  65.8145993  54.6676493  72.7366993  66.5835993  54.2856493
  72.1226993  65.5945993  55.0116493  72.7566993  65.8955993  54.6626493
  65.6836993  67.5295993  46.8826493  65.7566993  68.3895993  47.0116493
  65.6456993  67.4545993  46.0146493  65.6886993  67.6455993  46.7736493
  70.3566993  70.4555993  39.1816493  69.9066993  71.1365993  39.4886493
  70.4706993  69.9515993  39.8846493  70.3076993  70.4815993  39.3306493
  58.5626993  72.9545993  48.3836493  58.3066993  73.7855993  48.3086493
  57.8986993  72.5715993  48.8006493  58.4266993  73.0205993  48.4346493
  61.5916993  67.7715993  48.8746493  61.0706993  67.1435993  48.5666493
  62.1826993  67.3345993  49.3456493  61.6026993  67.6135993  48.8986493
  64.8976993  69.9045993  58.1726493  65.0146993  69.4505993  57.4366493
  65.1856993  70.7025993  57.9696493  64.9576993  69.9555993  58.0336493
  75.7506993  70.4285993  45.4766493  75.4046993  71.1065993  45.9026493
  75.1146993  69.8305993  45.4926493  75.6056993  70.4405993  45.5416493
  60.6306993  69.5015993  57.1566493  59.8526993  69.1115993  57.0846493
  61.1216993  69.0895993  56.5656493  60.5876993  69.3825993  57.0586493
  67.2796993  67.1445993  56.3246493  67.4576993  66.3355993  56.0496493
  67.1366993  67.5855993  55.5856493  67.2846993  67.0905993  56.1746493
  67.8736993  72.0705993  45.0976493  68.1606993  71.8385993  44.3076493
  68.6056993  72.1495993  45.5666493  68.0236993  72.0475993  45.0506493
  68.5956993  72.4095993  40.2186493  68.8766993  73.1975993  40.4676493
  67.8196993  72.5745993  39.8556493  68.5226993  72.5505993  40.2016493
  57.9786993  70.0495993  54.7426493  57.9746993  70.6365993  55.3886493
  58.5726993  70.3615993  54.1856493  58.0656993  70.1825993  54.7556493
  70.9616993  68.4765993  41.0886493  71.5016993  67.7945993  41.1646493
  71.0236993  68.8745993  41.8626493  71.0506993  68.4345993  41.2146493
  58.9156993  69.6445993  43.6576493  58.8016993  68.7805993  43.6886493
  58.4406993  69.9385993  44.3276493  58.8286993  69.5605993  43.7606493
  68.2196993  70.8525993  42.4026493  67.7116993  70.1905993  42.1486493
  68.2716993  71.3565993  41.6926493  68.1526993  70.8295993  42.2606493
  68.2196993  67.7935993  42.2936493  67.7646993  67.3915993  41.6676493
  68.9926993  67.9485993  41.9186493  68.2666993  67.7575993  42.1456493
  66.8176993  70.1605993  46.8156493  66.8916993  70.7285993  46.1576493
  66.9386993  70.6525993  47.5256493  66.8456993  70.3175993  46.8236493
  61.4256993  65.9835993  45.1636493  61.9616993  66.6715993  45.1536493
  61.4286993  65.7095993  44.3356493  61.5046993  66.0445993  45.0396493
  70.6096993  70.3305993  52.7036493  70.5146993  70.6495993  53.5096493
  70.0166993  69.6915993  52.6656493  70.5076993  70.2825993  52.8176493
  71.8656993  66.2745993  45.5396493  71.9146993  65.9565993  46.3506493
  72.1886993  65.6305993  45.0466493  71.9206993  66.1325993  45.5866493
  74.3296993  70.5105993  53.8476493  75.1016993  70.2855993  54.1846493
  73.8546993  70.7275993  54.5476493  74.3736993  70.5095993  54.0006493
  61.8736993  69.7935993  46.8176493  62.1456993  69.3635993  46.1096493
  61.6976993  69.1575993  47.3886493  61.8876993  69.6365993  46.7976493
  60.0146993  70.8955993  49.8996493  60.8576993  71.1155993  49.8566493
  59.6256993  71.4685993  49.3686493  60.0816993  71.0125993  49.8146493
  72.4566993  74.0255993  40.6206493  72.2366993  74.7565993  40.1986493
  72.0086993  74.0765993  41.3676493  72.3576993  74.1405993  40.6686493
  65.8686993  72.5805993  58.0176493  65.3846993  73.1575993  58.4596493
  65.8406993  72.8755993  57.1966493  65.7926993  72.7095993  57.9616493
  74.6456993  68.4445993  42.3526493  75.3916993  68.0375993  42.5516493
  74.9086993  69.1595993  41.9276493  74.7946993  68.4905993  42.3196493
  71.0996993  70.7325993  47.4256493  71.4436993  70.8845993  48.2126493
  70.6466993  69.9945993  47.5386493  71.0836993  70.6455993  47.5586493
  65.5756993  69.9525993  41.8826493  65.5736993  69.8355993  41.0176493
  65.3946993  70.8005993  41.9746493  65.5486993  70.0605993  41.7686493
  61.4436993  73.3875993  56.3766493  60.9076993  72.8815993  56.8446493
  61.4636993  72.9975993  55.5966493  61.3666993  73.2545993  56.3306493
  61.9286993  72.7845993  41.5166493  61.8006993  72.3365993  42.2546493
  61.3466993  72.4425993  40.9646493  61.8236993  72.6675993  41.5446493
  62.0956993  74.6145993  48.1156493  61.3146993  74.5555993  47.7326493
  62.1676993  73.8625993  48.5526493  61.9906993  74.4955993  48.1236493
  62.5256993  74.3515993  51.5836493  62.5506993  73.6765993  51.0326493
  61.8796993  74.8475993  51.2716493  62.4346993  74.3245993  51.4566493
  72.4206993  72.0645993  49.9796493  71.7586993  72.3925993  50.4426493
  72.6076993  72.6985993  49.4106493  72.3506993  72.2065993  49.9636493
  69.0656993  67.9705993  53.4086493  69.2146993  67.1455993  53.1656493
  69.4446993  68.0255993  54.1926493  69.1436993  67.8565993  53.4886493
  70.6136993  70.0335993  43.4906493  71.1036993  70.7505993  43.4136493
  69.8236993  70.2945993  43.2276493  70.5696993  70.1775993  43.4406493
  67.1956993  71.5035993  49.2156493  67.6756993  72.2025993  49.4236493
  67.5686993  70.8565993  49.6666493  67.3216993  71.5115993  49.3126493
  69.3846993  74.6725993  41.4896493  69.3766993  75.3945993  40.9996493
  68.7456993  74.8075993  42.0666493  69.2896993  74.7995993  41.5026493
  63.9776993  67.0145993  41.1506493  64.0746993  66.9075993  42.0116493
  63.2696993  67.5205993  41.0856493  63.8876993  67.0735993  41.2686493
  74.7066993  66.7555993  56.5476493  74.0696993  66.3555993  56.1056493
  74.7326993  66.3245993  57.3056493  74.6166993  66.6335993  56.5936493
  58.0966993  66.9825993  43.3616493  58.2256993  66.2745993  42.8696493
  57.7296993  66.6645993  44.0866493  58.0616993  66.8305993  43.3966493
  67.7896993  74.6635993  43.8186493  67.8486993  75.3135993  44.3976493
  67.6006993  73.9675993  44.3096493  67.7706993  74.6565993  43.9766493
  62.2856993  69.1805993  40.3306493  61.7746993  69.2335993  39.6246493
  63.0696993  69.4205993  40.0346493  62.3256993  69.2235993  40.1826493
  64.0906993  71.5745993  47.3006493  64.9366993  71.3845993  47.3986493
  63.7206993  70.7975993  47.1626493  64.1606993  71.4315993  47.2946493
  58.9116993  72.9125993  43.9556493  59.4006993  72.6205993  44.6166493
  59.0406993  72.3195993  43.3286493  59.0026993  72.7815993  43.9606493
  63.4366993  74.3465993  39.4416493  62.8266993  73.9415993  39.9156493
  63.0506993  74.4645993  38.6686493  63.2896993  74.3035993  39.3976493
  64.8916993  72.8075993  42.1516493  65.1636993  73.6335993  42.2186493
  64.0286993  72.8825993  42.0556493  64.8046993  72.9405993  42.1466493
  72.8646993  69.9295993  56.7836493  72.3396993  70.3885993  57.3076493
  72.5036993  69.1345993  56.7776493  72.7336993  69.8795993  56.8596493
  58.3716993  68.7775993  48.6876493  58.4156993  69.1215993  47.8866493
  59.1266993  69.0145993  49.0546493  58.4896993  68.8635993  48.6236493
  71.3566993  73.4985993  56.8596493  71.4296993  73.6025993  57.7226493
  70.7226993  74.0565993  56.6386493  71.2736993  73.5965993  56.9546493
  73.6246993  73.8175993  55.2246493  73.9436993  74.6035993  55.4276493
  73.2546993  73.5475993  55.9676493  73.6176993  73.8935993  55.3646493
  73.4206993  72.0755993  46.4136493  72.6756993  71.7525993  46.7316493
  73.4226993  72.9015993  46.6936493  73.3106993  72.1495993  46.5016493
  72.3326993  68.4055993  53.8746493  73.0766993  68.8575993  53.8116493
  71.7666993  68.8755993  53.4056493  72.3596993  68.5425993  53.7966493
  64.2206993  71.2925993  53.6936493  64.3816993  70.5485993  54.1206493
  64.1756993  71.0435993  52.8586493  64.2376993  71.1455993  53.6336493
  73.6176993  66.3855993  51.5446493  73.3376993  67.2105993  51.5006493
  74.3336993  66.4385993  52.0406493  73.6826993  66.5155993  51.6116493
  65.9726993  67.1005993  53.5736493  66.6776993  67.4205993  53.1716493
  66.2136993  66.2935993  53.8006493  66.1116993  67.0285993  53.5476493
  75.0386993  72.6405993  40.4016493  75.4166993  73.3175993  40.0016493
  74.1966993  72.8645993  40.4326493  74.9696993  72.7735993  40.3466493
  62.4816993  72.1535993  49.6346493  62.9216993  72.0505993  48.8886493
  63.0266993  71.8405993  50.2396493  62.6266993  72.0925993  49.6136493
  70.4976993  71.2555993  55.2266493  69.8496993  71.7255993  55.5746493
  71.0626993  71.1665993  55.8856493  70.4856993  71.3115993  55.3756493
  70.1856993  72.7925993  51.5246493  70.4876993  73.2125993  52.2276493
  70.2216993  71.9525993  51.7566493  70.2356993  72.7305993  51.6626493
  72.7336993  72.2395993  43.7766493  72.9406993  72.0385993  44.6006493
  73.4896993  72.5075993  43.4346493  72.8756993  72.2495993  43.8476493
  66.0286993  67.1385993  49.6816493  65.2026993  66.9895993  49.9186493
  65.9886993  67.1735993  48.8106493  65.9006993  67.1215993  49.5876493
  73.7556993  68.3225993  45.2506493  73.0416993  67.8515993  45.4216493
  73.5936993  68.6635993  44.4646493  73.6266993  68.3035993  45.1596493
  58.5936993  67.5365993  55.7166493  58.4536993  68.3315993  55.3856493
  57.8076993  67.2935993  56.0056493  58.4566993  67.6185993  55.7106493
  61.6576993  70.2805993  42.9416493  61.7836993  69.9515993  42.1436493
  60.8456993  70.0315993  43.1406493  61.5566993  70.1955993  42.8536493
  70.8476993  74.0995993  53.9646493  70.5926993  73.3805993  54.3866493
  71.6686993  74.2155993  54.2346493  70.9316993  74.0105993  54.0666493
  61.6346993  72.2915993  53.3576493  62.0096993  72.9105993  52.8706493
  62.3086993  71.8175993  53.6426493  61.7896993  72.3135993  53.3276493
  59.4096993  70.7395993  52.6326493  59.4866993  70.5705993  51.7796493
  60.1556993  71.1455993  52.8296493  59.5306993  70.7745993  52.5356493
  74.9686993  73.3795993  43.0726493  75.0716993  73.3215993  42.2086493
  75.7096993  73.0475993  43.3906493  75.0936993  73.3225993  42.9916493
  61.9636993  68.1495993  55.0436493  61.8826993  67.3055993  55.2496493
  61.6496993  68.1935993  54.2306493  61.9056993  68.0315993  54.9536493
  74.0706993  73.5255993  52.4286493  74.0686993  72.6625993  52.5526493
  74.1376993  73.8495993  53.2356493  74.0806993  73.4455993  52.5656493
  60.2626993  71.9015993  39.4746493  59.5906993  71.9155993  40.0306493
  60.3576993  71.0535993  39.2906493  60.1776993  71.7785993  39.5296493
  69.9496993  68.3255993  56.2106493  70.0416993  69.0375993  56.7046493
  69.3126993  67.8805993  56.6076493  69.8686993  68.3645993  56.3426493
  68.9436993  68.5155993  47.0646493  68.2436993  69.0335993  47.0086493
  68.9816993  68.1355993  46.2806493  68.8456993  68.5365993  46.9406493
  72.5416993  69.0315993  49.8646493  73.3966993  69.1305993  50.0096493
  72.1726993  69.5845993  50.4296493  72.6136993  69.1285993  49.9696493
  72.8456993  74.3115993  48.3556493  73.5116993  74.8525993  48.5156493
  72.5006993  74.6225993  47.6166493  72.8926993  74.4375993  48.2706493
  63.9986993  68.2345993  51.6916493  63.1346993  68.3185993  51.7716493
  64.2186993  67.7205993  52.3606493  63.9036993  68.1715993  51.8026493
  68.1016993  68.9825993  50.0656493  67.3646993  68.5285993  50.1786493
  68.6726993  68.5805993  50.5886493  68.0766993  68.8555993  50.1596493
  65.6046993  73.3115993  55.2696493  65.2826993  72.7355993  54.6996493
  65.2456993  74.0665993  55.0236493  65.5046993  73.3375993  55.1496493
  66.4006993  66.5635993  39.8966493  66.4786993  66.8105993  39.0636493
  65.6576993  66.9405993  40.1546493  66.3026993  66.6555993  39.8116493
  61.2186993  68.3175993  52.3396493  60.8756993  67.5505993  52.1056493
  60.5236993  68.8415993  52.4036493  61.0656993  68.2815993  52.3146493
  70.2646993  67.1735993  49.3166493  70.9346993  67.7175993  49.4436493
  69.7616993  67.5975993  48.7436493  70.2896993  67.3165993  49.2506493
  69.6236993  72.9815993  46.8096493  70.1746993  72.3745993  47.1096493
  69.1986993  73.2445993  47.5246493  69.6426993  72.9305993  46.9586493
  59.8716993  71.6315993  46.2956493  59.5036993  71.9335993  47.0266493
  60.4056993  71.0025993  46.5796493  59.8956993  71.5835993  46.4456493
  71.5936993  74.8125993  43.3716493  71.6616993  73.9625993  43.5526493
  70.7706993  74.8985993  43.0936493  71.4816993  74.6995993  43.3576493
  75.4926993  70.7495993  57.2606493  75.2966993  71.3935993  57.8156493
  74.7706993  70.2595993  57.2526493  75.3576993  70.7725993  57.3416493
  75.3916993  71.6905993  50.2316493  74.5586993  71.9405993  50.1596493
  75.3356993  70.8505993  50.4606493  75.2606993  71.6035993  50.2546493
  64.6516993  68.6785993  55.4256493  64.8856993  68.1025993  54.8126493
  63.8096993  68.4975993  55.5666493  64.5616993  68.5665993  55.3556493
  69.0426993  66.8815993  25.7804083  68.7976993  67.3695993  25.1004083
  69.9056993  66.8085993  25.6804083  69.1336993  66.9425993  25.6654083
  68.8516993  73.7975993  30.4514083  68.3276993  74.3935993  30.8144083
  69.2486993  73.4295993  31.1354083  68.8326993  73.8315993  30.6064083
  58.4636993  71.7295993  22.4144083  57.6856993  71.8915993  22.0544083
  58.5026993  70.8585993  22.4364083  58.3546993  71.6245993  22.3644083
  71.5226993  74.8645993  27.1274083  71.6026993  74.8685993  26.2584083
  70.9386993  74.2325993  27.2764083  71.4476993  74.7715993  27.0214083
  65.5116993  67.9685993  24.9354083  65.4416993  68.6455993  24.3894083
  66.2526993  67.5805993  24.6864083  65.6106993  68.0115993  24.8174083
  60.1066993  75.1935993  26.3644083  59.6446993  74.8015993  25.7374083
  60.8066993  74.6805993  26.4564083  60.1416993  75.0605993  26.2854083
  64.6146993  70.8035993  31.7114083  65.2926993  70.8215993  31.1624083
  64.5696993  69.9675993  31.9564083  64.7076993  70.6825993  31.6664083
  62.1076993  73.2935993  26.3874083  62.9246993  73.1065993  26.6304083
  61.6306993  72.6795993  26.7834083  62.1576993  73.1755993  26.4824083
  68.3366993  72.8545993  36.5474083  67.4886993  72.7555993  36.3694083
  68.3656993  73.5995993  37.0014083  68.2156993  72.9505993  36.5884083
  62.7046993  68.3875993  25.6534083  62.4086993  68.8885993  25.0034083
  63.5716993  68.4655993  25.5964083  62.7886993  68.4735993  25.5494083
  72.8946993  65.8145993  35.6614083  72.7366993  66.5835993  35.2794083
  72.1226993  65.5945993  36.0054083  72.7566993  65.8955993  35.6564083
  65.6836993  67.5295993  27.8764083  65.7566993  68.3895993  28.0054083
  65.6456993  67.4545993  27.0084083  65.6886993  67.6455993  27.7674083
  70.3566993  70.4555993  20.1754083  69.9066993  71.1365993  20.4824083
  70.4706993  69.9515993  20.8784083  70.3076993  70.4815993  20.3244083
  58.5626993  72.9545993  29.3774083  58.3066993  73.7855993  29.3024083
  57.8986993  72.5715993  29.7944083  58.4266993  73.0205993  29.4284083
  61.5916993  67.7715993  29.8684083  61.0706993  67.1435993  29.5604083
  62.1826993  67.3345993  30.3394083  61.6026993  67.6135993  29.8924083
  64.8976993  69.9045993  39.1664083  65.0146993  69.4505993  38.4304083
  65.1856993  70.7025993  38.9634083  64.9576993  69.9555993  39.0274083
  75.7506993  70.4285993  26.4704083  75.4046993  71.1065993  26.8964083
  75.1146993  69.8305993  26.4864083  75.6056993  70.4405993  26.5354083
  60.6306993  69.5015993  38.1504083  59.8526993  69.1115993  38.0784083
  61.1216993  69.0895993  37.5594083  60.5876993  69.3825993  38.0524083
  67.2796993  67.1445993  37.3184083  67.4576993  66.3355993  37.0434083
  67.1366993  67.5855993  36.5794083  67.2846993  67.0905993  37.1684083
  67.8736993  72.0705993  26.0914083  68.1606993  71.8385993  25.3014083
  68.6056993  72.1495993  26.5604083  68.0236993  72.0475993  26.0444083
  68.5956993  72.4095993  21.2124083  68.8766993  73.1975993  21.4614083
  67.8196993  72.5745993  20.8494083  68.5226993  72.5505993  21.1954083
  57.9786993  70.0495993  35.7364083  57.9746993  70.6365993  36.3824083
  58.5726993  70.3615993  35.1794083  58.0656993  70.1825993  35.7494083
  70.9616993  68.4765993  22.0824083  71.5016993  67.7945993  22.1584083
  71.0236993  68.8745993  22.8564083  71.0506993  68.4345993  22.2084083
  58.9156993  69.6445993  24.6514083  58.8016993  68.7805993  24.6824083
  58.4406993  69.9385993  25.3214083  58.8286993  69.5605993  24.7544083
  68.2196993  70.8525993  23.3964083  67.7116993  70.1905993  23.1424083
  68.2716993  71.3565993  22.6864083  68.1526993  70.8295993  23.2544083
  68.2196993  67.7935993  23.2874083  67.7646993  67.3915993  22.6614083
  68.9926993  67.9485993  22.9124083  68.2666993  67.7575993  23.1394083
  66.8176993  70.1605993  27.8094083  66.8916993  70.7285993  27.1514083
  66.9386993  70.6525993  28.5194083  66.8456993  70.3175993  27.8174083
  61.4256993  65.9835993  26.1574083  61.9616993  66.6715993  26.1474083
  61.4286993  65.7095993  25.3294083  61.5046993  66.0445993  26.0334083
  70.6096993  70.3305993  33.6974083  70.5146993  70.6495993  34.5034083
  70.0166993  69.6915993  33.6594083  70.5076993  70.2825993  33.8114083
  71.8656993  66.2745993  26.5334083  71.9146993  65.9565993  27.3444083
  72.1886993  65.6305993  26.0404083  71.9206993  66.1325993  26.5804083
  74.3296993  70.5105993  34.8414083  75.1016993  70.2855993  35.1784083
  73.8546993  70.7275993  35.5414083  74.3736993  70.5095993  34.9944083
  61.8736993  69.7935993  27.8114083  62.1456993  69.3635993  27.1034083
  61.6976993  69.1575993  28.3824083  61.8876993  69.6365993  27.7914083
  60.0146993  70.8955993  30.8934083  60.8576993  71.1155993  30.8504083
  59.6256993  71.4685993  30.3624083  60.0816993  71.0125993  30.8084083
  72.4566993  74.0255993  21.6144083  72.2366993  74.7565993  21.1924083
  72.0086993  74.0765993  22.3614083  72.3576993  74.1405993  21.6624083
  65.8686993  72.5805993  39.0114083  65.3846993  73.1575993  39.4534083
  65.8406993  72.8755993  38.1904083  65.7926993  72.7095993  38.9554083
  74.6456993  68.4445993  23.3464083  75.3916993  68.0375993  23.5454083
  74.9086993  69.1595993  22.9214083  74.7946993  68.4905993  23.3134083
  71.0996993  70.7325993  28.4194083  71.4436993  70.8845993  29.2064083
  70.6466993  69.9945993  28.5324083  71.0836993  70.6455993  28.5524083
  65.5756993  69.9525993  22.8764083  65.5736993  69.8355993  22.0114083
  65.3946993  70.8005993  22.9684083  65.5486993  70.0605993  22.7624083
  61.4436993  73.3875993  37.3704083  60.9076993  72.8815993  37.8384083
  61.4636993  72.9975993  36.5904083  61.3666993  73.2545993  37.3244083
  61.9286993  72.7845993  22.5104083  61.8006993  72.3365993  23.2484083
  61.3466993  72.4425993  21.9584083  61.8236993  72.6675993  22.5384083
  62.0956993  74.6145993  29.1094083  61.3146993  74.5555993  28.7264083
  62.1676993  73.8625993  29.5464083  61.9906993  74.4955993  29.1174083
  62.5256993  74.3515993  32.5774083  62.5506993  73.6765993  32.0264083
  61.8796993  74.8475993  32.2654083  62.4346993  74.3245993  32.4504083
  72.4206993  72.0645993  30.9734083  71.7586993  72.3925993  31.4364083
  72.6076993  72.6985993  30.4044083  72.3506993  72.2065993  30.9574083
  69.0656993  67.9705993  34.4024083  69.2146993  67.1455993  34.1594083
  69.4446993  68.0255993  35.1864083  69.1436993  67.8565993  34.4824083
  70.6136993  70.0335993  24.4844083  71.1036993  70.7505993  24.4074083
  69.8236993  70.2945993  24.2214083  70.5696993  70.1775993  24.4344083
  67.1956993  71.5035993  30.2094083  67.6756993  72.2025993  30.4174083
  67.5686993  70.8565993  30.6604083  67.3216993  71.5115993  30.3064083
  69.3846993  74.6725993  22.4834083  69.3766993  75.3945993  21.9934083
  68.7456993  74.8075993  23.0604083  69.2896993  74.7995993  22.4964083
  63.9776993  67.0145993  22.1444083  64.0746993  66.9075993  23.0054083
  63.2696993  67.5205993  22.0794083  63.8876993  67.0735993  22.2624083
  74.7066993  66.7555993  37.5414083  74.0696993  66.3555993  37.0994083
  74.7326993  66.3245993  38.2994083  74.6166993  66.6335993  37.5874083
  58.0966993  66.9825993  24.3554083  58.2256993  66.2745993  23.8634083
  57.7296993  66.6645993  25.0804083  58.0616993  66.8305993  24.3904083
  67.7896993  74.6635993  24.8124083  67.8486993  75.3135993  25.3914083
  67.6006993  73.9675993  25.3034083  67.7706993  74.6565993  24.9704083
  62.2856993  69.1805993  21.3244083  61.7746993  69.2335993  20.6184083
  63.0696993  69.4205993  21.0284083  62.3256993  69.2235993  21.1764083
  64.0906993  71.5745993  28.2944083  64.9366993  71.3845993  28.3924083
  63.7206993  70.7975993  28.1564083  64.1606993  71.4315993  28.2884083
  58.9116993  72.9125993  24.9494083  59.4006993  72.6205993  25.6104083
  59.0406993  72.3195993  24.3224083  59.0026993  72.7815993  24.9544083
  63.4366993  74.3465993  20.4354083  62.8266993  73.9415993  20.9094083
  63.0506993  74.4645993  19.6624083  63.2896993  74.3035993  20.3914083
  64.8916993  72.8075993  23.1454083  65.1636993  73.6335993  23.2124083
  64.0286993  72.8825993  23.0494083  64.8046993  72.9405993  23.1404083
  72.8646993  69.9295993  37.7774083  72.3396993  70.3885993  38.3014083
  72.5036993  69.1345993  37.7714083  72.7336993  69.8795993  37.8534083
  58.3716993  68.7775993  29.6814083  58.4156993  69.1215993  28.8804083
  59.1266993  69.0145993  30.0484083  58.4896993  68.8635993  29.6174083
  71.3566993  73.4985993  37.8534083  71.4296993  73.6025993  38.7164083
  70.7226993  74.0565993  37.6324083  71.2736993  73.5965993  37.9484083
  73.6246993  73.8175993  36.2184083  73.9436993  74.6035993  36.4214083
  73.2546993  73.5475993  36.9614083  73.6176993  73.8935993  36.3584083
  73.4206993  72.0755993  27.4074083  72.6756993  71.7525993  27.7254083
  73.4226993  72.9015993  27.6874083  73.3106993  72.1495993  27.4954083
  72.3326993  68.4055993  34.8684083  73.0766993  68.8575993  34.8054083
  71.7666993  68.8755993  34.3994083  72.3596993  68.5425993  34.7904083
  64.2206993  71.2925993  34.6874083  64.3816993  70.5485993  35.1144083
  64.1756993  71.0435993  33.8524083  64.2376993  71.1455993  34.6274083
  73.6176993  66.3855993  32.5384083  73.3376993  67.2105993  32.4944083
  74.3336993  66.4385993  33.0344083  73.6826993  66.5155993  32.6054083
  65.9726993  67.1005993  34.5674083  66.6776993  67.4205993  34.1654083
  66.2136993  66.2935993  34.7944083  66.1116993  67.0285993  34.5414083
  75.0386993  72.6405993  21.3954083  75.4166993  73.3175993  20.9954083
  74.1966993  72.8645993  21.4264083  74.9696993  72.7735993  21.3404083
  62.4816993  72.1535993  30.6284083  62.9216993  72.0505993  29.8824083
  63.0266993  71.8405993  31.2334083  62.6266993  72.0925993  30.6074083
  70.4976993  71.2555993  36.2204083  69.8496993  71.7255993  36.5684083
  71.0626993  71.1665993  36.8794083  70.4856993  71.3115993  36.3694083
  70.1856993  72.7925993  32.5184083  70.4876993  73.2125993  33.2214083
  70.2216993  71.9525993  32.7504083  70.2356993  72.7305993  32.6564083
  72.7336993  72.2395993  24.7704083  72.9406993  72.0385993  25.5944083
  73.4896993  72.5075993  24.4284083  72.8756993  72.2495993  24.8414083
  66.0286993  67.1385993  30.6754083  65.2026993  66.9895993  30.9124083
  65.9886993  67.1735993  29.8044083  65.9006993  67.1215993  30.5814083
  73.7556993  68.3225993  26.2444083  73.0416993  67.8515993  26.4154083
  73.5936993  68.6635993  25.4584083  73.6266993  68.3035993  26.1534083
  58.5936993  67.5365993  36.7104083  58.4536993  68.3315993  36.3794083
  57.8076993  67.2935993  36.9994083  58.4566993  67.6185993  36.7044083
  61.6576993  70.2805993  23.9354083  61.7836993  69.9515993  23.1374083
  60.8456993  70.0315993  24.1344083  61.5566993  70.1955993  23.8474083
  70.8476993  74.0995993  34.9584083  70.5926993  73.3805993  35.3804083
  71.6686993  74.2155993  35.2284083  70.9316993  74.0105993  35.0604083
  61.6346993  72.2915993  34.3514083  62.0096993  72.9105993  33.8644083
  62.3086993  71.8175993  34.6364083  61.7896993  72.3135993  34.3214083
  59.4096993  70.7395993  33.6264083  59.4866993  70.5705993  32.7734083
  60.1556993  71.1455993  33.8234083  59.5306993  70.7745993  33.5294083
  74.9686993  73.3795993  24.0664083  75.0716993  73.3215993  23.2024083
  75.7096993  73.0475993  24.3844083  75.0936993  73.3225993  23.9854083
  61.9636993  68.1495993  36.0374083  61.8826993  67.3055993  36.2434083
  61.6496993  68.1935993  35.2244083  61.9056993  68.0315993  35.9474083
  74.0706993  73.5255993  33.4224083  74.0686993  72.6625993  33.5464083
  74.1376993  73.8495993  34.2294083  74.0806993  73.4455993  33.5594083
  60.2626993  71.9015993  20.4684083  59.5906993  71.9155993  21.0244083
  60.3576993  71.0535993  20.2844083  60.1776993  71.7785993  20.5234083
  69.9496993  68.3255993  37.2044083  70.0416993  69.0375993  37.6984083
  69.3126993  67.8805993  37.6014083  69.8686993  68.3645993  37.3364083
  68.9436993  68.5155993  28.0584083  68.2436993  69.0335993  28.0024083
  68.9816993  68.1355993  27.2744083  68.8456993  68.5365993  27.9344083
  72.5416993  69.0315993  30.8584083  73.3966993  69.1305993  31.0034083
  72.1726993  69.5845993  31.4234083  72.6136993  69.1285993  30.9634083
  72.8456993  74.3115993  29.3494083  73.5116993  74.8525993  29.5094083
  72.5006993  74.6225993  28.6104083  72.8926993  74.4375993  29.2644083
  63.9986993  68.2345993  32.6854083  63.1346993  68.3185993  32.7654083
  64.2186993  67.7205993  33.3544083  63.9036993  68.1715993  32.7964083
  68.1016993  68.9825993  31.0594083  67.3646993  68.5285993  31.1724083
  68.6726993  68.5805993  31.5824083  68.0766993  68.8555993  31.1534083
  65.6046993  73.3115993  36.2634083  65.2826993  72.7355993  35.6934083
  65.2456993  74.0665993  36.0174083  65.5046993  73.3375993  36.1434083
  66.4006993  66.5635993  20.8904083  66.4786993  66.8105993  20.0574083
  65.6576993  66.9405993  21.1484083  66.3026993  66.6555993  20.8054083
  61.2186993  68.3175993  33.3334083  60.8756993  67.5505993  33.0994083
  60.5236993  68.8415993  33.3974083  61.0656993  68.2815993  33.3084083
  70.2646993  67.1735993  30.3104083  70.9346993  67.7175993  30.4374083
  69.7616993  67.5975993  29.7374083  70.2896993  67.3165993  30.2444083
  69.6236993  72.9815993  27.8034083  70.1746993  72.3745993  28.1034083
  69.1986993  73.2445993  28.5184083  69.6426993  72.9305993  27.9524083
  59.8716993  71.6315993  27.2894083  59.5036993  71.9335993  28.0204083
  60.4056993  71.0025993  27.5734083  59.8956993  71.5835993  27.4394083
  71.5936993  74.8125993  24.3654083  71.6616993  73.9625993  24.5464083
  70.7706993  74.8985993  24.0874083  71.4816993  74.6995993  24.3514083
  75.4926993  70.7495993  38.2544083  75.2966993  71.3935993  38.8094083
  74.7706993  70.2595993  38.2464083  75.3576993  70.7725993  38.3354083
  75.3916993  71.6905993  31.2254083  74.5586993  71.9405993  31.1534083
  75.3356993  70.8505993  31.4544083  75.2606993  71.6035993  31.2484083
  64.6516993  68.6785993  36.4194083  64.8856993  68.1025993  35.8064083
  63.8096993  68.4975993  36.5604083  64.5616993  68.5665993  36.3494083
  69.0426993  66.8815993   6.7741673  68.7976993  67.3695993   6.0941673
  69.9056993  66.8085993   6.6741673  69.1336993  66.9425993   6.6591673
  68.8516993  73.7975993  11.4451673  68.3276993  74.3935993  11.8081673
  69.2486993  73.4295993  12.1291673  68.8326993  73.8315993  11.6001673
  58.4636993  71.7295993   3.4081673  57.6856993  71.8915993   3.0481673
  58.5026993  70.8585993   3.4301673  58.3546993  71.6245993   3.3581673
  71.5226993  74.8645993   8.1211673  71.6026993  74.8685993   7.2521673
  70.9386993  74.2325993   8.2701673  71.4476993  74.7715993   8.0151673
  65.5116993  67.9685993   5.9291673  65.4416993  68.6455993   5.3831673
  66.2526993  67.5805993   5.6801673  65.6106993  68.0115993   5.8111673
  60.1066993  75.1935993   7.3581673  59.6446993  74.8015993   6.7311673
  60.8066993  74.6805993   7.4501673  60.1416993  75.0605993   7.2791673
  64.6146993  70.8035993  12.7051673  65.2926993  70.8215993  12.1561673
  64.5696993  69.9675993  12.9501673  64.7076993  70.6825993  12.6601673
  62.1076993  73.2935993   7.3811673  62.9246993  73.1065993   7.6241673
  61.6306993  72.6795993   7.7771673  62.1576993  73.1755993   7.4761673
  68.3366993  72.8545993  17.5411673  67.4886993  72.7555993  17.3631673
  68.3656993  73.5995993  17.9951673  68.2156993  72.9505993  17.5821673
  62.7046993  68.3875993   6.6471673  62.4086993  68.8885993   5.9971673
  63.5716993  68.4655993   6.5901673  62.7886993  68.4735993   6.5431673
  72.8946993  65.8145993  16.6551673  72.7366993  66.5835993  16.2731673
  72.1226993  65.5945993  16.9991673  72.7566993  65.8955993  16.6501673
  65.6836993  67.5295993   8.8701673  65.7566993  68.3895993   8.9991673
  65.6456993  67.4545993   8.0021673  65.6886993  67.6455993   8.7611673
  58.5626993  72.9545993  10.3711673  58.3066993  73.7855993  10.2961673
  57.8986993  72.5715993  10.7881673  58.4266993  73.0205993  10.4221673
  61.5916993  67.7715993  10.8621673  61.0706993  67.1435993  10.5541673
  62.1826993  67.3345993  11.3331673  61.6026993  67.6135993  10.8861673
  64.8976993  69.9045993  20.1601673  65.0146993  69.4505993  19.4241673
  65.1856993  70.7025993  19.9571673  64.9576993  69.9555993  20.0211673
  75.7506993  70.4285993   7.4641673  75.4046993  71.1065993   7.8901673
  75.1146993  69.8305993   7.4801673  75.6056993  70.4405993   7.5291673
  60.6306993  69.5015993  19.1441673  59.8526993  69.1115993  19.0721673
  61.1216993  69.0895993  18.5531673  60.5876993  69.3825993  19.0461673
  67.2796993  67.1445993  18.3121673  67.4576993  66.3355993  18.0371673
  67.1366993  67.5855993  17.5731673  67.2846993  67.0905993  18.1621673
  67.8736993  72.0705993   7.0851673  68.1606993  71.8385993   6.2951673
  68.6056993  72.1495993   7.5541673  68.0236993  72.0475993   7.0381673
  68.5956993  72.4095993   2.2061673  68.8766993  73.1975993   2.4551673
  67.8196993  72.5745993   1.8431673  68.5226993  72.5505993   2.1891673
  57.9786993  70.0495993  16.7301673  57.9746993  70.6365993  17.3761673
  58.5726993  70.3615993  16.1731673  58.0656993  70.1825993  16.7431673
  70.9616993  68.4765993   3.0761673  71.5016993  67.7945993   3.1521673
  71.0236993  68.8745993   3.8501673  71.0506993  68.4345993   3.2021673
  58.9156993  69.6445993   5.6451673  58.8016993  68.7805993   5.6761673
  58.4406993  69.9385993   6.3151673  58.8286993  69.5605993   5.7481673
  68.2196993  70.8525993   4.3901673  67.7116993  70.1905993   4.1361673
  68.2716993  71.3565993   3.6801673  68.1526993  70.8295993   4.2481673
  68.2196993  67.7935993   4.2811673  67.7646993  67.3915993   3.6551673
  68.9926993  67.9485993   3.9061673  68.2666993  67.7575993   4.1331673
  66.8176993  70.1605993   8.8031673  66.8916993  70.7285993   8.1451673
  66.9386993  70.6525993   9.5131673  66.8456993  70.3175993   8.8111673
  61.4256993  65.9835993   7.1511673  61.9616993  66.6715993   7.1411673
  61.4286993  65.7095993   6.3231673  61.5046993  66.0445993   7.0271673
  70.6096993  70.3305993  14.6911673  70.5146993  70.6495993  15.4971673
  70.0166993  69.6915993  14.6531673  70.5076993  70.2825993  14.8051673
  71.8656993  66.2745993   7.5271673  71.9146993  65.9565993   8.3381673
  72.1886993  65.6305993   7.0341673  71.9206993  66.1325993   7.5741673
  74.3296993  70.5105993  15.8351673  75.1016993  70.2855993  16.1721673
  73.8546993  70.7275993  16.5351673  74.3736993  70.5095993  15.9881673
  61.8736993  69.7935993   8.8051673  62.1456993  69.3635993   8.0971673
  61.6976993  69.1575993   9.3761673  61.8876993  69.6365993   8.7851673
  60.0146993  70.8955993  11.8871673  60.8576993  71.1155993  11.8441673
  59.6256993  71.4685993  11.3561673  60.0816993  71.0125993  11.8021673
  72.4566993  74.0255993   2.6081673  72.2366993  74.7565993   2.1861673
  72.0086993  74.0765993   3.3551673  72.3576993  74.1405993   2.6561673
  65.8686993  72.5805993  20.0051673  65.3846993  73.1575993  20.4471673
  65.8406993  72.8755993  19.1841673  65.7926993  72.7095993  19.9491673
  74.6456993  68.4445993   4.3401673  75.3916993  68.0375993   4.5391673
  74.9086993  69.1595993   3.9151673  74.7946993  68.4905993   4.3071673
  71.0996993  70.7325993   9.4131673  71.4436993  70.8845993  10.2001673
  70.6466993  69.9945993   9.5261673  71.0836993  70.6455993   9.5461673
  65.5756993  69.9525993   3.8701673  65.5736993  69.8355993   3.0051673
  65.3946993  70.8005993   3.9621673  65.5486993  70.0605993   3.7561673
  61.4436993  73.3875993  18.3641673  60.9076993  72.8815993  18.8321673
  61.4636993  72.9975993  17.5841673  61.3666993  73.2545993  18.3181673
  61.9286993  72.7845993   3.5041673  61.8006993  72.3365993   4.2421673
  61.3466993  72.4425993   2.9521673  61.8236993  72.6675993   3.5321673
  62.0956993  74.6145993  10.1031673  61.3146993  74.5555993   9.7201673
  62.1676993  73.8625993  10.5401673  61.9906993  74.4955993  10.1111673
  62.5256993  74.3515993  13.5711673  62.5506993  73.6765993  13.0201673
  61.8796993  74.8475993  13.2591673  62.4346993  74.3245993  13.4441673
  72.4206993  72.0645993  11.9671673  71.7586993  72.3925993  12.4301673
  72.6076993  72.6985993  11.3981673  72.3506993  72.2065993  11.9511673
  69.0656993  67.9705993  15.3961673  69.2146993  67.1455993  15.1531673
  69.4446993  68.0255993  16.1801673  69.1436993  67.8565993  15.4761673
  70.6136993  70.0335993   5.4781673  71.1036993  70.7505993   5.4011673
  69.8236993  70.2945993   5.2151673  70.5696993  70.1775993   5.4281673
  67.1956993  71.5035993  11.2031673  67.6756993  72.2025993  11.4111673
  67.5686993  70.8565993  11.6541673  67.3216993  71.5115993  11.3001673
  69.3846993  74.6725993   3.4771673  69.3766993  75.3945993   2.9871673
  68.7456993  74.8075993   4.0541673  69.2896993  74.7995993   3.4901673
  63.9776993  67.0145993   3.1381673  64.0746993  66.9075993   3.9991673
  63.2696993  67.5205993   3.0731673  63.8876993  67.0735993   3.2561673
  74.7066993  66.7555993  18.5351673  74.0696993  66.3555993  18.0931673
  74.7326993  66.3245993  19.2931673  74.6166993  66.6335993  18.5811673
  58.0966993  66.9825993   5.3491673  58.2256993  66.2745993   4.8571673
  57.7296993  66.6645993   6.0741673  58.0616993  66.8305993   5.3841673
  67.7896993  74.6635993   5.8061673  67.8486993  75.3135993   6.3851673
  67.6006993  73.9675993   6.2971673  67.7706993  74.6565993   5.9641673
  62.2856993  69.1805993   2.3181673  61.7746993  69.2335993   1.6121673
  63.0696993  69.4205993   2.0221673  62.3256993  69.2235993   2.1701673
  64.0906993  71.5745993   9.2881673  64.9366993  71.3845993   9.3861673
  63.7206993  70.7975993   9.1501673  64.1606993  71.4315993   9.2821673
  58.9116993  72.9125993   5.9431673  59.4006993  72.6205993   6.6041673
  59.0406993  72.3195993   5.3161673  59.0026993  72.7815993   5.9481673
  64.8916993  72.8075993   4.1391673  65.1636993  73.6335993   4.2061673
  64.0286993  72.8825993   4.0431673  64.8046993  72.9405993   4.1341673
  72.8646993  69.9295993  18.7711673  72.3396993  70.3885993  19.2951673
  72.5036993  69.1345993  18.7651673  72.7336993  69.8795993  18.8471673
  58.3716993  68.7775993  10.6751673  58.4156993  69.1215993   9.8741673
  59.1266993  69.0145993  11.0421673  58.4896993  68.8635993  10.6111673
  71.3566993  73.4985993  18.8471673  71.4296993  73.6025993  19.7101673
  70.7226993  74.0565993  18.6261673  71.2736993  73.5965993  18.9421673
  73.6246993  73.8175993  17.2121673  73.9436993  74.6035993  17.4151673
  73.2546993  73.5475993  17.9551673  73.6176993  73.8935993  17.3521673
  73.4206993  72.0755993   8.4011673  72.6756993  71.7525993   8.7191673
  73.4226993  72.9015993   8.6811673  73.3106993  72.1495993   8.4891673
  72.3326993  68.4055993  15.8621673  73.0766993  68.8575993  15.7991673
  71.7666993  68.8755993  15.3931673  72.3596993  68.5425993  15.7841673
  64.2206993  71.2925993  15.6811673  64.3816993  70.5485993  16.1081673
  64.1756993  71.0435993  14.8461673  64.2376993  71.1455993  15.6211673
  73.6176993  66.3855993  13.5321673  73.3376993  67.2105993  13.4881673
  74.3336993  66.4385993  14.0281673  73.6826993  66.5155993  13.5991673
  65.9726993  67.1005993  15.5611673  66.6776993  67.4205993  15.1591673
  66.2136993  66.2935993  15.7881673  66.1116993  67.0285993  15.5351673
  75.0386993  72.6405993   2.3891673  75.4166993  73.3175993   1.9891673
  74.1966993  72.8645993   2.4201673  74.9696993  72.7735993   2.3341673
  62.4816993  72.1535993  11.6221673  62.9216993  72.0505993  10.8761673
  63.0266993  71.8405993  12.2271673  62.6266993  72.0925993  11.6011673
  70.4976993  71.2555993  17.2141673  69.8496993  71.7255993  17.5621673
  71.0626993  71.1665993  17.8731673  70.4856993  71.3115993  17.3631673
  70.1856993  72.7925993  13.5121673  70.4876993  73.2125993  14.2151673
  70.2216993  71.9525993  13.7441673  70.2356993  72.7305993  13.6501673
  72.7336993  72.2395993   5.7641673  72.9406993  72.0385993   6.5881673
  73.4896993  72.5075993   5.4221673  72.8756993  72.2495993   5.8351673
  66.0286993  67.1385993  11.6691673  65.2026993  66.9895993  11.9061673
  65.9886993  67.1735993  10.7981673  65.9006993  67.1215993  11.5751673
  73.7556993  68.3225993   7.2381673  73.0416993  67.8515993   7.4091673
  73.5936993  68.6635993   6.4521673  73.6266993  68.3035993   7.1471673
  58.5936993  67.5365993  17.7041673  58.4536993  68.3315993  17.3731673
  57.8076993  67.2935993  17.9931673  58.4566993  67.6185993  17.6981673
  61.6576993  70.2805993   4.9291673  61.7836993  69.9515993   4.1311673
  60.8456993  70.0315993   5.1281673  61.5566993  70.1955993   4.8411673
  70.8476993  74.0995993  15.9521673  70.5926993  73.3805993  16.3741673
  71.6686993  74.2155993  16.2221673  70.9316993  74.0105993  16.0541673
  61.6346993  72.2915993  15.3451673  62.0096993  72.9105993  14.8581673
  62.3086993  71.8175993  15.6301673  61.7896993  72.3135993  15.3151673
  59.4096993  70.7395993  14.6201673  59.4866993  70.5705993  13.7671673
  60.1556993  71.1455993  14.8171673  59.5306993  70.7745993  14.5231673
  74.9686993  73.3795993   5.0601673  75.0716993  73.3215993   4.1961673
  75.7096993  73.0475993   5.3781673  75.0936993  73.3225993   4.9791673
  61.9636993  68.1495993  17.0311673  61.8826993  67.3055993  17.2371673
  61.6496993  68.1935993  16.2181673  61.9056993  68.0315993  16.9411673
  74.0706993  73.5255993  14.4161673  74.0686993  72.6625993  14.5401673
  74.1376993  73.8495993  15.2231673  74.0806993  73.4455993  14.5531673
  69.9496993  68.3255993  18.1981673  70.0416993  69.0375993  18.6921673
  69.3126993  67.8805993  18.5951673  69.8686993  68.3645993  18.3301673
  68.9436993  68.5155993   9.0521673  68.2436993  69.0335993   8.9961673
  68.9816993  68.1355993   8.2681673  68.8456993  68.5365993   8.9281673
  72.5416993  69.0315993  11.8521673  73.3966993  69.1305993  11.9971673
  72.1726993  69.5845993  12.4171673  72.6136993  69.1285993  11.9571673
  72.8456993  74.3115993  10.3431673  73.5116993  74.8525993  10.5031673
  72.5006993  74.6225993   9.6041673  72.8926993  74.4375993  10.2581673
  63.9986993  68.2345993  13.6791673  63.1346993  68.3185993  13.7591673
  64.2186993  67.7205993  14.3481673  63.9036993  68.1715993  13.7901673
  68.1016993  68.9825993  12.0531673  67.3646993  68.5285993  12.1661673
  68.6726993  68.5805993  12.5761673  68.0766993  68.8555993  12.1471673
  65.6046993  73.3115993  17.2571673  65.2826993  72.7355993  16.6871673
  65.2456993  74.0665993  17.0111673  65.5046993  73.3375993  17.1371673
  61.2186993  68.3175993  14.3271673  60.8756993  67.5505993  14.0931673
  60.5236993  68.8415993  14.3911673  61.0656993  68.2815993  14.3021673
  70.2646993  67.1735993  11.3041673  70.9346993  67.7175993  11.4311673
  69.7616993  67.5975993  10.7311673  70.2896993  67.3165993  11.2381673
  69.6236993  72.9815993   8.7971673  70.1746993  72.3745993   9.0971673
  69.1986993  73.2445993   9.5121673  69.6426993  72.9305993   8.9461673
  59.8716993  71.6315993   8.2831673  59.5036993  71.9335993   9.0141673
  60.4056993  71.0025993   8.5671673  59.8956993  71.5835993   8.4331673
  71.5936993  74.8125993   5.3591673  71.6616993  73.9625993   5.5401673
  70.7706993  74.8985993   5.0811673  71.4816993  74.6995993   5.3451673
  75.4926993  70.7495993  19.2481673  75.2966993  71.3935993  19.8031673
  74.7706993  70.2595993  19.2401673  75.3576993  70.7725993  19.3291673
  75.3916993  71.6905993  12.2191673  74.5586993  71.9405993  12.1471673
  75.3356993  70.8505993  12.4481673  75.2606993  71.6035993  12.2421673
  64.6516993  68.6785993  17.4131673  64.8856993  68.1025993  16.8001673
  63.8096993  68.4975993  17.5541673  64.5616993  68.5665993  17.3431673
  69.0426993  48.4034913  63.7928903  68.7976993  48.8914913  63.1128903
  69.9056993  48.3304913  63.6928903  69.1336993  48.4644913  63.6778903
  68.8516993  55.3194913  68.4638903  68.3276993  55.9154913  68.8268903
  69.2486993  54.9514913  69.1478903  68.8326993  55.3534913  68.6188903
  58.7206993  59.4594913  63.9198903  58.2796993  59.5774913  64.6628903
  58.4376993  58.6844913  63.6348903  58.6136993  59.3624913  63.9878903
  74.9956993  62.7604913  61.4348903  75.6966993  62.2414913  61.4308903
  74.4086993  62.3154913  60.9658903  75.0126993  62.6174913  61.3648903
  58.4636993  53.2514913  60.4268903  57.6856993  53.4134913  60.0668903
  58.5026993  52.3804913  60.4488903  58.3546993  53.1464913  60.3768903
  61.6026993  58.5144913  59.0988903  61.2106993  58.1434913  58.4128903
  61.5226993  57.9164913  59.7278903  61.5326993  58.3714913  59.0898903
  71.5226993  56.3864913  65.1398903  71.6026993  56.3904913  64.2708903
  70.9386993  55.7544913  65.2888903  71.4476993  56.2934913  65.0338903
  61.2296993  60.1554913  62.9988903  61.8376993  59.9854913  63.6018903
  60.4786993  60.0154913  63.4198903  61.2086993  60.1094913  63.1498903
  65.5116993  49.4904913  62.9478903  65.4416993  50.1674913  62.4018903
  66.2526993  49.1024913  62.6988903  65.6106993  49.5334913  62.8298903
  60.1206993  63.2464913  59.0758903  60.5876993  63.3304913  58.3438903
  60.5756993  62.6684913  59.5448903  60.2566993  63.1734913  59.0368903
  58.6606993  62.1944913  70.1748903  58.7896993  61.9144913  70.9908903
  58.0506993  61.6534913  69.8658903  58.5896993  62.0734913  70.2498903
  65.2346993  59.7194913  75.2418903  64.9986993  59.7164913  76.0818903
  64.4866993  59.5714913  74.8178903  65.0886993  59.6964913  75.3028903
  60.1066993  56.7154913  64.3768903  59.6446993  56.3234913  63.7498903
  60.8066993  56.2024913  64.4688903  60.1416993  56.5824913  64.2978903
  64.6146993  52.3254913  69.7238903  65.2926993  52.3434913  69.1748903
  64.5696993  51.4894913  69.9688903  64.7076993  52.2044913  69.6788903
  65.2166993  62.9114913  72.5048903  65.3546993  63.6714913  72.0978903
  66.0076993  62.5464913  72.5318903  65.3536993  62.9704913  72.4488903
  62.1076993  54.8154913  64.3998903  62.9246993  54.6284913  64.6428903
  61.6306993  54.2014913  64.7958903  62.1576993  54.6974913  64.4948903
  66.3116993  60.7964913  67.0098903  66.6596993  59.9974913  67.0398903
  66.9766993  61.3004913  66.7548903  66.4616993  60.7524913  66.9768903
  66.3686993  60.2454913  63.2208903  66.6996993  59.6014913  63.7068903
  66.6086993  60.0344913  62.4098903  66.4526993  60.1194913  63.1728903
  68.3366993  54.3764913  74.5598903  67.4886993  54.2774913  74.3818903
  68.3656993  55.1214913  75.0138903  68.2156993  54.4724913  74.6008903
  62.7046993  49.9094913  63.6658903  62.4086993  50.4104913  63.0158903
  63.5716993  49.9874913  63.6088903  62.7886993  49.9954913  63.5618903
  72.8946993  47.3364913  73.6738903  72.7366993  48.1054913  73.2918903
  72.1226993  47.1164913  74.0178903  72.7566993  47.4174913  73.6688903
  65.6836993  49.0514913  65.8888903  65.7566993  49.9114913  66.0178903
  65.6456993  48.9764913  65.0208903  65.6886993  49.1674913  65.7798903
  70.3566993  51.9774913  58.1878903  69.9066993  52.6584913  58.4948903
  70.4706993  51.4734913  58.8908903  70.3076993  52.0034913  58.3368903
  58.5626993  54.4764913  67.3898903  58.3066993  55.3074913  67.3148903
  57.8986993  54.0934913  67.8068903  58.4266993  54.5424913  67.4408903
  58.4726993  64.1864913  65.2898903  57.8806993  64.7444913  64.9768903
  58.8986993  63.9174913  64.5778903  58.4486993  64.2284913  65.1388903
  64.3126993  62.0304913  62.7698903  63.7336993  61.7554913  63.3618903
  64.9366993  61.4214913  62.7948903  64.3196993  61.9004913  62.8608903
  70.4556993  64.3184913  60.2918903  71.1826993  64.7904913  60.3938903
  70.6846993  63.5244913  60.5718903  70.5976993  64.2714913  60.3488903
  68.6236993  64.7104913  62.2818903  68.8376993  65.2374913  62.9438903
  69.3906993  64.5364913  61.9028903  68.7686993  64.7624913  62.3238903
  61.5916993  49.2934913  67.8808903  61.0706993  48.6654913  67.5728903
  62.1826993  48.8564913  68.3518903  61.6026993  49.1354913  67.9048903
  60.0176993  62.8564913  63.2208903  60.6736993  62.2814913  63.2358903
  60.4066993  63.6054913  62.9998903  60.1726993  62.8814913  63.1908903
  75.7506993  51.9504913  64.4828903  75.4046993  52.6284913  64.9088903
  75.1146993  51.3524913  64.4988903  75.6056993  51.9624913  64.5478903
  71.0626993  64.7204913  70.5868903  71.8066993  65.1764913  70.5768903
  70.9416993  64.5064913  69.7498903  71.1546993  64.7564913  70.4618903
  60.6306993  51.0234913  76.1628903  59.8526993  50.6334913  76.0908903
  61.1216993  50.6114913  75.5718903  60.5876993  50.9044913  76.0648903
  60.8356993  61.3434913  66.7208903  61.2586993  60.9874913  66.0468903
  61.1596993  60.9214913  67.4128903  60.9456993  61.2284913  66.7238903
  64.0666993  64.1954913  66.0168903  64.9106993  64.2994913  65.8218903
  63.7696993  65.0134913  66.0848903  64.1476993  64.3314913  65.9978903
  67.2796993  48.6664913  75.3308903  67.4576993  47.8574913  75.0558903
  67.1366993  49.1074913  74.5918903  67.2846993  48.6124913  75.1808903
  67.8736993  53.5924913  64.1038903  68.1606993  53.3604913  63.3138903
  68.6056993  53.6714913  64.5728903  68.0236993  53.5694913  64.0568903
  68.5956993  53.9314913  59.2248903  68.8766993  54.7194913  59.4738903
  67.8196993  54.0964913  58.8618903  68.5226993  54.0724913  59.2078903
  72.6366993  65.9054913  60.6918903  73.3016993  65.7574913  60.1468903
  72.9966993  65.8224913  61.4818903  72.7886993  65.8714913  60.7278903
  63.0646993  65.4144913  71.7568903  63.3566993  65.3474913  72.5768903
  62.4386993  64.8094913  71.7118903  63.0156993  65.3154913  71.8718903
  57.9786993  51.5714913  73.7488903  57.9746993  52.1584913  74.3948903
  58.5726993  51.8834913  73.1918903  58.0656993  51.7044913  73.7618903
  70.3166993  61.9054913  74.2908903  70.2826993  62.2874913  75.0748903
  71.1706993  61.8634913  74.1198903  70.4376993  61.9554913  74.3818903
  67.4546993  62.1024913  59.0408903  67.2736993  62.6474913  59.6978903
  68.2206993  62.3924913  58.7398903  67.5406993  62.2264913  59.0938903
  70.9616993  49.9984913  60.0948903  71.5016993  49.3164913  60.1708903
  71.0236993  50.3964913  60.8688903  71.0506993  49.9564913  60.2208903
  58.9156993  51.1664913  62.6638903  58.8016993  50.3024913  62.6948903
  58.4406993  51.4604913  63.3338903  58.8286993  51.0824913  62.7668903
  61.0576993  63.5764913  70.8788903  60.3596993  63.0684913  71.0048903
  61.3176993  63.3714913  70.0708903  60.9926993  63.4714913  70.7778903
  68.2196993  52.3744913  61.4088903  67.7116993  51.7124913  61.1548903
  68.2716993  52.8784913  60.6988903  68.1526993  52.3514913  61.2668903
  68.7686993  65.0694913  71.7888903  69.5366993  64.9894913  71.3828903
  68.1856993  64.9484913  71.1508903  68.7956993  65.0394913  71.6348903
  68.2196993  49.3154913  61.2998903  67.7646993  48.9134913  60.6738903
  68.9926993  49.4704913  60.9248903  68.2666993  49.2794913  61.1518903
  75.0456993  65.6724913  64.6898903  74.5906993  66.3894913  64.8908903
  74.4316993  65.1014913  64.4478903  74.8876993  65.6944913  64.6838903
  66.8176993  51.6824913  65.8218903  66.8916993  52.2504913  65.1638903
  66.9386993  52.1744913  66.5318903  66.8456993  51.8394913  65.8298903
  72.0426993  61.5174913  64.2338903  72.7436993  61.0354913  64.4228903
  71.3826993  60.9484913  64.2788903  72.0486993  61.3624913  64.2678903
  62.4186993  62.4274913  73.4458903  63.2596993  62.4904913  73.2238903
  62.3816993  62.8244913  74.2218903  62.5376993  62.4954913  73.5278903
  61.4256993  47.5054913  64.1698903  61.9616993  48.1934913  64.1598903
  61.4286993  47.2314913  63.3418903  61.5046993  47.5664913  64.0458903
  64.3816993  57.9384913  68.1948903  64.5536993  57.7284913  69.0238903
  63.7266993  57.4044913  67.9788903  64.3106993  57.8284913  68.2858903
  70.6096993  51.8524913  71.7098903  70.5146993  52.1714913  72.5158903
  70.0166993  51.2134913  71.6718903  70.5076993  51.8044913  71.8238903
  65.1316993  57.8764913  70.7848903  65.1846993  58.7234913  70.9868903
  64.8466993  57.5064913  71.5218903  65.0976993  57.9464913  70.9228903
  71.3086993  58.5714913  69.9148903  70.7946993  58.1594913  70.4858903
  71.1826993  59.4154913  70.0958903  71.2146993  58.6354913  70.0258903
  71.8656993  47.7964913  64.5458903  71.9146993  47.4784913  65.3568903
  72.1886993  47.1524913  64.0528903  71.9206993  47.6544913  64.5928903
  74.3296993  52.0324913  72.8538903  75.1016993  51.8074913  73.1908903
  73.8546993  52.2494913  73.5538903  74.3736993  52.0314913  73.0068903
  61.8736993  51.3154913  65.8238903  62.1456993  50.8854913  65.1158903
  61.6976993  50.6794913  66.3948903  61.8876993  51.1584913  65.8038903
  74.5616993  59.0104913  60.0418903  74.6806993  58.7234913  60.8568903
  75.3686993  59.0314913  59.7118903  74.6976993  58.9714913  60.1138903
  61.6976993  58.7424913  65.3728903  62.5486993  58.6624913  65.1998903
  61.3406993  58.0604913  64.9608903  61.7706993  58.6294913  65.2858903
  60.4646993  65.4674913  66.6098903  59.7916993  64.9694913  66.3648903
  60.8676993  65.6524913  65.8588903  60.4246993  65.4214913  66.4628903
  60.0146993  52.4174913  68.9058903  60.8576993  52.6374913  68.8628903
  59.6256993  52.9904913  68.3748903  60.0816993  52.5344913  68.8208903
  72.4566993  55.5474913  59.6268903  72.2366993  56.2784913  59.2048903
  72.0086993  55.5984913  60.3738903  72.3576993  55.6624913  59.6748903
  64.0656993  58.7494913  63.6078903  64.7786993  59.2444913  63.6978903
  64.2876993  58.1824913  62.9818903  64.2036993  58.7384913  63.5288903
  58.2216993  60.3924913  66.9278903  57.5546993  60.8804913  67.2038903
  58.9016993  60.9374913  66.9568903  58.2236993  60.5444913  66.9728903
  58.2876993  57.0764913  62.0308903  58.1026993  56.2374913  62.1828903
  58.9466993  57.0404913  61.4608903  58.3576993  56.9474913  61.9688903
  74.6456993  49.9664913  61.3588903  75.3916993  49.5594913  61.5578903
  74.9086993  50.6814913  60.9338903  74.7946993  50.0124913  61.3258903
  68.5886993  62.4524913  65.9348903  68.0656993  63.0864913  65.6418903
  68.8986993  62.0884913  65.2058903  68.5566993  62.4924913  65.7838903
  58.4596993  61.2404913  61.6058903  59.0116993  61.8094913  61.9698903
  58.2276993  60.7254913  62.2708903  58.5066993  61.2484913  61.7578903
  62.6636993  60.2404913  68.6948903  63.1306993  60.5294913  69.3728903
  63.2356993  59.7624913  68.2408903  62.8176993  60.2124913  68.7278903
  71.0996993  52.2544913  66.4318903  71.4436993  52.4064913  67.2188903
  70.6466993  51.5164913  66.5448903  71.0836993  52.1674913  66.5648903
  58.2896993  59.6894913  59.2338903  59.0456993  59.2574913  59.2918903
  58.3046993  60.2214913  59.9248903  58.4036993  59.7044913  59.3448903
  59.2296993  57.9104913  67.2388903  59.6606993  57.7814913  66.4918903
  59.0246993  58.7584913  67.2128903  59.2626993  58.0164913  67.1248903
  65.5756993  51.4744913  60.8888903  65.5736993  51.3574913  60.0238903
  65.3946993  52.3224913  60.9808903  65.5486993  51.5824913  60.7748903
  74.6296993  63.9014913  72.3858903  73.9586993  64.4154913  72.6038903
  74.6926993  64.0014913  71.5218903  74.5396993  63.9924913  72.2908903
  63.3136993  61.4264913  65.5208903  63.4396993  62.2694913  65.7078903
  63.9816993  61.0274913  65.9168903  63.4316993  61.4924913  65.6068903
  61.4436993  54.9094913  75.3828903  60.9076993  54.4034913  75.8508903
  61.4636993  54.5194913  74.6028903  61.3666993  54.7764913  75.3368903
  61.9286993  54.3064913  60.5228903  61.8006993  53.8584913  61.2608903
  61.3466993  53.9644913  59.9708903  61.8236993  54.1894913  60.5508903
  62.0956993  56.1364913  67.1218903  61.3146993  56.0774913  66.7388903
  62.1676993  55.3844913  67.5588903  61.9906993  56.0174913  67.1298903
  62.5256993  55.8734913  70.5898903  62.5506993  55.1984913  70.0388903
  61.8796993  56.3694913  70.2778903  62.4346993  55.8464913  70.4628903
  72.4206993  53.5864913  68.9858903  71.7586993  53.9144913  69.4488903
  72.6076993  54.2204913  68.4168903  72.3506993  53.7284913  68.9698903
  66.6256993  64.6504913  69.9818903  66.3486993  64.0094913  69.4588903
  66.4176993  65.3764913  69.5438903  66.5546993  64.6634913  69.8398903
  69.0656993  49.4924913  72.4148903  69.2146993  48.6674913  72.1718903
  69.4446993  49.5474913  73.1988903  69.1436993  49.3784913  72.4948903
  70.6136993  51.5554913  62.4968903  71.1036993  52.2724913  62.4198903
  69.8236993  51.8164913  62.2338903  70.5696993  51.6994913  62.4468903
  60.3246993  57.2284913  76.1488903  60.2876993  57.7294913  75.4348903
  60.6556993  56.4764913  75.8538903  60.3676993  57.1904913  75.9998903
  71.9276993  59.4334913  74.4068903  72.4116993  60.1514913  74.5048903
  72.3216993  59.0064913  73.7558903  72.0576993  59.4764913  74.3248903
  66.2236993  62.2784913  75.5838903  66.5776993  62.1004913  76.3608903
  65.7876993  61.5494913  75.3848903  66.2116993  62.1444913  75.6698903
  67.1956993  53.0254913  68.2218903  67.6756993  53.7244913  68.4298903
  67.5686993  52.3784913  68.6728903  67.3216993  53.0334913  68.3188903
  69.3846993  56.1944913  60.4958903  69.3766993  56.9164913  60.0058903
  68.7456993  56.3294913  61.0728903  69.2896993  56.3214913  60.5088903
  74.3566993  60.0644913  64.4768903  74.7126993  59.7144913  65.1918903
  74.3486993  59.4034913  63.9068903  74.4086993  59.9144913  64.4978903
  70.4016993  63.1304913  68.3208903  69.7986993  62.8344913  67.7638903
  70.9466993  63.5824913  67.8118903  70.3926993  63.1534913  68.1628903
  70.4146993  59.9814913  67.7208903  69.6176993  60.2054913  67.9948903
  70.6726993  59.3874913  68.3058903  70.3346993  59.9264913  67.8478903
  64.3066993  64.7934913  62.1688903  64.1596993  64.0174913  62.5398903
  64.9956993  64.6464913  61.6538903  64.3866993  64.6564913  62.1478903
  63.9776993  48.5364913  60.1568903  64.0746993  48.4294913  61.0178903
  63.2696993  49.0424913  60.0918903  63.8876993  48.5954913  60.2748903
  66.5986993  64.3094913  60.5708903  67.2206993  64.4724913  61.1608903
  66.6346993  65.0004913  60.0388903  66.6956993  64.4354913  60.5798903
  73.6746993  57.9794913  72.5668903  73.7296993  58.1044913  71.7048903
  74.4276993  58.2994913  72.8688903  73.7936993  58.0444913  72.4838903
  74.7066993  48.2774913  75.5538903  74.0696993  47.8774913  75.1118903
  74.7326993  47.8464913  76.3118903  74.6166993  48.1554913  75.5998903
  61.0996993  56.8434913  61.3998903  61.4236993  56.0644913  61.1778903
  61.7456993  57.2114913  61.8548903  61.2426993  56.7824913  61.4338903
  69.4056993  57.7854913  72.1668903  69.2506993  58.3954913  72.7708903
  69.9396993  57.2274913  72.5728903  69.4616993  57.7934913  72.3158903
  58.0966993  48.5044913  62.3678903  58.2256993  47.7964913  61.8758903
  57.7296993  48.1864913  63.0928903  58.0616993  48.3524913  62.4028903
  67.7896993  56.1854913  62.8248903  67.8486993  56.8354913  63.4038903
  67.6006993  55.4894913  63.3158903  67.7706993  56.1784913  62.9828903
  73.0156993  60.5144913  68.6938903  72.5366993  60.8124913  68.0278903
  72.6596993  59.7384913  68.8718903  72.8926993  60.4434913  68.6218903
  62.2856993  50.7024913  59.3368903  61.7746993  50.7554913  58.6308903
  63.0696993  50.9424913  59.0408903  62.3256993  50.7454913  59.1888903
  67.0126993  58.2324913  67.2558903  66.1656993  58.0384913  67.3368903
  67.3366993  58.0674913  68.0488903  66.9346993  58.1794913  67.3848903
  63.7646993  64.9624913  58.1418903  64.2036993  64.2654913  58.4298903
  63.9716993  65.5864913  58.7148903  63.8606993  64.9514913  58.2688903
  60.8606993  57.9254913  69.5718903  61.5826993  58.4134913  69.5348903
  60.5906993  57.8954913  68.7428903  60.9276993  57.9934913  69.4438903
  64.0906993  53.0964913  66.3068903  64.9366993  52.9064913  66.4048903
  63.7206993  52.3194913  66.1688903  64.1606993  52.9534913  66.3008903
  58.9116993  54.4344913  62.9618903  59.4006993  54.1424913  63.6228903
  59.0406993  53.8414913  62.3348903  59.0026993  54.3034913  62.9668903
  73.9466993  57.4564913  69.8128903  73.9396993  56.6804913  70.2108903
  73.1056993  57.6904913  69.8058903  73.8216993  57.3764913  69.8708903
  63.4366993  55.8684913  58.4478903  62.8266993  55.4634913  58.9218903
  63.0506993  55.9864913  57.6748903  63.2896993  55.8254913  58.4038903
  60.2556993  58.9774913  73.8498903  59.8346993  58.4594913  73.2888903
  59.9036993  59.7634913  73.7068903  60.1416993  59.0174913  73.7458903
  64.8916993  54.3294913  61.1578903  65.1636993  55.1554913  61.2248903
  64.0286993  54.4044913  61.0618903  64.8046993  54.4624913  61.1528903
  72.8646993  51.4514913  75.7898903  72.3396993  51.9104913  76.3138903
  72.5036993  50.6564913  75.7838903  72.7336993  51.4014913  75.8658903
  58.3716993  50.2994913  67.6938903  58.4156993  50.6434913  66.8928903
  59.1266993  50.5364913  68.0608903  58.4896993  50.3854913  67.6298903
  71.3566993  55.0204913  75.8658903  71.4296993  55.1244913  76.7288903
  70.7226993  55.5784913  75.6448903  71.2736993  55.1184913  75.9608903
  73.6246993  55.3394913  74.2308903  73.9436993  56.1254913  74.4338903
  73.2546993  55.0694913  74.9738903  73.6176993  55.4154913  74.3708903
  72.9386993  61.7634913  59.7608903  73.2726993  60.9574913  59.7958903
  72.1836993  61.6914913  60.1908903  72.8766993  61.6334913  59.8298903
  73.4206993  53.5974913  65.4198903  72.6756993  53.2744913  65.7378903
  73.4226993  54.4234913  65.6998903  73.3106993  53.6714913  65.5078903
  70.3126993  59.6384913  59.1638903  70.9966993  59.1244913  58.9948903
  69.8956993  59.6844913  58.3988903  70.3516993  59.5694913  59.0258903
  64.9946993  60.7884913  70.4678903  64.6966993  61.3804913  71.0348903
  65.0496993  61.2304913  69.7188903  64.9586993  60.9414913  70.4408903
  62.9736993  59.7384913  73.8658903  62.1676993  59.4484913  74.0328903
  62.8846993  60.6064913  73.8718903  62.8416993  59.8234913  73.8908903
  72.3326993  49.9274913  72.8808903  73.0766993  50.3794913  72.8178903
  71.7666993  50.3974913  72.4118903  72.3596993  50.0644913  72.8028903
  67.5106993  57.2114913  69.9588903  67.9866993  57.5854913  70.5868903
  66.6876993  57.3454913  70.2178903  67.4596993  57.2864913  70.0898903
  64.2206993  52.8144913  72.6998903  64.3816993  52.0704913  73.1268903
  64.1756993  52.5654913  71.8648903  64.2376993  52.6674913  72.6398903
  66.7746993  64.6044913  65.1868903  67.3206993  65.2834913  65.2408903
  66.4246993  64.6864913  64.3918903  66.8036993  64.7174913  65.0768903
  73.6176993  47.9074913  70.5508903  73.3376993  48.7324913  70.5068903
  74.3336993  47.9604913  71.0468903  73.6826993  48.0374913  70.6178903
  65.9726993  48.6224913  72.5798903  66.6776993  48.9424913  72.1778903
  66.2136993  47.8154913  72.8068903  66.1116993  48.5504913  72.5538903
  64.9576993  62.8324913  68.5758903  64.3336993  63.4144913  68.3938903
  65.2056993  62.5464913  67.7898903  64.9016993  62.8764913  68.4328903
  69.2666993  59.4664913  75.5648903  70.0236993  59.7524913  75.2388903
  68.7196993  59.5184913  74.8868903  69.2976993  59.5164913  75.4158903
  73.1756993  62.0164913  74.0688903  73.5216993  62.2864913  74.8228903
  73.4696993  62.5984913  73.4888903  73.2706993  62.1424913  74.0948903
  75.0386993  54.1624913  59.4078903  75.4166993  54.8394913  59.0078903
  74.1966993  54.3864913  59.4388903  74.9696993  54.2954913  59.3528903
  66.5516993  57.6084913  58.4908903  65.7466993  57.4314913  58.2058903
  66.5186993  58.4594913  58.6828903  66.4276993  57.7074913  58.4778903
  62.4816993  53.6754913  68.6408903  62.9216993  53.5724913  67.8948903
  63.0266993  53.3624913  69.2458903  62.6266993  53.6144913  68.6198903
  70.4976993  52.7774913  74.2328903  69.8496993  53.2474913  74.5808903
  71.0626993  52.6884913  74.8918903  70.4856993  52.8334913  74.3818903
  70.1856993  54.3144913  70.5308903  70.4876993  54.7344913  71.2338903
  70.2216993  53.4744913  70.7628903  70.2356993  54.2524913  70.6688903
  67.6106993  64.4814913  74.4558903  68.0886993  63.8814913  74.0398903
  67.2596993  64.0384913  75.1208903  67.6296993  64.3274913  74.4928903
  72.7336993  53.7614913  62.7828903  72.9406993  53.5604913  63.6068903
  73.4896993  54.0294913  62.4408903  72.8756993  53.7714913  62.8538903
  66.0286993  48.6604913  68.6878903  65.2026993  48.5114913  68.9248903
  65.9886993  48.6954913  67.8168903  65.9006993  48.6434913  68.5938903
  73.7556993  49.8444913  64.2568903  73.0416993  49.3734913  64.4278903
  73.5936993  50.1854913  63.4708903  73.6266993  49.8254913  64.1658903
  74.1986993  57.7884913  62.6368903  74.6746993  57.0594913  62.5888903
  73.3776993  57.5024913  62.5608903  74.1476993  57.6384913  62.6178903
  67.6696993  59.7004913  73.4758903  66.8746993  59.6364913  73.8268903
  67.7406993  60.5474913  73.2808903  67.5626993  59.8154913  73.4988903
  58.5936993  49.0584913  74.7228903  58.4536993  49.8534913  74.3918903
  57.8076993  48.8154913  75.0118903  58.4566993  49.1404913  74.7168903
  63.4996993  65.9074913  68.7928903  63.5106993  65.9664913  69.6628903
  63.0746993  65.1604913  68.6428903  63.4386993  65.8054913  68.8988903
  61.6576993  51.8024913  61.9478903  61.7836993  51.4734913  61.1498903
  60.8456993  51.5534913  62.1468903  61.5566993  51.7174913  61.8598903
  70.4146993  58.9554913  64.9918903  70.4906993  59.2964913  65.7908903
  70.5836993  58.1084913  65.1128903  70.4506993  58.8804913  65.1278903
  67.9366993  58.2294913  64.5568903  67.6386993  57.9144913  65.3138903
  68.6316993  58.7024913  64.7918903  67.9956993  58.2524913  64.7038903
  68.1586993  62.3474913  72.5838903  68.8456993  62.2334913  73.1088903
  68.2926993  63.1384913  72.2398903  68.2796993  62.4474913  72.6108903
  70.8476993  55.6214913  72.9708903  70.5926993  54.9024913  73.3928903
  71.6686993  55.7374913  73.2408903  70.9316993  55.5324913  73.0728903
  60.2636993  65.4054913  74.2348903  59.6096993  64.8364913  74.3328903
  59.8886993  66.1784913  74.3858903  60.1116993  65.4354913  74.2718903
  68.7816993  56.8114913  76.1578903  69.1046993  57.4974913  75.7258903
  68.0776993  57.1344913  76.5598903  68.7246993  56.9604913  76.1528903
  71.8656993  65.1854913  67.0868903  71.4146993  65.8284913  67.4658903
  72.5736993  65.1064913  67.5918903  71.9036993  65.2684913  67.2178903
  68.5666993  60.2754913  70.0168903  67.8726993  60.6774913  70.3598903
  69.2436993  60.7084913  70.3558903  68.5636993  60.3984913  70.1178903
  61.6346993  53.8134913  72.3638903  62.0096993  54.4324913  71.8768903
  62.3086993  53.3394913  72.6488903  61.7896993  53.8354913  72.3338903
  59.4096993  52.2614913  71.6388903  59.4866993  52.0924913  70.7858903
  60.1556993  52.6674913  71.8358903  59.5306993  52.2964913  71.5418903
  74.9686993  54.9014913  62.0788903  75.0716993  54.8434913  61.2148903
  75.7096993  54.5694913  62.3968903  75.0936993  54.8444913  61.9978903
  61.9636993  49.6714913  74.0498903  61.8826993  48.8274913  74.2558903
  61.6496993  49.7154913  73.2368903  61.9056993  49.5534913  73.9598903
  68.8886993  61.8664913  63.1858903  68.6836993  62.6994913  63.0268903
  68.1136993  61.4844913  63.3078903  68.7436993  61.9334913  63.1808903
  74.0706993  55.0474913  71.4348903  74.0686993  54.1844913  71.5588903
  74.1376993  55.3714913  72.2418903  74.0806993  54.9674913  71.5718903
  58.8066993  57.4874913  71.8628903  59.1266993  57.7064913  71.0818903
  58.7066993  56.6224913  71.8078903  58.8386993  57.3924913  71.7398903
  60.2626993  53.4234913  58.4808903  59.5906993  53.4374913  59.0368903
  60.3576993  52.5754913  58.2968903  60.1776993  53.3004913  58.5358903
  69.9496993  49.8474913  75.2168903  70.0416993  50.5594913  75.7108903
  69.3126993  49.4024913  75.6138903  69.8686993  49.8864913  75.3488903
  68.9436993  50.0374913  66.0708903  68.2436993  50.5554913  66.0148903
  68.9816993  49.6574913  65.2868903  68.8456993  50.0584913  65.9468903
  64.2506993  62.1284913  59.5948903  64.6916993  62.2084913  60.3428903
  63.4456993  61.9124913  59.8528903  64.1966993  62.1084913  59.7438903
  72.5416993  50.5534913  68.8708903  73.3966993  50.6524913  69.0158903
  72.1726993  51.1064913  69.4358903  72.6136993  50.6504913  68.9758903
  63.5696993  56.7794913  73.2478903  63.1736993  57.5534913  73.3228903
  63.1636993  56.4064913  72.5718903  63.4516993  56.8384913  73.1588903
  72.8456993  55.8334913  67.3618903  73.5116993  56.3744913  67.5218903
  72.5006993  56.1444913  66.6228903  72.8926993  55.9594913  67.2768903
  73.1586993  63.8994913  63.1688903  72.9846993  63.2454913  63.7188903
  73.8716993  63.6284913  62.7458903  73.2386993  63.7624913  63.1878903
  61.5796993  61.1984913  60.1958903  61.3356993  60.8914913  60.9758903
  61.5466993  60.4954913  59.6798903  61.5386993  61.0494913  60.2348903
  64.3986993  59.4434913  58.9388903  63.5806993  59.1754913  59.0788903
  64.3706993  60.2954913  59.1238903  64.2736993  59.5304913  58.9868903
  63.9986993  49.7564913  70.6978903  63.1346993  49.8404913  70.7778903
  64.2186993  49.2424913  71.3668903  63.9036993  49.6934913  70.8088903
  68.1016993  50.5044913  69.0718903  67.3646993  50.0504913  69.1848903
  68.6726993  50.1024913  69.5948903  68.0766993  50.3774913  69.1658903
  70.8336993  61.3524913  70.8598903  71.0396993  61.6534913  71.6518903
  70.7726993  62.0744913  70.3748903  70.8546993  61.5034913  70.9048903
  70.3676993  65.5664913  75.1058903  69.6146993  65.5484913  74.6648903
  70.5356993  66.4184913  75.1898903  70.2816993  65.6894913  75.0528903
  65.6046993  54.8334913  74.2758903  65.2826993  54.2574913  73.7058903
  65.2456993  55.5884913  74.0298903  65.5046993  54.8594913  74.1558903
  66.4006993  48.0854913  58.9028903  66.4786993  48.3324913  58.0698903
  65.6576993  48.4624913  59.1608903  66.3026993  48.1774913  58.8178903
  75.6456993  59.9914913  70.3178903  75.6136993  59.1294913  70.1828903
  74.9526993  60.2934913  69.8838903  75.5386993  59.9084913  70.2338903
  64.0396993  65.1894913  74.5238903  64.0806993  65.3154913  75.3868903
  64.6906993  64.6294913  74.3678903  64.1416993  65.1254913  74.6288903
  73.7506993  63.2514913  69.1148903  74.2776993  63.1684913  68.4238903
  73.3596993  62.4734913  69.1688903  73.7706993  63.1244913  69.0208903
  61.2186993  49.8394913  71.3458903  60.8756993  49.0724913  71.1118903
  60.5236993  50.3634913  71.4098903  61.0656993  49.8034913  71.3208903
  70.2646993  48.6954913  68.3228903  70.9346993  49.2394913  68.4498903
  69.7616993  49.1194913  67.7498903  70.2896993  48.8384913  68.2568903
  61.6326993  63.5724913  75.8838903  62.2276993  64.0034913  76.3558903
  61.2686993  64.1964913  75.3948903  61.6666993  63.7284913  75.8808903
  69.6236993  54.5034913  65.8158903  70.1746993  53.8964913  66.1158903
  69.1986993  54.7664913  66.5308903  69.6426993  54.4524913  65.9648903
  59.8716993  53.1534913  65.3018903  59.5036993  53.4554913  66.0328903
  60.4056993  52.5244913  65.5858903  59.8956993  53.1054913  65.4518903
  59.5596993  61.5614913  72.8128903  58.9856993  61.9774913  73.3218903
  60.2926993  62.0264913  72.9078903  59.5836993  61.6914913  72.9018903
  71.5936993  56.3344913  62.3778903  71.6616993  55.4844913  62.5588903
  70.7706993  56.4204913  62.0998903  71.4816993  56.2214913  62.3638903
  61.3456993  64.8284913  61.5878903  61.2006993  64.9844913  60.7418903
  62.2116993  64.9074913  61.6658903  61.4526993  64.8634913  61.4748903
  65.5126993  57.2254913  61.3158903  65.6126993  57.3644913  60.4608903
  66.3306993  57.1654913  61.6118903  65.6476993  57.2364913  61.2328903
  74.6726993  65.2894913  58.7958903  75.3096993  65.1554913  59.3768903
  74.3316993  64.4954913  58.6788903  74.7166993  65.1524913  58.8638903
  74.8676993  57.7074913  75.5288903  75.5016993  57.5374913  76.1028903
  75.2846993  58.1104913  74.8768903  75.0226993  57.7424913  75.5178903
  70.7476993  61.5544913  61.1178903  70.4966993  61.4264913  61.9438903
  70.4306993  60.8594913  60.6968903  70.6636993  61.4334913  61.1778903
  75.4926993  52.2714913  76.2668903  75.2966993  52.9154913  76.8218903
  74.7706993  51.7814913  76.2588903  75.3576993  52.2944913  76.3478903
  75.3916993  53.2124913  69.2378903  74.5586993  53.4624913  69.1658903
  75.3356993  52.3724913  69.4668903  75.2606993  53.1254913  69.2608903
  64.6516993  50.2004913  74.4318903  64.8856993  49.6244913  73.8188903
  63.8096993  50.0194913  74.5728903  64.5616993  50.0884913  74.3618903
  72.2786993  57.8184913  76.8838903  73.1496993  57.7824913  76.8478903
  72.0596993  58.2384913  76.1518903  72.3756993  57.8744913  76.7708903
  62.0326993  63.6434913  68.0648903  61.9536993  62.8334913  67.7488903
  61.5886993  64.1304913  67.4928903  61.9556993  63.5954913  67.9338903
  67.6336993  59.7624913  60.5478903  68.3506993  59.4154913  60.1918903
  67.5996993  60.5624913  60.1998903  67.7346993  59.8294913  60.4438903
  59.6046993  65.8874913  71.6458903  60.0976993  65.8314913  72.3638903
  59.7926993  65.1544913  71.2108903  59.7056993  65.7704913  71.6878903
  69.0426993  48.4034913  44.7866493  68.7976993  48.8914913  44.1066493
  69.9056993  48.3304913  44.6866493  69.1336993  48.4644913  44.6716493
  68.8516993  55.3194913  49.4576493  68.3276993  55.9154913  49.8206493
  69.2486993  54.9514913  50.1416493  68.8326993  55.3534913  49.6126493
  58.7206993  59.4594913  44.9136493  58.2796993  59.5774913  45.6566493
  58.4376993  58.6844913  44.6286493  58.6136993  59.3624913  44.9816493
  74.9956993  62.7604913  42.4286493  75.6966993  62.2414913  42.4246493
  74.4086993  62.3154913  41.9596493  75.0126993  62.6174913  42.3586493
  58.4636993  53.2514913  41.4206493  57.6856993  53.4134913  41.0606493
  58.5026993  52.3804913  41.4426493  58.3546993  53.1464913  41.3706493
  61.6026993  58.5144913  40.0926493  61.2106993  58.1434913  39.4066493
  61.5226993  57.9164913  40.7216493  61.5326993  58.3714913  40.0836493
  71.5226993  56.3864913  46.1336493  71.6026993  56.3904913  45.2646493
  70.9386993  55.7544913  46.2826493  71.4476993  56.2934913  46.0276493
  61.2296993  60.1554913  43.9926493  61.8376993  59.9854913  44.5956493
  60.4786993  60.0154913  44.4136493  61.2086993  60.1094913  44.1436493
  65.5116993  49.4904913  43.9416493  65.4416993  50.1674913  43.3956493
  66.2526993  49.1024913  43.6926493  65.6106993  49.5334913  43.8236493
  60.1206993  63.2464913  40.0696493  60.5876993  63.3304913  39.3376493
  60.5756993  62.6684913  40.5386493  60.2566993  63.1734913  40.0306493
  58.6606993  62.1944913  51.1686493  58.7896993  61.9144913  51.9846493
  58.0506993  61.6534913  50.8596493  58.5896993  62.0734913  51.2436493
  65.2346993  59.7194913  56.2356493  64.9986993  59.7164913  57.0756493
  64.4866993  59.5714913  55.8116493  65.0886993  59.6964913  56.2966493
  60.1066993  56.7154913  45.3706493  59.6446993  56.3234913  44.7436493
  60.8066993  56.2024913  45.4626493  60.1416993  56.5824913  45.2916493
  64.6146993  52.3254913  50.7176493  65.2926993  52.3434913  50.1686493
  64.5696993  51.4894913  50.9626493  64.7076993  52.2044913  50.6726493
  65.2166993  62.9114913  53.4986493  65.3546993  63.6714913  53.0916493
  66.0076993  62.5464913  53.5256493  65.3536993  62.9704913  53.4426493
  62.1076993  54.8154913  45.3936493  62.9246993  54.6284913  45.6366493
  61.6306993  54.2014913  45.7896493  62.1576993  54.6974913  45.4886493
  66.3116993  60.7964913  48.0036493  66.6596993  59.9974913  48.0336493
  66.9766993  61.3004913  47.7486493  66.4616993  60.7524913  47.9706493
  66.3686993  60.2454913  44.2146493  66.6996993  59.6014913  44.7006493
  66.6086993  60.0344913  43.4036493  66.4526993  60.1194913  44.1666493
  68.3366993  54.3764913  55.5536493  67.4886993  54.2774913  55.3756493
  68.3656993  55.1214913  56.0076493  68.2156993  54.4724913  55.5946493
  62.7046993  49.9094913  44.6596493  62.4086993  50.4104913  44.0096493
  63.5716993  49.9874913  44.6026493  62.7886993  49.9954913  44.5556493
  72.8946993  47.3364913  54.6676493  72.7366993  48.1054913  54.2856493
  72.1226993  47.1164913  55.0116493  72.7566993  47.4174913  54.6626493
  65.6836993  49.0514913  46.8826493  65.7566993  49.9114913  47.0116493
  65.6456993  48.9764913  46.0146493  65.6886993  49.1674913  46.7736493
  70.3566993  51.9774913  39.1816493  69.9066993  52.6584913  39.4886493
  70.4706993  51.4734913  39.8846493  70.3076993  52.0034913  39.3306493
  58.5626993  54.4764913  48.3836493  58.3066993  55.3074913  48.3086493
  57.8986993  54.0934913  48.8006493  58.4266993  54.5424913  48.4346493
  58.4726993  64.1864913  46.2836493  57.8806993  64.7444913  45.9706493
  58.8986993  63.9174913  45.5716493  58.4486993  64.2284913  46.1326493
  64.3126993  62.0304913  43.7636493  63.7336993  61.7554913  44.3556493
  64.9366993  61.4214913  43.7886493  64.3196993  61.9004913  43.8546493
  70.4556993  64.3184913  41.2856493  71.1826993  64.7904913  41.3876493
  70.6846993  63.5244913  41.5656493  70.5976993  64.2714913  41.3426493
  68.6236993  64.7104913  43.2756493  68.8376993  65.2374913  43.9376493
  69.3906993  64.5364913  42.8966493  68.7686993  64.7624913  43.3176493
  61.5916993  49.2934913  48.8746493  61.0706993  48.6654913  48.5666493
  62.1826993  48.8564913  49.3456493  61.6026993  49.1354913  48.8986493
  64.8976993  51.4264913  58.1726493  65.0146993  50.9724913  57.4366493
  65.1856993  52.2244913  57.9696493  64.9576993  51.4774913  58.0336493
  60.0176993  62.8564913  44.2146493  60.6736993  62.2814913  44.2296493
  60.4066993  63.6054913  43.9936493  60.1726993  62.8814913  44.1846493
  75.7506993  51.9504913  45.4766493  75.4046993  52.6284913  45.9026493
  75.1146993  51.3524913  45.4926493  75.6056993  51.9624913  45.5416493
  71.0626993  64.7204913  51.5806493  71.8066993  65.1764913  51.5706493
  70.9416993  64.5064913  50.7436493  71.1546993  64.7564913  51.4556493
  60.6306993  51.0234913  57.1566493  59.8526993  50.6334913  57.0846493
  61.1216993  50.6114913  56.5656493  60.5876993  50.9044913  57.0586493
  60.8356993  61.3434913  47.7146493  61.2586993  60.9874913  47.0406493
  61.1596993  60.9214913  48.4066493  60.9456993  61.2284913  47.7176493
  64.0666993  64.1954913  47.0106493  64.9106993  64.2994913  46.8156493
  63.7696993  65.0134913  47.0786493  64.1476993  64.3314913  46.9916493
  67.2796993  48.6664913  56.3246493  67.4576993  47.8574913  56.0496493
  67.1366993  49.1074913  55.5856493  67.2846993  48.6124913  56.1746493
  67.8736993  53.5924913  45.0976493  68.1606993  53.3604913  44.3076493
  68.6056993  53.6714913  45.5666493  68.0236993  53.5694913  45.0506493
  68.5956993  53.9314913  40.2186493  68.8766993  54.7194913  40.4676493
  67.8196993  54.0964913  39.8556493  68.5226993  54.0724913  40.2016493
  72.6366993  65.9054913  41.6856493  73.3016993  65.7574913  41.1406493
  72.9966993  65.8224913  42.4756493  72.7886993  65.8714913  41.7216493
  63.0646993  65.4144913  52.7506493  63.3566993  65.3474913  53.5706493
  62.4386993  64.8094913  52.7056493  63.0156993  65.3154913  52.8656493
  57.9786993  51.5714913  54.7426493  57.9746993  52.1584913  55.3886493
  58.5726993  51.8834913  54.1856493  58.0656993  51.7044913  54.7556493
  70.3166993  61.9054913  55.2846493  70.2826993  62.2874913  56.0686493
  71.1706993  61.8634913  55.1136493  70.4376993  61.9554913  55.3756493
  67.4546993  62.1024913  40.0346493  67.2736993  62.6474913  40.6916493
  68.2206993  62.3924913  39.7336493  67.5406993  62.2264913  40.0876493
  70.9616993  49.9984913  41.0886493  71.5016993  49.3164913  41.1646493
  71.0236993  50.3964913  41.8626493  71.0506993  49.9564913  41.2146493
  58.9156993  51.1664913  43.6576493  58.8016993  50.3024913  43.6886493
  58.4406993  51.4604913  44.3276493  58.8286993  51.0824913  43.7606493
  61.0576993  63.5764913  51.8726493  60.3596993  63.0684913  51.9986493
  61.3176993  63.3714913  51.0646493  60.9926993  63.4714913  51.7716493
  68.2196993  52.3744913  42.4026493  67.7116993  51.7124913  42.1486493
  68.2716993  52.8784913  41.6926493  68.1526993  52.3514913  42.2606493
  68.7686993  65.0694913  52.7826493  69.5366993  64.9894913  52.3766493
  68.1856993  64.9484913  52.1446493  68.7956993  65.0394913  52.6286493
  68.2196993  49.3154913  42.2936493  67.7646993  48.9134913  41.6676493
  68.9926993  49.4704913  41.9186493  68.2666993  49.2794913  42.1456493
  75.0456993  65.6724913  45.6836493  74.5906993  66.3894913  45.8846493
  74.4316993  65.1014913  45.4416493  74.8876993  65.6944913  45.6776493
  66.8176993  51.6824913  46.8156493  66.8916993  52.2504913  46.1576493
  66.9386993  52.1744913  47.5256493  66.8456993  51.8394913  46.8236493
  72.0426993  61.5174913  45.2276493  72.7436993  61.0354913  45.4166493
  71.3826993  60.9484913  45.2726493  72.0486993  61.3624913  45.2616493
  62.4186993  62.4274913  54.4396493  63.2596993  62.4904913  54.2176493
  62.3816993  62.8244913  55.2156493  62.5376993  62.4954913  54.5216493
  61.4256993  47.5054913  45.1636493  61.9616993  48.1934913  45.1536493
  61.4286993  47.2314913  44.3356493  61.5046993  47.5664913  45.0396493
  64.3816993  57.9384913  49.1886493  64.5536993  57.7284913  50.0176493
  63.7266993  57.4044913  48.9726493  64.3106993  57.8284913  49.2796493
  70.6096993  51.8524913  52.7036493  70.5146993  52.1714913  53.5096493
  70.0166993  51.2134913  52.6656493  70.5076993  51.8044913  52.8176493
  65.1316993  57.8764913  51.7786493  65.1846993  58.7234913  51.9806493
  64.8466993  57.5064913  52.5156493  65.0976993  57.9464913  51.9166493
  71.3086993  58.5714913  50.9086493  70.7946993  58.1594913  51.4796493
  71.1826993  59.4154913  51.0896493  71.2146993  58.6354913  51.0196493
  71.8656993  47.7964913  45.5396493  71.9146993  47.4784913  46.3506493
  72.1886993  47.1524913  45.0466493  71.9206993  47.6544913  45.5866493
  57.9526993  62.2474913  57.9896493  58.7086993  62.5964913  58.2476493
  58.1296993  61.3944913  57.9326493  58.0906993  62.1724913  58.0196493
  74.3296993  52.0324913  53.8476493  75.1016993  51.8074913  54.1846493
  73.8546993  52.2494913  54.5476493  74.3736993  52.0314913  54.0006493
  61.8736993  51.3154913  46.8176493  62.1456993  50.8854913  46.1096493
  61.6976993  50.6794913  47.3886493  61.8876993  51.1584913  46.7976493
  74.5616993  59.0104913  41.0356493  74.6806993  58.7234913  41.8506493
  75.3686993  59.0314913  40.7056493  74.6976993  58.9714913  41.1076493
  61.6976993  58.7424913  46.3666493  62.5486993  58.6624913  46.1936493
  61.3406993  58.0604913  45.9546493  61.7706993  58.6294913  46.2796493
  60.4646993  65.4674913  47.6036493  59.7916993  64.9694913  47.3586493
  60.8676993  65.6524913  46.8526493  60.4246993  65.4214913  47.4566493
  60.0146993  52.4174913  49.8996493  60.8576993  52.6374913  49.8566493
  59.6256993  52.9904913  49.3686493  60.0816993  52.5344913  49.8146493
  72.4566993  55.5474913  40.6206493  72.2366993  56.2784913  40.1986493
  72.0086993  55.5984913  41.3676493  72.3576993  55.6624913  40.6686493
  64.0656993  58.7494913  44.6016493  64.7786993  59.2444913  44.6916493
  64.2876993  58.1824913  43.9756493  64.2036993  58.7384913  44.5226493
  58.2216993  60.3924913  47.9216493  57.5546993  60.8804913  48.1976493
  58.9016993  60.9374913  47.9506493  58.2236993  60.5444913  47.9666493
  65.8686993  54.1024913  58.0176493  65.3846993  54.6794913  58.4596493
  65.8406993  54.3974913  57.1966493  65.7926993  54.2314913  57.9616493
  58.2876993  57.0764913  43.0246493  58.1026993  56.2374913  43.1766493
  58.9466993  57.0404913  42.4546493  58.3576993  56.9474913  42.9626493
  74.6456993  49.9664913  42.3526493  75.3916993  49.5594913  42.5516493
  74.9086993  50.6814913  41.9276493  74.7946993  50.0124913  42.3196493
  68.5886993  62.4524913  46.9286493  68.0656993  63.0864913  46.6356493
  68.8986993  62.0884913  46.1996493  68.5566993  62.4924913  46.7776493
  58.4596993  61.2404913  42.5996493  59.0116993  61.8094913  42.9636493
  58.2276993  60.7254913  43.2646493  58.5066993  61.2484913  42.7516493
  62.6636993  60.2404913  49.6886493  63.1306993  60.5294913  50.3666493
  63.2356993  59.7624913  49.2346493  62.8176993  60.2124913  49.7216493
  71.0996993  52.2544913  47.4256493  71.4436993  52.4064913  48.2126493
  70.6466993  51.5164913  47.5386493  71.0836993  52.1674913  47.5586493
  58.2896993  59.6894913  40.2276493  59.0456993  59.2574913  40.2856493
  58.3046993  60.2214913  40.9186493  58.4036993  59.7044913  40.3386493
  59.2296993  57.9104913  48.2326493  59.6606993  57.7814913  47.4856493
  59.0246993  58.7584913  48.2066493  59.2626993  58.0164913  48.1186493
  65.5756993  51.4744913  41.8826493  65.5736993  51.3574913  41.0176493
  65.3946993  52.3224913  41.9746493  65.5486993  51.5824913  41.7686493
  74.6296993  63.9014913  53.3796493  73.9586993  64.4154913  53.5976493
  74.6926993  64.0014913  52.5156493  74.5396993  63.9924913  53.2846493
  63.3136993  61.4264913  46.5146493  63.4396993  62.2694913  46.7016493
  63.9816993  61.0274913  46.9106493  63.4316993  61.4924913  46.6006493
  61.4436993  54.9094913  56.3766493  60.9076993  54.4034913  56.8446493
  61.4636993  54.5194913  55.5966493  61.3666993  54.7764913  56.3306493
  61.9286993  54.3064913  41.5166493  61.8006993  53.8584913  42.2546493
  61.3466993  53.9644913  40.9646493  61.8236993  54.1894913  41.5446493
  62.0956993  56.1364913  48.1156493  61.3146993  56.0774913  47.7326493
  62.1676993  55.3844913  48.5526493  61.9906993  56.0174913  48.1236493
  62.5256993  55.8734913  51.5836493  62.5506993  55.1984913  51.0326493
  61.8796993  56.3694913  51.2716493  62.4346993  55.8464913  51.4566493
  72.4206993  53.5864913  49.9796493  71.7586993  53.9144913  50.4426493
  72.6076993  54.2204913  49.4106493  72.3506993  53.7284913  49.9636493
  66.6256993  64.6504913  50.9756493  66.3486993  64.0094913  50.4526493
  66.4176993  65.3764913  50.5376493  66.5546993  64.6634913  50.8336493
  69.0656993  49.4924913  53.4086493  69.2146993  48.6674913  53.1656493
  69.4446993  49.5474913  54.1926493  69.1436993  49.3784913  53.4886493
  70.6136993  51.5554913  43.4906493  71.1036993  52.2724913  43.4136493
  69.8236993  51.8164913  43.2276493  70.5696993  51.6994913  43.4406493
  60.3246993  57.2284913  57.1426493  60.2876993  57.7294913  56.4286493
  60.6556993  56.4764913  56.8476493  60.3676993  57.1904913  56.9936493
  71.9276993  59.4334913  55.4006493  72.4116993  60.1514913  55.4986493
  72.3216993  59.0064913  54.7496493  72.0576993  59.4764913  55.3186493
  66.2236993  62.2784913  56.5776493  66.5776993  62.1004913  57.3546493
  65.7876993  61.5494913  56.3786493  66.2116993  62.1444913  56.6636493
  67.1956993  53.0254913  49.2156493  67.6756993  53.7244913  49.4236493
  67.5686993  52.3784913  49.6666493  67.3216993  53.0334913  49.3126493
  69.3846993  56.1944913  41.4896493  69.3766993  56.9164913  40.9996493
  68.7456993  56.3294913  42.0666493  69.2896993  56.3214913  41.5026493
  74.3566993  60.0644913  45.4706493  74.7126993  59.7144913  46.1856493
  74.3486993  59.4034913  44.9006493  74.4086993  59.9144913  45.4916493
  70.4016993  63.1304913  49.3146493  69.7986993  62.8344913  48.7576493
  70.9466993  63.5824913  48.8056493  70.3926993  63.1534913  49.1566493
  70.4146993  59.9814913  48.7146493  69.6176993  60.2054913  48.9886493
  70.6726993  59.3874913  49.2996493  70.3346993  59.9264913  48.8416493
  64.3066993  64.7934913  43.1626493  64.1596993  64.0174913  43.5336493
  64.9956993  64.6464913  42.6476493  64.3866993  64.6564913  43.1416493
  63.9776993  48.5364913  41.1506493  64.0746993  48.4294913  42.0116493
  63.2696993  49.0424913  41.0856493  63.8876993  48.5954913  41.2686493
  66.5986993  64.3094913  41.5646493  67.2206993  64.4724913  42.1546493
  66.6346993  65.0004913  41.0326493  66.6956993  64.4354913  41.5736493
  73.6746993  57.9794913  53.5606493  73.7296993  58.1044913  52.6986493
  74.4276993  58.2994913  53.8626493  73.7936993  58.0444913  53.4776493
  69.8656993  63.3284913  57.8376493  70.0296993  63.6114913  58.6466493
  70.1286993  63.9894913  57.3326493  69.9286993  63.4684913  57.8826493
  74.7066993  48.2774913  56.5476493  74.0696993  47.8774913  56.1056493
  74.7326993  47.8464913  57.3056493  74.6166993  48.1554913  56.5936493
  61.0996993  56.8434913  42.3936493  61.4236993  56.0644913  42.1716493
  61.7456993  57.2114913  42.8486493  61.2426993  56.7824913  42.4276493
  69.4056993  57.7854913  53.1606493  69.2506993  58.3954913  53.7646493
  69.9396993  57.2274913  53.5666493  69.4616993  57.7934913  53.3096493
  58.0966993  48.5044913  43.3616493  58.2256993  47.7964913  42.8696493
  57.7296993  48.1864913  44.0866493  58.0616993  48.3524913  43.3966493
  67.7896993  56.1854913  43.8186493  67.8486993  56.8354913  44.3976493
  67.6006993  55.4894913  44.3096493  67.7706993  56.1784913  43.9766493
  73.0156993  60.5144913  49.6876493  72.5366993  60.8124913  49.0216493
  72.6596993  59.7384913  49.8656493  72.8926993  60.4434913  49.6156493
  62.2856993  50.7024913  40.3306493  61.7746993  50.7554913  39.6246493
  63.0696993  50.9424913  40.0346493  62.3256993  50.7454913  40.1826493
  67.0126993  58.2324913  48.2496493  66.1656993  58.0384913  48.3306493
  67.3366993  58.0674913  49.0426493  66.9346993  58.1794913  48.3786493
  63.7646993  64.9624913  39.1356493  64.2036993  64.2654913  39.4236493
  63.9716993  65.5864913  39.7086493  63.8606993  64.9514913  39.2626493
  60.8606993  57.9254913  50.5656493  61.5826993  58.4134913  50.5286493
  60.5906993  57.8954913  49.7366493  60.9276993  57.9934913  50.4376493
  64.0906993  53.0964913  47.3006493  64.9366993  52.9064913  47.3986493
  63.7206993  52.3194913  47.1626493  64.1606993  52.9534913  47.2946493
  58.9116993  54.4344913  43.9556493  59.4006993  54.1424913  44.6166493
  59.0406993  53.8414913  43.3286493  59.0026993  54.3034913  43.9606493
  73.9466993  57.4564913  50.8066493  73.9396993  56.6804913  51.2046493
  73.1056993  57.6904913  50.7996493  73.8216993  57.3764913  50.8646493
  63.4366993  55.8684913  39.4416493  62.8266993  55.4634913  39.9156493
  63.0506993  55.9864913  38.6686493  63.2896993  55.8254913  39.3976493
  60.2556993  58.9774913  54.8436493  59.8346993  58.4594913  54.2826493
  59.9036993  59.7634913  54.7006493  60.1416993  59.0174913  54.7396493
  64.8916993  54.3294913  42.1516493  65.1636993  55.1554913  42.2186493
  64.0286993  54.4044913  42.0556493  64.8046993  54.4624913  42.1466493
  72.8646993  51.4514913  56.7836493  72.3396993  51.9104913  57.3076493
  72.5036993  50.6564913  56.7776493  72.7336993  51.4014913  56.8596493
  58.3716993  50.2994913  48.6876493  58.4156993  50.6434913  47.8866493
  59.1266993  50.5364913  49.0546493  58.4896993  50.3854913  48.6236493
  71.3566993  55.0204913  56.8596493  71.4296993  55.1244913  57.7226493
  70.7226993  55.5784913  56.6386493  71.2736993  55.1184913  56.9546493
  73.6246993  55.3394913  55.2246493  73.9436993  56.1254913  55.4276493
  73.2546993  55.0694913  55.9676493  73.6176993  55.4154913  55.3646493
  72.9386993  61.7634913  40.7546493  73.2726993  60.9574913  40.7896493
  72.1836993  61.6914913  41.1846493  72.8766993  61.6334913  40.8236493
  73.4206993  53.5974913  46.4136493  72.6756993  53.2744913  46.7316493
  73.4226993  54.4234913  46.6936493  73.3106993  53.6714913  46.5016493
  70.3126993  59.6384913  40.1576493  70.9966993  59.1244913  39.9886493
  69.8956993  59.6844913  39.3926493  70.3516993  59.5694913  40.0196493
  64.9946993  60.7884913  51.4616493  64.6966993  61.3804913  52.0286493
  65.0496993  61.2304913  50.7126493  64.9586993  60.9414913  51.4346493
  62.9736993  59.7384913  54.8596493  62.1676993  59.4484913  55.0266493
  62.8846993  60.6064913  54.8656493  62.8416993  59.8234913  54.8846493
  72.3326993  49.9274913  53.8746493  73.0766993  50.3794913  53.8116493
  71.7666993  50.3974913  53.4056493  72.3596993  50.0644913  53.7966493
  67.5106993  57.2114913  50.9526493  67.9866993  57.5854913  51.5806493
  66.6876993  57.3454913  51.2116493  67.4596993  57.2864913  51.0836493
  64.2206993  52.8144913  53.6936493  64.3816993  52.0704913  54.1206493
  64.1756993  52.5654913  52.8586493  64.2376993  52.6674913  53.6336493
  66.7746993  64.6044913  46.1806493  67.3206993  65.2834913  46.2346493
  66.4246993  64.6864913  45.3856493  66.8036993  64.7174913  46.0706493
  73.6176993  47.9074913  51.5446493  73.3376993  48.7324913  51.5006493
  74.3336993  47.9604913  52.0406493  73.6826993  48.0374913  51.6116493
  65.9726993  48.6224913  53.5736493  66.6776993  48.9424913  53.1716493
  66.2136993  47.8154913  53.8006493  66.1116993  48.5504913  53.5476493
  64.9576993  62.8324913  49.5696493  64.3336993  63.4144913  49.3876493
  65.2056993  62.5464913  48.7836493  64.9016993  62.8764913  49.4266493
  69.2666993  59.4664913  56.5586493  70.0236993  59.7524913  56.2326493
  68.7196993  59.5184913  55.8806493  69.2976993  59.5164913  56.4096493
  73.1756993  62.0164913  55.0626493  73.5216993  62.2864913  55.8166493
  73.4696993  62.5984913  54.4826493  73.2706993  62.1424913  55.0886493
  75.0386993  54.1624913  40.4016493  75.4166993  54.8394913  40.0016493
  74.1966993  54.3864913  40.4326493  74.9696993  54.2954913  40.3466493
  66.5516993  57.6084913  39.4846493  65.7466993  57.4314913  39.1996493
  66.5186993  58.4594913  39.6766493  66.4276993  57.7074913  39.4716493
  62.4816993  53.6754913  49.6346493  62.9216993  53.5724913  48.8886493
  63.0266993  53.3624913  50.2396493  62.6266993  53.6144913  49.6136493
  70.4976993  52.7774913  55.2266493  69.8496993  53.2474913  55.5746493
  71.0626993  52.6884913  55.8856493  70.4856993  52.8334913  55.3756493
  70.1856993  54.3144913  51.5246493  70.4876993  54.7344913  52.2276493
  70.2216993  53.4744913  51.7566493  70.2356993  54.2524913  51.6626493
  67.6106993  64.4814913  55.4496493  68.0886993  63.8814913  55.0336493
  67.2596993  64.0384913  56.1146493  67.6296993  64.3274913  55.4866493
  72.7336993  53.7614913  43.7766493  72.9406993  53.5604913  44.6006493
  73.4896993  54.0294913  43.4346493  72.8756993  53.7714913  43.8476493
  66.0286993  48.6604913  49.6816493  65.2026993  48.5114913  49.9186493
  65.9886993  48.6954913  48.8106493  65.9006993  48.6434913  49.5876493
  73.7556993  49.8444913  45.2506493  73.0416993  49.3734913  45.4216493
  73.5936993  50.1854913  44.4646493  73.6266993  49.8254913  45.1596493
  74.1986993  57.7884913  43.6306493  74.6746993  57.0594913  43.5826493
  73.3776993  57.5024913  43.5546493  74.1476993  57.6384913  43.6116493
  67.6696993  59.7004913  54.4696493  66.8746993  59.6364913  54.8206493
  67.7406993  60.5474913  54.2746493  67.5626993  59.8154913  54.4926493
  58.5936993  49.0584913  55.7166493  58.4536993  49.8534913  55.3856493
  57.8076993  48.8154913  56.0056493  58.4566993  49.1404913  55.7106493
  63.4996993  65.9074913  49.7866493  63.5106993  65.9664913  50.6566493
  63.0746993  65.1604913  49.6366493  63.4386993  65.8054913  49.8926493
  61.6576993  51.8024913  42.9416493  61.7836993  51.4734913  42.1436493
  60.8456993  51.5534913  43.1406493  61.5566993  51.7174913  42.8536493
  70.4146993  58.9554913  45.9856493  70.4906993  59.2964913  46.7846493
  70.5836993  58.1084913  46.1066493  70.4506993  58.8804913  46.1216493
  67.9366993  58.2294913  45.5506493  67.6386993  57.9144913  46.3076493
  68.6316993  58.7024913  45.7856493  67.9956993  58.2524913  45.6976493
  68.1586993  62.3474913  53.5776493  68.8456993  62.2334913  54.1026493
  68.2926993  63.1384913  53.2336493  68.2796993  62.4474913  53.6046493
  70.8476993  55.6214913  53.9646493  70.5926993  54.9024913  54.3866493
  71.6686993  55.7374913  54.2346493  70.9316993  55.5324913  54.0666493
  60.2636993  65.4054913  55.2286493  59.6096993  64.8364913  55.3266493
  59.8886993  66.1784913  55.3796493  60.1116993  65.4354913  55.2656493
  68.7816993  56.8114913  57.1516493  69.1046993  57.4974913  56.7196493
  68.0776993  57.1344913  57.5536493  68.7246993  56.9604913  57.1466493
  71.8656993  65.1854913  48.0806493  71.4146993  65.8284913  48.4596493
  72.5736993  65.1064913  48.5856493  71.9036993  65.2684913  48.2116493
  68.5666993  60.2754913  51.0106493  67.8726993  60.6774913  51.3536493
  69.2436993  60.7084913  51.3496493  68.5636993  60.3984913  51.1116493
  73.9436993  62.8684913  57.5906493  74.7196993  62.4784913  57.6736493
  73.4746993  62.5324913  58.2456493  73.9886993  62.7614913  57.6996493
  61.6346993  53.8134913  53.3576493  62.0096993  54.4324913  52.8706493
  62.3086993  53.3394913  53.6426493  61.7896993  53.8354913  53.3276493
  59.4096993  52.2614913  52.6326493  59.4866993  52.0924913  51.7796493
  60.1556993  52.6674913  52.8296493  59.5306993  52.2964913  52.5356493
  74.9686993  54.9014913  43.0726493  75.0716993  54.8434913  42.2086493
  75.7096993  54.5694913  43.3906493  75.0936993  54.8444913  42.9916493
  61.9636993  49.6714913  55.0436493  61.8826993  48.8274913  55.2496493
  61.6496993  49.7154913  54.2306493  61.9056993  49.5534913  54.9536493
  68.8886993  61.8664913  44.1796493  68.6836993  62.6994913  44.0206493
  68.1136993  61.4844913  44.3016493  68.7436993  61.9334913  44.1746493
  74.0706993  55.0474913  52.4286493  74.0686993  54.1844913  52.5526493
  74.1376993  55.3714913  53.2356493  74.0806993  54.9674913  52.5656493
  58.8066993  57.4874913  52.8566493  59.1266993  57.7064913  52.0756493
  58.7066993  56.6224913  52.8016493  58.8386993  57.3924913  52.7336493
  60.2626993  53.4234913  39.4746493  59.5906993  53.4374913  40.0306493
  60.3576993  52.5754913  39.2906493  60.1776993  53.3004913  39.5296493
  69.9496993  49.8474913  56.2106493  70.0416993  50.5594913  56.7046493
  69.3126993  49.4024913  56.6076493  69.8686993  49.8864913  56.3426493
  68.9436993  50.0374913  47.0646493  68.2436993  50.5554913  47.0086493
  68.9816993  49.6574913  46.2806493  68.8456993  50.0584913  46.9406493
  64.2506993  62.1284913  40.5886493  64.6916993  62.2084913  41.3366493
  63.4456993  61.9124913  40.8466493  64.1966993  62.1084913  40.7376493
  72.5416993  50.5534913  49.8646493  73.3966993  50.6524913  50.0096493
  72.1726993  51.1064913  50.4296493  72.6136993  50.6504913  49.9696493
  63.5696993  56.7794913  54.2416493  63.1736993  57.5534913  54.3166493
  63.1636993  56.4064913  53.5656493  63.4516993  56.8384913  54.1526493
  72.8456993  55.8334913  48.3556493  73.5116993  56.3744913  48.5156493
  72.5006993  56.1444913  47.6166493  72.8926993  55.9594913  48.2706493
  73.1586993  63.8994913  44.1626493  72.9846993  63.2454913  44.7126493
  73.8716993  63.6284913  43.7396493  73.2386993  63.7624913  44.1816493
  61.5796993  61.1984913  41.1896493  61.3356993  60.8914913  41.9696493
  61.5466993  60.4954913  40.6736493  61.5386993  61.0494913  41.2286493
  64.3986993  59.4434913  39.9326493  63.5806993  59.1754913  40.0726493
  64.3706993  60.2954913  40.1176493  64.2736993  59.5304913  39.9806493
  63.9986993  49.7564913  51.6916493  63.1346993  49.8404913  51.7716493
  64.2186993  49.2424913  52.3606493  63.9036993  49.6934913  51.8026493
  68.1016993  50.5044913  50.0656493  67.3646993  50.0504913  50.1786493
  68.6726993  50.1024913  50.5886493  68.0766993  50.3774913  50.1596493
  70.8336993  61.3524913  51.8536493  71.0396993  61.6534913  52.6456493
  70.7726993  62.0744913  51.3686493  70.8546993  61.5034913  51.8986493
  70.3676993  65.5664913  56.0996493  69.6146993  65.5484913  55.6586493
  70.5356993  66.4184913  56.1836493  70.2816993  65.6894913  56.0466493
  65.6046993  54.8334913  55.2696493  65.2826993  54.2574913  54.6996493
  65.2456993  55.5884913  55.0236493  65.5046993  54.8594913  55.1496493
  66.4006993  48.0854913  39.8966493  66.4786993  48.3324913  39.0636493
  65.6576993  48.4624913  40.1546493  66.3026993  48.1774913  39.8116493
  75.6456993  59.9914913  51.3116493  75.6136993  59.1294913  51.1766493
  74.9526993  60.2934913  50.8776493  75.5386993  59.9084913  51.2276493
  64.0396993  65.1894913  55.5176493  64.0806993  65.3154913  56.3806493
  64.6906993  64.6294913  55.3616493  64.1416993  65.1254913  55.6226493
  73.7506993  63.2514913  50.1086493  74.2776993  63.1684913  49.4176493
  73.3596993  62.4734913  50.1626493  73.7706993  63.1244913  50.0146493
  61.2186993  49.8394913  52.3396493  60.8756993  49.0724913  52.1056493
  60.5236993  50.3634913  52.4036493  61.0656993  49.8034913  52.3146493
  70.2646993  48.6954913  49.3166493  70.9346993  49.2394913  49.4436493
  69.7616993  49.1194913  48.7436493  70.2896993  48.8384913  49.2506493
  61.6326993  63.5724913  56.8776493  62.2276993  64.0034913  57.3496493
  61.2686993  64.1964913  56.3886493  61.6666993  63.7284913  56.8746493
  69.6236993  54.5034913  46.8096493  70.1746993  53.8964913  47.1096493
  69.1986993  54.7664913  47.5246493  69.6426993  54.4524913  46.9586493
  59.8716993  53.1534913  46.2956493  59.5036993  53.4554913  47.0266493
  60.4056993  52.5244913  46.5796493  59.8956993  53.1054913  46.4456493
  59.5596993  61.5614913  53.8066493  58.9856993  61.9774913  54.3156493
  60.2926993  62.0264913  53.9016493  59.5836993  61.6914913  53.8956493
  71.5936993  56.3344913  43.3716493  71.6616993  55.4844913  43.5526493
  70.7706993  56.4204913  43.0936493  71.4816993  56.2214913  43.3576493
  61.3456993  64.8284913  42.5816493  61.2006993  64.9844913  41.7356493
  62.2116993  64.9074913  42.6596493  61.4526993  64.8634913  42.4686493
  65.5126993  57.2254913  42.3096493  65.6126993  57.3644913  41.4546493
  66.3306993  57.1654913  42.6056493  65.6476993  57.2364913  42.2266493
  74.6726993  65.2894913  39.7896493  75.3096993  65.1554913  40.3706493
  74.3316993  64.4954913  39.6726493  74.7166993  65.1524913  39.8576493
  74.8676993  57.7074913  56.5226493  75.5016993  57.5374913  57.0966493
  75.2846993  58.1104913  55.8706493  75.0226993  57.7424913  56.5116493
  70.7476993  61.5544913  42.1116493  70.4966993  61.4264913  42.9376493
  70.4306993  60.8594913  41.6906493  70.6636993  61.4334913  42.1716493
  75.4926993  52.2714913  57.2606493  75.2966993  52.9154913  57.8156493
  74.7706993  51.7814913  57.2526493  75.3576993  52.2944913  57.3416493
  75.3916993  53.2124913  50.2316493  74.5586993  53.4624913  50.1596493
  75.3356993  52.3724913  50.4606493  75.2606993  53.1254913  50.2546493
  64.6516993  50.2004913  55.4256493  64.8856993  49.6244913  54.8126493
  63.8096993  50.0194913  55.5666493  64.5616993  50.0884913  55.3556493
  72.2786993  57.8184913  57.8776493  73.1496993  57.7824913  57.8416493
  72.0596993  58.2384913  57.1456493  72.3756993  57.8744913  57.7646493
  62.0326993  63.6434913  49.0586493  61.9536993  62.8334913  48.7426493
  61.5886993  64.1304913  48.4866493  61.9556993  63.5954913  48.9276493
  67.6336993  59.7624913  41.5416493  68.3506993  59.4154913  41.1856493
  67.5996993  60.5624913  41.1936493  67.7346993  59.8294913  41.4376493
  59.6046993  65.8874913  52.6396493  60.0976993  65.8314913  53.3576493
  59.7926993  65.1544913  52.2046493  59.7056993  65.7704913  52.6816493
  69.0426993  48.4034913  25.7804083  68.7976993  48.8914913  25.1004083
  69.9056993  48.3304913  25.6804083  69.1336993  48.4644913  25.6654083
  68.8516993  55.3194913  30.4514083  68.3276993  55.9154913  30.8144083
  69.2486993  54.9514913  31.1354083  68.8326993  55.3534913  30.6064083
  58.7206993  59.4594913  25.9074083  58.2796993  59.5774913  26.6504083
  58.4376993  58.6844913  25.6224083  58.6136993  59.3624913  25.9754083
  74.9956993  62.7604913  23.4224083  75.6966993  62.2414913  23.4184083
  74.4086993  62.3154913  22.9534083  75.0126993  62.6174913  23.3524083
  58.4636993  53.2514913  22.4144083  57.6856993  53.4134913  22.0544083
  58.5026993  52.3804913  22.4364083  58.3546993  53.1464913  22.3644083
  61.6026993  58.5144913  21.0864083  61.2106993  58.1434913  20.4004083
  61.5226993  57.9164913  21.7154083  61.5326993  58.3714913  21.0774083
  71.5226993  56.3864913  27.1274083  71.6026993  56.3904913  26.2584083
  70.9386993  55.7544913  27.2764083  71.4476993  56.2934913  27.0214083
  61.2296993  60.1554913  24.9864083  61.8376993  59.9854913  25.5894083
  60.4786993  60.0154913  25.4074083  61.2086993  60.1094913  25.1374083
  65.5116993  49.4904913  24.9354083  65.4416993  50.1674913  24.3894083
  66.2526993  49.1024913  24.6864083  65.6106993  49.5334913  24.8174083
  60.1206993  63.2464913  21.0634083  60.5876993  63.3304913  20.3314083
  60.5756993  62.6684913  21.5324083  60.2566993  63.1734913  21.0244083
  58.6606993  62.1944913  32.1624083  58.7896993  61.9144913  32.9784083
  58.0506993  61.6534913  31.8534083  58.5896993  62.0734913  32.2374083
  65.2346993  59.7194913  37.2294083  64.9986993  59.7164913  38.0694083
  64.4866993  59.5714913  36.8054083  65.0886993  59.6964913  37.2904083
  60.1066993  56.7154913  26.3644083  59.6446993  56.3234913  25.7374083
  60.8066993  56.2024913  26.4564083  60.1416993  56.5824913  26.2854083
  64.6146993  52.3254913  31.7114083  65.2926993  52.3434913  31.1624083
  64.5696993  51.4894913  31.9564083  64.7076993  52.2044913  31.6664083
  65.2166993  62.9114913  34.4924083  65.3546993  63.6714913  34.0854083
  66.0076993  62.5464913  34.5194083  65.3536993  62.9704913  34.4364083
  62.1076993  54.8154913  26.3874083  62.9246993  54.6284913  26.6304083
  61.6306993  54.2014913  26.7834083  62.1576993  54.6974913  26.4824083
  66.3116993  60.7964913  28.9974083  66.6596993  59.9974913  29.0274083
  66.9766993  61.3004913  28.7424083  66.4616993  60.7524913  28.9644083
  66.3686993  60.2454913  25.2084083  66.6996993  59.6014913  25.6944083
  66.6086993  60.0344913  24.3974083  66.4526993  60.1194913  25.1604083
  68.3366993  54.3764913  36.5474083  67.4886993  54.2774913  36.3694083
  68.3656993  55.1214913  37.0014083  68.2156993  54.4724913  36.5884083
  62.7046993  49.9094913  25.6534083  62.4086993  50.4104913  25.0034083
  63.5716993  49.9874913  25.5964083  62.7886993  49.9954913  25.5494083
  72.8946993  47.3364913  35.6614083  72.7366993  48.1054913  35.2794083
  72.1226993  47.1164913  36.0054083  72.7566993  47.4174913  35.6564083
  65.6836993  49.0514913  27.8764083  65.7566993  49.9114913  28.0054083
  65.6456993  48.9764913  27.0084083  65.6886993  49.1674913  27.7674083
  70.3566993  51.9774913  20.1754083  69.9066993  52.6584913  20.4824083
  70.4706993  51.4734913  20.8784083  70.3076993  52.0034913  20.3244083
  58.5626993  54.4764913  29.3774083  58.3066993  55.3074913  29.3024083
  57.8986993  54.0934913  29.7944083  58.4266993  54.5424913  29.4284083
  58.4726993  64.1864913  27.2774083  57.8806993  64.7444913  26.9644083
  58.8986993  63.9174913  26.5654083  58.4486993  64.2284913  27.1264083
  64.3126993  62.0304913  24.7574083  63.7336993  61.7554913  25.3494083
  64.9366993  61.4214913  24.7824083  64.3196993  61.9004913  24.8484083
  70.4556993  64.3184913  22.2794083  71.1826993  64.7904913  22.3814083
  70.6846993  63.5244913  22.5594083  70.5976993  64.2714913  22.3364083
  68.6236993  64.7104913  24.2694083  68.8376993  65.2374913  24.9314083
  69.3906993  64.5364913  23.8904083  68.7686993  64.7624913  24.3114083
  61.5916993  49.2934913  29.8684083  61.0706993  48.6654913  29.5604083
  62.1826993  48.8564913  30.3394083  61.6026993  49.1354913  29.8924083
  64.8976993  51.4264913  39.1664083  65.0146993  50.9724913  38.4304083
  65.1856993  52.2244913  38.9634083  64.9576993  51.4774913  39.0274083
  60.0176993  62.8564913  25.2084083  60.6736993  62.2814913  25.2234083
  60.4066993  63.6054913  24.9874083  60.1726993  62.8814913  25.1784083
  75.7506993  51.9504913  26.4704083  75.4046993  52.6284913  26.8964083
  75.1146993  51.3524913  26.4864083  75.6056993  51.9624913  26.5354083
  71.0626993  64.7204913  32.5744083  71.8066993  65.1764913  32.5644083
  70.9416993  64.5064913  31.7374083  71.1546993  64.7564913  32.4494083
  60.6306993  51.0234913  38.1504083  59.8526993  50.6334913  38.0784083
  61.1216993  50.6114913  37.5594083  60.5876993  50.9044913  38.0524083
  60.8356993  61.3434913  28.7084083  61.2586993  60.9874913  28.0344083
  61.1596993  60.9214913  29.4004083  60.9456993  61.2284913  28.7114083
  64.0666993  64.1954913  28.0044083  64.9106993  64.2994913  27.8094083
  63.7696993  65.0134913  28.0724083  64.1476993  64.3314913  27.9854083
  67.2796993  48.6664913  37.3184083  67.4576993  47.8574913  37.0434083
  67.1366993  49.1074913  36.5794083  67.2846993  48.6124913  37.1684083
  67.8736993  53.5924913  26.0914083  68.1606993  53.3604913  25.3014083
  68.6056993  53.6714913  26.5604083  68.0236993  53.5694913  26.0444083
  68.5956993  53.9314913  21.2124083  68.8766993  54.7194913  21.4614083
  67.8196993  54.0964913  20.8494083  68.5226993  54.0724913  21.1954083
  72.6366993  65.9054913  22.6794083  73.3016993  65.7574913  22.1344083
  72.9966993  65.8224913  23.4694083  72.7886993  65.8714913  22.7154083
  63.0646993  65.4144913  33.7444083  63.3566993  65.3474913  34.5644083
  62.4386993  64.8094913  33.6994083  63.0156993  65.3154913  33.8594083
  57.9786993  51.5714913  35.7364083  57.9746993  52.1584913  36.3824083
  58.5726993  51.8834913  35.1794083  58.0656993  51.7044913  35.7494083
  70.3166993  61.9054913  36.2784083  70.2826993  62.2874913  37.0624083
  71.1706993  61.8634913  36.1074083  70.4376993  61.9554913  36.3694083
  67.4546993  62.1024913  21.0284083  67.2736993  62.6474913  21.6854083
  68.2206993  62.3924913  20.7274083  67.5406993  62.2264913  21.0814083
  70.9616993  49.9984913  22.0824083  71.5016993  49.3164913  22.1584083
  71.0236993  50.3964913  22.8564083  71.0506993  49.9564913  22.2084083
  58.9156993  51.1664913  24.6514083  58.8016993  50.3024913  24.6824083
  58.4406993  51.4604913  25.3214083  58.8286993  51.0824913  24.7544083
  61.0576993  63.5764913  32.8664083  60.3596993  63.0684913  32.9924083
  61.3176993  63.3714913  32.0584083  60.9926993  63.4714913  32.7654083
  68.2196993  52.3744913  23.3964083  67.7116993  51.7124913  23.1424083
  68.2716993  52.8784913  22.6864083  68.1526993  52.3514913  23.2544083
  68.7686993  65.0694913  33.7764083  69.5366993  64.9894913  33.3704083
  68.1856993  64.9484913  33.1384083  68.7956993  65.0394913  33.6224083
  68.2196993  49.3154913  23.2874083  67.7646993  48.9134913  22.6614083
  68.9926993  49.4704913  22.9124083  68.2666993  49.2794913  23.1394083
  75.0456993  65.6724913  26.6774083  74.5906993  66.3894913  26.8784083
  74.4316993  65.1014913  26.4354083  74.8876993  65.6944913  26.6714083
  66.8176993  51.6824913  27.8094083  66.8916993  52.2504913  27.1514083
  66.9386993  52.1744913  28.5194083  66.8456993  51.8394913  27.8174083
  72.0426993  61.5174913  26.2214083  72.7436993  61.0354913  26.4104083
  71.3826993  60.9484913  26.2664083  72.0486993  61.3624913  26.2554083
  62.4186993  62.4274913  35.4334083  63.2596993  62.4904913  35.2114083
  62.3816993  62.8244913  36.2094083  62.5376993  62.4954913  35.5154083
  64.3816993  57.9384913  30.1824083  64.5536993  57.7284913  31.0114083
  63.7266993  57.4044913  29.9664083  64.3106993  57.8284913  30.2734083
  70.6096993  51.8524913  33.6974083  70.5146993  52.1714913  34.5034083
  70.0166993  51.2134913  33.6594083  70.5076993  51.8044913  33.8114083
  65.1316993  57.8764913  32.7724083  65.1846993  58.7234913  32.9744083
  64.8466993  57.5064913  33.5094083  65.0976993  57.9464913  32.9104083
  71.3086993  58.5714913  31.9024083  70.7946993  58.1594913  32.4734083
  71.1826993  59.4154913  32.0834083  71.2146993  58.6354913  32.0134083
  71.8656993  47.7964913  26.5334083  71.9146993  47.4784913  27.3444083
  72.1886993  47.1524913  26.0404083  71.9206993  47.6544913  26.5804083
  57.9526993  62.2474913  38.9834083  58.7086993  62.5964913  39.2414083
  58.1296993  61.3944913  38.9264083  58.0906993  62.1724913  39.0134083
  74.3296993  52.0324913  34.8414083  75.1016993  51.8074913  35.1784083
  73.8546993  52.2494913  35.5414083  74.3736993  52.0314913  34.9944083
  61.8736993  51.3154913  27.8114083  62.1456993  50.8854913  27.1034083
  61.6976993  50.6794913  28.3824083  61.8876993  51.1584913  27.7914083
  74.5616993  59.0104913  22.0294083  74.6806993  58.7234913  22.8444083
  75.3686993  59.0314913  21.6994083  74.6976993  58.9714913  22.1014083
  61.6976993  58.7424913  27.3604083  62.5486993  58.6624913  27.1874083
  61.3406993  58.0604913  26.9484083  61.7706993  58.6294913  27.2734083
  60.4646993  65.4674913  28.5974083  59.7916993  64.9694913  28.3524083
  60.8676993  65.6524913  27.8464083  60.4246993  65.4214913  28.4504083
  60.0146993  52.4174913  30.8934083  60.8576993  52.6374913  30.8504083
  59.6256993  52.9904913  30.3624083  60.0816993  52.5344913  30.8084083
  72.4566993  55.5474913  21.6144083  72.2366993  56.2784913  21.1924083
  72.0086993  55.5984913  22.3614083  72.3576993  55.6624913  21.6624083
  64.0656993  58.7494913  25.5954083  64.7786993  59.2444913  25.6854083
  64.2876993  58.1824913  24.9694083  64.2036993  58.7384913  25.5164083
  58.2216993  60.3924913  28.9154083  57.5546993  60.8804913  29.1914083
  58.9016993  60.9374913  28.9444083  58.2236993  60.5444913  28.9604083
  65.8686993  54.1024913  39.0114083  65.3846993  54.6794913  39.4534083
  65.8406993  54.3974913  38.1904083  65.7926993  54.2314913  38.9554083
  58.2876993  57.0764913  24.0184083  58.1026993  56.2374913  24.1704083
  58.9466993  57.0404913  23.4484083  58.3576993  56.9474913  23.9564083
  74.6456993  49.9664913  23.3464083  75.3916993  49.5594913  23.5454083
  74.9086993  50.6814913  22.9214083  74.7946993  50.0124913  23.3134083
  68.5886993  62.4524913  27.9224083  68.0656993  63.0864913  27.6294083
  68.8986993  62.0884913  27.1934083  68.5566993  62.4924913  27.7714083
  58.4596993  61.2404913  23.5934083  59.0116993  61.8094913  23.9574083
  58.2276993  60.7254913  24.2584083  58.5066993  61.2484913  23.7454083
  62.6636993  60.2404913  30.6824083  63.1306993  60.5294913  31.3604083
  63.2356993  59.7624913  30.2284083  62.8176993  60.2124913  30.7154083
  71.0996993  52.2544913  28.4194083  71.4436993  52.4064913  29.2064083
  70.6466993  51.5164913  28.5324083  71.0836993  52.1674913  28.5524083
  58.2896993  59.6894913  21.2214083  59.0456993  59.2574913  21.2794083
  58.3046993  60.2214913  21.9124083  58.4036993  59.7044913  21.3324083
  59.2296993  57.9104913  29.2264083  59.6606993  57.7814913  28.4794083
  59.0246993  58.7584913  29.2004083  59.2626993  58.0164913  29.1124083
  65.5756993  51.4744913  22.8764083  65.5736993  51.3574913  22.0114083
  65.3946993  52.3224913  22.9684083  65.5486993  51.5824913  22.7624083
  74.6296993  63.9014913  34.3734083  73.9586993  64.4154913  34.5914083
  74.6926993  64.0014913  33.5094083  74.5396993  63.9924913  34.2784083
  63.3136993  61.4264913  27.5084083  63.4396993  62.2694913  27.6954083
  63.9816993  61.0274913  27.9044083  63.4316993  61.4924913  27.5944083
  61.4436993  54.9094913  37.3704083  60.9076993  54.4034913  37.8384083
  61.4636993  54.5194913  36.5904083  61.3666993  54.7764913  37.3244083
  61.9286993  54.3064913  22.5104083  61.8006993  53.8584913  23.2484083
  61.3466993  53.9644913  21.9584083  61.8236993  54.1894913  22.5384083
  62.0956993  56.1364913  29.1094083  61.3146993  56.0774913  28.7264083
  62.1676993  55.3844913  29.5464083  61.9906993  56.0174913  29.1174083
  62.5256993  55.8734913  32.5774083  62.5506993  55.1984913  32.0264083
  61.8796993  56.3694913  32.2654083  62.4346993  55.8464913  32.4504083
  72.4206993  53.5864913  30.9734083  71.7586993  53.9144913  31.4364083
  72.6076993  54.2204913  30.4044083  72.3506993  53.7284913  30.9574083
  66.6256993  64.6504913  31.9694083  66.3486993  64.0094913  31.4464083
  66.4176993  65.3764913  31.5314083  66.5546993  64.6634913  31.8274083
  69.0656993  49.4924913  34.4024083  69.2146993  48.6674913  34.1594083
  69.4446993  49.5474913  35.1864083  69.1436993  49.3784913  34.4824083
  70.6136993  51.5554913  24.4844083  71.1036993  52.2724913  24.4074083
  69.8236993  51.8164913  24.2214083  70.5696993  51.6994913  24.4344083
  60.3246993  57.2284913  38.1364083  60.2876993  57.7294913  37.4224083
  60.6556993  56.4764913  37.8414083  60.3676993  57.1904913  37.9874083
  71.9276993  59.4334913  36.3944083  72.4116993  60.1514913  36.4924083
  72.3216993  59.0064913  35.7434083  72.0576993  59.4764913  36.3124083
  66.2236993  62.2784913  37.5714083  66.5776993  62.1004913  38.3484083
  65.7876993  61.5494913  37.3724083  66.2116993  62.1444913  37.6574083
  67.1956993  53.0254913  30.2094083  67.6756993  53.7244913  30.4174083
  67.5686993  52.3784913  30.6604083  67.3216993  53.0334913  30.3064083
  69.3846993  56.1944913  22.4834083  69.3766993  56.9164913  21.9934083
  68.7456993  56.3294913  23.0604083  69.2896993  56.3214913  22.4964083
  74.3566993  60.0644913  26.4644083  74.7126993  59.7144913  27.1794083
  74.3486993  59.4034913  25.8944083  74.4086993  59.9144913  26.4854083
  70.4016993  63.1304913  30.3084083  69.7986993  62.8344913  29.7514083
  70.9466993  63.5824913  29.7994083  70.3926993  63.1534913  30.1504083
  70.4146993  59.9814913  29.7084083  69.6176993  60.2054913  29.9824083
  70.6726993  59.3874913  30.2934083  70.3346993  59.9264913  29.8354083
  64.3066993  64.7934913  24.1564083  64.1596993  64.0174913  24.5274083
  64.9956993  64.6464913  23.6414083  64.3866993  64.6564913  24.1354083
  63.9776993  48.5364913  22.1444083  64.0746993  48.4294913  23.0054083
  63.2696993  49.0424913  22.0794083  63.8876993  48.5954913  22.2624083
  66.5986993  64.3094913  22.5584083  67.2206993  64.4724913  23.1484083
  66.6346993  65.0004913  22.0264083  66.6956993  64.4354913  22.5674083
  73.6746993  57.9794913  34.5544083  73.7296993  58.1044913  33.6924083
  74.4276993  58.2994913  34.8564083  73.7936993  58.0444913  34.4714083
  69.8656993  63.3284913  38.8314083  70.0296993  63.6114913  39.6404083
  70.1286993  63.9894913  38.3264083  69.9286993  63.4684913  38.8764083
  74.7066993  48.2774913  37.5414083  74.0696993  47.8774913  37.0994083
  74.7326993  47.8464913  38.2994083  74.6166993  48.1554913  37.5874083
  61.0996993  56.8434913  23.3874083  61.4236993  56.0644913  23.1654083
  61.7456993  57.2114913  23.8424083  61.2426993  56.7824913  23.4214083
  69.4056993  57.7854913  34.1544083  69.2506993  58.3954913  34.7584083
  69.9396993  57.2274913  34.5604083  69.4616993  57.7934913  34.3034083
  58.0966993  48.5044913  24.3554083  58.2256993  47.7964913  23.8634083
  57.7296993  48.1864913  25.0804083  58.0616993  48.3524913  24.3904083
  67.7896993  56.1854913  24.8124083  67.8486993  56.8354913  25.3914083
  67.6006993  55.4894913  25.3034083  67.7706993  56.1784913  24.9704083
  73.0156993  60.5144913  30.6814083  72.5366993  60.8124913  30.0154083
  72.6596993  59.7384913  30.8594083  72.8926993  60.4434913  30.6094083
  62.2856993  50.7024913  21.3244083  61.7746993  50.7554913  20.6184083
  63.0696993  50.9424913  21.0284083  62.3256993  50.7454913  21.1764083
  67.0126993  58.2324913  29.2434083  66.1656993  58.0384913  29.3244083
  67.3366993  58.0674913  30.0364083  66.9346993  58.1794913  29.3724083
  63.7646993  64.9624913  20.1294083  64.2036993  64.2654913  20.4174083
  63.9716993  65.5864913  20.7024083  63.8606993  64.9514913  20.2564083
  60.8606993  57.9254913  31.5594083  61.5826993  58.4134913  31.5224083
  60.5906993  57.8954913  30.7304083  60.9276993  57.9934913  31.4314083
  64.0906993  53.0964913  28.2944083  64.9366993  52.9064913  28.3924083
  63.7206993  52.3194913  28.1564083  64.1606993  52.9534913  28.2884083
  58.9116993  54.4344913  24.9494083  59.4006993  54.1424913  25.6104083
  59.0406993  53.8414913  24.3224083  59.0026993  54.3034913  24.9544083
  73.9466993  57.4564913  31.8004083  73.9396993  56.6804913  32.1984083
  73.1056993  57.6904913  31.7934083  73.8216993  57.3764913  31.8584083
  63.4366993  55.8684913  20.4354083  62.8266993  55.4634913  20.9094083
  63.0506993  55.9864913  19.6624083  63.2896993  55.8254913  20.3914083
  60.2556993  58.9774913  35.8374083  59.8346993  58.4594913  35.2764083
  59.9036993  59.7634913  35.6944083  60.1416993  59.0174913  35.7334083
  64.8916993  54.3294913  23.1454083  65.1636993  55.1554913  23.2124083
  64.0286993  54.4044913  23.0494083  64.8046993  54.4624913  23.1404083
  72.8646993  51.4514913  37.7774083  72.3396993  51.9104913  38.3014083
  72.5036993  50.6564913  37.7714083  72.7336993  51.4014913  37.8534083
  58.3716993  50.2994913  29.6814083  58.4156993  50.6434913  28.8804083
  59.1266993  50.5364913  30.0484083  58.4896993  50.3854913  29.6174083
  71.3566993  55.0204913  37.8534083  71.4296993  55.1244913  38.7164083
  70.7226993  55.5784913  37.6324083  71.2736993  55.1184913  37.9484083
  73.6246993  55.3394913  36.2184083  73.9436993  56.1254913  36.4214083
  73.2546993  55.0694913  36.9614083  73.6176993  55.4154913  36.3584083
  72.9386993  61.7634913  21.7484083  73.2726993  60.9574913  21.7834083
  72.1836993  61.6914913  22.1784083  72.8766993  61.6334913  21.8174083
  73.4206993  53.5974913  27.4074083  72.6756993  53.2744913  27.7254083
  73.4226993  54.4234913  27.6874083  73.3106993  53.6714913  27.4954083
  70.3126993  59.6384913  21.1514083  70.9966993  59.1244913  20.9824083
  69.8956993  59.6844913  20.3864083  70.3516993  59.5694913  21.0134083
  64.9946993  60.7884913  32.4554083  64.6966993  61.3804913  33.0224083
  65.0496993  61.2304913  31.7064083  64.9586993  60.9414913  32.4284083
  62.9736993  59.7384913  35.8534083  62.1676993  59.4484913  36.0204083
  62.8846993  60.6064913  35.8594083  62.8416993  59.8234913  35.8784083
  72.3326993  49.9274913  34.8684083  73.0766993  50.3794913  34.8054083
  71.7666993  50.3974913  34.3994083  72.3596993  50.0644913  34.7904083
  67.5106993  57.2114913  31.9464083  67.9866993  57.5854913  32.5744083
  66.6876993  57.3454913  32.2054083  67.4596993  57.2864913  32.0774083
  64.2206993  52.8144913  34.6874083  64.3816993  52.0704913  35.1144083
  64.1756993  52.5654913  33.8524083  64.2376993  52.6674913  34.6274083
  66.7746993  64.6044913  27.1744083  67.3206993  65.2834913  27.2284083
  66.4246993  64.6864913  26.3794083  66.8036993  64.7174913  27.0644083
  73.6176993  47.9074913  32.5384083  73.3376993  48.7324913  32.4944083
  74.3336993  47.9604913  33.0344083  73.6826993  48.0374913  32.6054083
  65.9726993  48.6224913  34.5674083  66.6776993  48.9424913  34.1654083
  66.2136993  47.8154913  34.7944083  66.1116993  48.5504913  34.5414083
  64.9576993  62.8324913  30.5634083  64.3336993  63.4144913  30.3814083
  65.2056993  62.5464913  29.7774083  64.9016993  62.8764913  30.4204083
  69.2666993  59.4664913  37.5524083  70.0236993  59.7524913  37.2264083
  68.7196993  59.5184913  36.8744083  69.2976993  59.5164913  37.4034083
  73.1756993  62.0164913  36.0564083  73.5216993  62.2864913  36.8104083
  73.4696993  62.5984913  35.4764083  73.2706993  62.1424913  36.0824083
  75.0386993  54.1624913  21.3954083  75.4166993  54.8394913  20.9954083
  74.1966993  54.3864913  21.4264083  74.9696993  54.2954913  21.3404083
  66.5516993  57.6084913  20.4784083  65.7466993  57.4314913  20.1934083
  66.5186993  58.4594913  20.6704083  66.4276993  57.7074913  20.4654083
  62.4816993  53.6754913  30.6284083  62.9216993  53.5724913  29.8824083
  63.0266993  53.3624913  31.2334083  62.6266993  53.6144913  30.6074083
  70.4976993  52.7774913  36.2204083  69.8496993  53.2474913  36.5684083
  71.0626993  52.6884913  36.8794083  70.4856993  52.8334913  36.3694083
  70.1856993  54.3144913  32.5184083  70.4876993  54.7344913  33.2214083
  70.2216993  53.4744913  32.7504083  70.2356993  54.2524913  32.6564083
  67.6106993  64.4814913  36.4434083  68.0886993  63.8814913  36.0274083
  67.2596993  64.0384913  37.1084083  67.6296993  64.3274913  36.4804083
  72.7336993  53.7614913  24.7704083  72.9406993  53.5604913  25.5944083
  73.4896993  54.0294913  24.4284083  72.8756993  53.7714913  24.8414083
  66.0286993  48.6604913  30.6754083  65.2026993  48.5114913  30.9124083
  65.9886993  48.6954913  29.8044083  65.9006993  48.6434913  30.5814083
  73.7556993  49.8444913  26.2444083  73.0416993  49.3734913  26.4154083
  73.5936993  50.1854913  25.4584083  73.6266993  49.8254913  26.1534083
  74.1986993  57.7884913  24.6244083  74.6746993  57.0594913  24.5764083
  73.3776993  57.5024913  24.5484083  74.1476993  57.6384913  24.6054083
  67.6696993  59.7004913  35.4634083  66.8746993  59.6364913  35.8144083
  67.7406993  60.5474913  35.2684083  67.5626993  59.8154913  35.4864083
  58.5936993  49.0584913  36.7104083  58.4536993  49.8534913  36.3794083
  57.8076993  48.8154913  36.9994083  58.4566993  49.1404913  36.7044083
  63.4996993  65.9074913  30.7804083  63.5106993  65.9664913  31.6504083
  63.0746993  65.1604913  30.6304083  63.4386993  65.8054913  30.8864083
  61.6576993  51.8024913  23.9354083  61.7836993  51.4734913  23.1374083
  60.8456993  51.5534913  24.1344083  61.5566993  51.7174913  23.8474083
  70.4146993  58.9554913  26.9794083  70.4906993  59.2964913  27.7784083
  70.5836993  58.1084913  27.1004083  70.4506993  58.8804913  27.1154083
  67.9366993  58.2294913  26.5444083  67.6386993  57.9144913  27.3014083
  68.6316993  58.7024913  26.7794083  67.9956993  58.2524913  26.6914083
  68.1586993  62.3474913  34.5714083  68.8456993  62.2334913  35.0964083
  68.2926993  63.1384913  34.2274083  68.2796993  62.4474913  34.5984083
  70.8476993  55.6214913  34.9584083  70.5926993  54.9024913  35.3804083
  71.6686993  55.7374913  35.2284083  70.9316993  55.5324913  35.0604083
  60.2636993  65.4054913  36.2224083  59.6096993  64.8364913  36.3204083
  59.8886993  66.1784913  36.3734083  60.1116993  65.4354913  36.2594083
  68.7816993  56.8114913  38.1454083  69.1046993  57.4974913  37.7134083
  68.0776993  57.1344913  38.5474083  68.7246993  56.9604913  38.1404083
  71.8656993  65.1854913  29.0744083  71.4146993  65.8284913  29.4534083
  72.5736993  65.1064913  29.5794083  71.9036993  65.2684913  29.2054083
  68.5666993  60.2754913  32.0044083  67.8726993  60.6774913  32.3474083
  69.2436993  60.7084913  32.3434083  68.5636993  60.3984913  32.1054083
  73.9436993  62.8684913  38.5844083  74.7196993  62.4784913  38.6674083
  73.4746993  62.5324913  39.2394083  73.9886993  62.7614913  38.6934083
  61.6346993  53.8134913  34.3514083  62.0096993  54.4324913  33.8644083
  62.3086993  53.3394913  34.6364083  61.7896993  53.8354913  34.3214083
  59.4096993  52.2614913  33.6264083  59.4866993  52.0924913  32.7734083
  60.1556993  52.6674913  33.8234083  59.5306993  52.2964913  33.5294083
  74.9686993  54.9014913  24.0664083  75.0716993  54.8434913  23.2024083
  75.7096993  54.5694913  24.3844083  75.0936993  54.8444913  23.9854083
  61.9636993  49.6714913  36.0374083  61.8826993  48.8274913  36.2434083
  61.6496993  49.7154913  35.2244083  61.9056993  49.5534913  35.9474083
  68.8886993  61.8664913  25.1734083  68.6836993  62.6994913  25.0144083
  68.1136993  61.4844913  25.2954083  68.7436993  61.9334913  25.1684083
  74.0706993  55.0474913  33.4224083  74.0686993  54.1844913  33.5464083
  74.1376993  55.3714913  34.2294083  74.0806993  54.9674913  33.5594083
  58.8066993  57.4874913  33.8504083  59.1266993  57.7064913  33.0694083
  58.7066993  56.6224913  33.7954083  58.8386993  57.3924913  33.7274083
  60.2626993  53.4234913  20.4684083  59.5906993  53.4374913  21.0244083
  60.3576993  52.5754913  20.2844083  60.1776993  53.3004913  20.5234083
  69.9496993  49.8474913  37.2044083  70.0416993  50.5594913  37.6984083
  69.3126993  49.4024913  37.6014083  69.8686993  49.8864913  37.3364083
  68.9436993  50.0374913  28.0584083  68.2436993  50.5554913  28.0024083
  68.9816993  49.6574913  27.2744083  68.8456993  50.0584913  27.9344083
  64.2506993  62.1284913  21.5824083  64.6916993  62.2084913  22.3304083
  63.4456993  61.9124913  21.8404083  64.1966993  62.1084913  21.7314083
  72.5416993  50.5534913  30.8584083  73.3966993  50.6524913  31.0034083
  72.1726993  51.1064913  31.4234083  72.6136993  50.6504913  30.9634083
  63.5696993  56.7794913  35.2354083  63.1736993  57.5534913  35.3104083
  63.1636993  56.4064913  34.5594083  63.4516993  56.8384913  35.1464083
  72.8456993  55.8334913  29.3494083  73.5116993  56.3744913  29.5094083
  72.5006993  56.1444913  28.6104083  72.8926993  55.9594913  29.2644083
  73.1586993  63.8994913  25.1564083  72.9846993  63.2454913  25.7064083
  73.8716993  63.6284913  24.7334083  73.2386993  63.7624913  25.1754083
  61.5796993  61.1984913  22.1834083  61.3356993  60.8914913  22.9634083
  61.5466993  60.4954913  21.6674083  61.5386993  61.0494913  22.2224083
  64.3986993  59.4434913  20.9264083  63.5806993  59.1754913  21.0664083
  64.3706993  60.2954913  21.1114083  64.2736993  59.5304913  20.9744083
  63.9986993  49.7564913  32.6854083  63.1346993  49.8404913  32.7654083
  64.2186993  49.2424913  33.3544083  63.9036993  49.6934913  32.7964083
  68.1016993  50.5044913  31.0594083  67.3646993  50.0504913  31.1724083
  68.6726993  50.1024913  31.5824083  68.0766993  50.3774913  31.1534083
  70.8336993  61.3524913  32.8474083  71.0396993  61.6534913  33.6394083
  70.7726993  62.0744913  32.3624083  70.8546993  61.5034913  32.8924083
  70.3676993  65.5664913  37.0934083  69.6146993  65.5484913  36.6524083
  70.5356993  66.4184913  37.1774083  70.2816993  65.6894913  37.0404083
  65.6046993  54.8334913  36.2634083  65.2826993  54.2574913  35.6934083
  65.2456993  55.5884913  36.0174083  65.5046993  54.8594913  36.1434083
  66.4006993  48.0854913  20.8904083  66.4786993  48.3324913  20.0574083
  65.6576993  48.4624913  21.1484083  66.3026993  48.1774913  20.8054083
  75.6456993  59.9914913  32.3054083  75.6136993  59.1294913  32.1704083
  74.9526993  60.2934913  31.8714083  75.5386993  59.9084913  32.2214083
  64.0396993  65.1894913  36.5114083  64.0806993  65.3154913  37.3744083
  64.6906993  64.6294913  36.3554083  64.1416993  65.1254913  36.6164083
  73.7506993  63.2514913  31.1024083  74.2776993  63.1684913  30.4114083
  73.3596993  62.4734913  31.1564083  73.7706993  63.1244913  31.0084083
  61.2186993  49.8394913  33.3334083  60.8756993  49.0724913  33.0994083
  60.5236993  50.3634913  33.3974083  61.0656993  49.8034913  33.3084083
  70.2646993  48.6954913  30.3104083  70.9346993  49.2394913  30.4374083
  69.7616993  49.1194913  29.7374083  70.2896993  48.8384913  30.2444083
  61.6326993  63.5724913  37.8714083  62.2276993  64.0034913  38.3434083
  61.2686993  64.1964913  37.3824083  61.6666993  63.7284913  37.8684083
  69.6236993  54.5034913  27.8034083  70.1746993  53.8964913  28.1034083
  69.1986993  54.7664913  28.5184083  69.6426993  54.4524913  27.9524083
  59.8716993  53.1534913  27.2894083  59.5036993  53.4554913  28.0204083
  60.4056993  52.5244913  27.5734083  59.8956993  53.1054913  27.4394083
  59.5596993  61.5614913  34.8004083  58.9856993  61.9774913  35.3094083
  60.2926993  62.0264913  34.8954083  59.5836993  61.6914913  34.8894083
  71.5936993  56.3344913  24.3654083  71.6616993  55.4844913  24.5464083
  70.7706993  56.4204913  24.0874083  71.4816993  56.2214913  24.3514083
  61.3456993  64.8284913  23.5754083  61.2006993  64.9844913  22.7294083
  62.2116993  64.9074913  23.6534083  61.4526993  64.8634913  23.4624083
  65.5126993  57.2254913  23.3034083  65.6126993  57.3644913  22.4484083
  66.3306993  57.1654913  23.5994083  65.6476993  57.2364913  23.2204083
  74.6726993  65.2894913  20.7834083  75.3096993  65.1554913  21.3644083
  74.3316993  64.4954913  20.6664083  74.7166993  65.1524913  20.8514083
  74.8676993  57.7074913  37.5164083  75.5016993  57.5374913  38.0904083
  75.2846993  58.1104913  36.8644083  75.0226993  57.7424913  37.5054083
  70.7476993  61.5544913  23.1054083  70.4966993  61.4264913  23.9314083
  70.4306993  60.8594913  22.6844083  70.6636993  61.4334913  23.1654083
  75.4926993  52.2714913  38.2544083  75.2966993  52.9154913  38.8094083
  74.7706993  51.7814913  38.2464083  75.3576993  52.2944913  38.3354083
  75.3916993  53.2124913  31.2254083  74.5586993  53.4624913  31.1534083
  75.3356993  52.3724913  31.4544083  75.2606993  53.1254913  31.2484083
  64.6516993  50.2004913  36.4194083  64.8856993  49.6244913  35.8064083
  63.8096993  50.0194913  36.5604083  64.5616993  50.0884913  36.3494083
  72.2786993  57.8184913  38.8714083  73.1496993  57.7824913  38.8354083
  72.0596993  58.2384913  38.1394083  72.3756993  57.8744913  38.7584083
  62.0326993  63.6434913  30.0524083  61.9536993  62.8334913  29.7364083
  61.5886993  64.1304913  29.4804083  61.9556993  63.5954913  29.9214083
  67.6336993  59.7624913  22.5354083  68.3506993  59.4154913  22.1794083
  67.5996993  60.5624913  22.1874083  67.7346993  59.8294913  22.4314083
  59.6046993  65.8874913  33.6334083  60.0976993  65.8314913  34.3514083
  59.7926993  65.1544913  33.1984083  59.7056993  65.7704913  33.6754083
  69.0426993  48.4034913   6.7741673  68.7976993  48.8914913   6.0941673
  69.9056993  48.3304913   6.6741673  69.1336993  48.4644913   6.6591673
  68.8516993  55.3194913  11.4451673  68.3276993  55.9154913  11.8081673
  69.2486993  54.9514913  12.1291673  68.8326993  55.3534913  11.6001673
  58.7206993  59.4594913   6.9011673  58.2796993  59.5774913   7.6441673
  58.4376993  58.6844913   6.6161673  58.6136993  59.3624913   6.9691673
  74.9956993  62.7604913   4.4161673  75.6966993  62.2414913   4.4121673
  74.4086993  62.3154913   3.9471673  75.0126993  62.6174913   4.3461673
  58.4636993  53.2514913   3.4081673  57.6856993  53.4134913   3.0481673
  58.5026993  52.3804913   3.4301673  58.3546993  53.1464913   3.3581673
  61.6026993  58.5144913   2.0801673  61.2106993  58.1434913   1.3941673
  61.5226993  57.9164913   2.7091673  61.5326993  58.3714913   2.0711673
  71.5226993  56.3864913   8.1211673  71.6026993  56.3904913   7.2521673
  70.9386993  55.7544913   8.2701673  71.4476993  56.2934913   8.0151673
  61.2296993  60.1554913   5.9801673  61.8376993  59.9854913   6.5831673
  60.4786993  60.0154913   6.4011673  61.2086993  60.1094913   6.1311673
  65.5116993  49.4904913   5.9291673  65.4416993  50.1674913   5.3831673
  66.2526993  49.1024913   5.6801673  65.6106993  49.5334913   5.8111673
  60.1206993  63.2464913   2.0571673  60.5876993  63.3304913   1.3251673
  60.5756993  62.6684913   2.5261673  60.2566993  63.1734913   2.0181673
  58.6606993  62.1944913  13.1561673  58.7896993  61.9144913  13.9721673
  58.0506993  61.6534913  12.8471673  58.5896993  62.0734913  13.2311673
  65.2346993  59.7194913  18.2231673  64.9986993  59.7164913  19.0631673
  64.4866993  59.5714913  17.7991673  65.0886993  59.6964913  18.2841673
  60.1066993  56.7154913   7.3581673  59.6446993  56.3234913   6.7311673
  60.8066993  56.2024913   7.4501673  60.1416993  56.5824913   7.2791673
  64.6146993  52.3254913  12.7051673  65.2926993  52.3434913  12.1561673
  64.5696993  51.4894913  12.9501673  64.7076993  52.2044913  12.6601673
  65.2166993  62.9114913  15.4861673  65.3546993  63.6714913  15.0791673
  66.0076993  62.5464913  15.5131673  65.3536993  62.9704913  15.4301673
  62.1076993  54.8154913   7.3811673  62.9246993  54.6284913   7.6241673
  61.6306993  54.2014913   7.7771673  62.1576993  54.6974913   7.4761673
  66.3116993  60.7964913   9.9911673  66.6596993  59.9974913  10.0211673
  66.9766993  61.3004913   9.7361673  66.4616993  60.7524913   9.9581673
  66.3686993  60.2454913   6.2021673  66.6996993  59.6014913   6.6881673
  66.6086993  60.0344913   5.3911673  66.4526993  60.1194913   6.1541673
  68.3366993  54.3764913  17.5411673  67.4886993  54.2774913  17.3631673
  68.3656993  55.1214913  17.9951673  68.2156993  54.4724913  17.5821673
  62.7046993  49.9094913   6.6471673  62.4086993  50.4104913   5.9971673
  63.5716993  49.9874913   6.5901673  62.7886993  49.9954913   6.5431673
  72.8946993  47.3364913  16.6551673  72.7366993  48.1054913  16.2731673
  72.1226993  47.1164913  16.9991673  72.7566993  47.4174913  16.6501673
  65.6836993  49.0514913   8.8701673  65.7566993  49.9114913   8.9991673
  65.6456993  48.9764913   8.0021673  65.6886993  49.1674913   8.7611673
  58.5626993  54.4764913  10.3711673  58.3066993  55.3074913  10.2961673
  57.8986993  54.0934913  10.7881673  58.4266993  54.5424913  10.4221673
  58.4726993  64.1864913   8.2711673  57.8806993  64.7444913   7.9581673
  58.8986993  63.9174913   7.5591673  58.4486993  64.2284913   8.1201673
  64.3126993  62.0304913   5.7511673  63.7336993  61.7554913   6.3431673
  64.9366993  61.4214913   5.7761673  64.3196993  61.9004913   5.8421673
  70.4556993  64.3184913   3.2731673  71.1826993  64.7904913   3.3751673
  70.6846993  63.5244913   3.5531673  70.5976993  64.2714913   3.3301673
  68.6236993  64.7104913   5.2631673  68.8376993  65.2374913   5.9251673
  69.3906993  64.5364913   4.8841673  68.7686993  64.7624913   5.3051673
  61.5916993  49.2934913  10.8621673  61.0706993  48.6654913  10.5541673
  62.1826993  48.8564913  11.3331673  61.6026993  49.1354913  10.8861673
  64.8976993  51.4264913  20.1601673  65.0146993  50.9724913  19.4241673
  65.1856993  52.2244913  19.9571673  64.9576993  51.4774913  20.0211673
  60.0176993  62.8564913   6.2021673  60.6736993  62.2814913   6.2171673
  60.4066993  63.6054913   5.9811673  60.1726993  62.8814913   6.1721673
  75.7506993  51.9504913   7.4641673  75.4046993  52.6284913   7.8901673
  75.1146993  51.3524913   7.4801673  75.6056993  51.9624913   7.5291673
  71.0626993  64.7204913  13.5681673  71.8066993  65.1764913  13.5581673
  70.9416993  64.5064913  12.7311673  71.1546993  64.7564913  13.4431673
  60.6306993  51.0234913  19.1441673  59.8526993  50.6334913  19.0721673
  61.1216993  50.6114913  18.5531673  60.5876993  50.9044913  19.0461673
  60.8356993  61.3434913   9.7021673  61.2586993  60.9874913   9.0281673
  61.1596993  60.9214913  10.3941673  60.9456993  61.2284913   9.7051673
  64.0666993  64.1954913   8.9981673  64.9106993  64.2994913   8.8031673
  63.7696993  65.0134913   9.0661673  64.1476993  64.3314913   8.9791673
  67.2796993  48.6664913  18.3121673  67.4576993  47.8574913  18.0371673
  67.1366993  49.1074913  17.5731673  67.2846993  48.6124913  18.1621673
  67.8736993  53.5924913   7.0851673  68.1606993  53.3604913   6.2951673
  68.6056993  53.6714913   7.5541673  68.0236993  53.5694913   7.0381673
  68.5956993  53.9314913   2.2061673  68.8766993  54.7194913   2.4551673
  67.8196993  54.0964913   1.8431673  68.5226993  54.0724913   2.1891673
  72.6366993  65.9054913   3.6731673  73.3016993  65.7574913   3.1281673
  72.9966993  65.8224913   4.4631673  72.7886993  65.8714913   3.7091673
  63.0646993  65.4144913  14.7381673  63.3566993  65.3474913  15.5581673
  62.4386993  64.8094913  14.6931673  63.0156993  65.3154913  14.8531673
  57.9786993  51.5714913  16.7301673  57.9746993  52.1584913  17.3761673
  58.5726993  51.8834913  16.1731673  58.0656993  51.7044913  16.7431673
  70.3166993  61.9054913  17.2721673  70.2826993  62.2874913  18.0561673
  71.1706993  61.8634913  17.1011673  70.4376993  61.9554913  17.3631673
  67.4546993  62.1024913   2.0221673  67.2736993  62.6474913   2.6791673
  68.2206993  62.3924913   1.7211673  67.5406993  62.2264913   2.0751673
  70.9616993  49.9984913   3.0761673  71.5016993  49.3164913   3.1521673
  71.0236993  50.3964913   3.8501673  71.0506993  49.9564913   3.2021673
  58.9156993  51.1664913   5.6451673  58.8016993  50.3024913   5.6761673
  58.4406993  51.4604913   6.3151673  58.8286993  51.0824913   5.7481673
  61.0576993  63.5764913  13.8601673  60.3596993  63.0684913  13.9861673
  61.3176993  63.3714913  13.0521673  60.9926993  63.4714913  13.7591673
  68.2196993  52.3744913   4.3901673  67.7116993  51.7124913   4.1361673
  68.2716993  52.8784913   3.6801673  68.1526993  52.3514913   4.2481673
  68.7686993  65.0694913  14.7701673  69.5366993  64.9894913  14.3641673
  68.1856993  64.9484913  14.1321673  68.7956993  65.0394913  14.6161673
  68.2196993  49.3154913   4.2811673  67.7646993  48.9134913   3.6551673
  68.9926993  49.4704913   3.9061673  68.2666993  49.2794913   4.1331673
  75.0456993  65.6724913   7.6711673  74.5906993  66.3894913   7.8721673
  74.4316993  65.1014913   7.4291673  74.8876993  65.6944913   7.6651673
  66.8176993  51.6824913   8.8031673  66.8916993  52.2504913   8.1451673
  66.9386993  52.1744913   9.5131673  66.8456993  51.8394913   8.8111673
  72.0426993  61.5174913   7.2151673  72.7436993  61.0354913   7.4041673
  71.3826993  60.9484913   7.2601673  72.0486993  61.3624913   7.2491673
  62.4186993  62.4274913  16.4271673  63.2596993  62.4904913  16.2051673
  62.3816993  62.8244913  17.2031673  62.5376993  62.4954913  16.5091673
  61.4256993  47.5054913   7.1511673  61.9616993  48.1934913   7.1411673
  61.4286993  47.2314913   6.3231673  61.5046993  47.5664913   7.0271673
  64.3816993  57.9384913  11.1761673  64.5536993  57.7284913  12.0051673
  63.7266993  57.4044913  10.9601673  64.3106993  57.8284913  11.2671673
  70.6096993  51.8524913  14.6911673  70.5146993  52.1714913  15.4971673
  70.0166993  51.2134913  14.6531673  70.5076993  51.8044913  14.8051673
  65.1316993  57.8764913  13.7661673  65.1846993  58.7234913  13.9681673
  64.8466993  57.5064913  14.5031673  65.0976993  57.9464913  13.9041673
  71.3086993  58.5714913  12.8961673  70.7946993  58.1594913  13.4671673
  71.1826993  59.4154913  13.0771673  71.2146993  58.6354913  13.0071673
  71.8656993  47.7964913   7.5271673  71.9146993  47.4784913   8.3381673
  72.1886993  47.1524913   7.0341673  71.9206993  47.6544913   7.5741673
  57.9526993  62.2474913  19.9771673  58.7086993  62.5964913  20.2351673
  58.1296993  61.3944913  19.9201673  58.0906993  62.1724913  20.0071673
  74.3296993  52.0324913  15.8351673  75.1016993  51.8074913  16.1721673
  73.8546993  52.2494913  16.5351673  74.3736993  52.0314913  15.9881673
  61.8736993  51.3154913   8.8051673  62.1456993  50.8854913   8.0971673
  61.6976993  50.6794913   9.3761673  61.8876993  51.1584913   8.7851673
  74.5616993  59.0104913   3.0231673  74.6806993  58.7234913   3.8381673
  75.3686993  59.0314913   2.6931673  74.6976993  58.9714913   3.0951673
  61.6976993  58.7424913   8.3541673  62.5486993  58.6624913   8.1811673
  61.3406993  58.0604913   7.9421673  61.7706993  58.6294913   8.2671673
  60.4646993  65.4674913   9.5911673  59.7916993  64.9694913   9.3461673
  60.8676993  65.6524913   8.8401673  60.4246993  65.4214913   9.4441673
  60.0146993  52.4174913  11.8871673  60.8576993  52.6374913  11.8441673
  59.6256993  52.9904913  11.3561673  60.0816993  52.5344913  11.8021673
  72.4566993  55.5474913   2.6081673  72.2366993  56.2784913   2.1861673
  72.0086993  55.5984913   3.3551673  72.3576993  55.6624913   2.6561673
  64.0656993  58.7494913   6.5891673  64.7786993  59.2444913   6.6791673
  64.2876993  58.1824913   5.9631673  64.2036993  58.7384913   6.5101673
  58.2216993  60.3924913   9.9091673  57.5546993  60.8804913  10.1851673
  58.9016993  60.9374913   9.9381673  58.2236993  60.5444913   9.9541673
  65.8686993  54.1024913  20.0051673  65.3846993  54.6794913  20.4471673
  65.8406993  54.3974913  19.1841673  65.7926993  54.2314913  19.9491673
  58.2876993  57.0764913   5.0121673  58.1026993  56.2374913   5.1641673
  58.9466993  57.0404913   4.4421673  58.3576993  56.9474913   4.9501673
  74.6456993  49.9664913   4.3401673  75.3916993  49.5594913   4.5391673
  74.9086993  50.6814913   3.9151673  74.7946993  50.0124913   4.3071673
  68.5886993  62.4524913   8.9161673  68.0656993  63.0864913   8.6231673
  68.8986993  62.0884913   8.1871673  68.5566993  62.4924913   8.7651673
  58.4596993  61.2404913   4.5871673  59.0116993  61.8094913   4.9511673
  58.2276993  60.7254913   5.2521673  58.5066993  61.2484913   4.7391673
  62.6636993  60.2404913  11.6761673  63.1306993  60.5294913  12.3541673
  63.2356993  59.7624913  11.2221673  62.8176993  60.2124913  11.7091673
  71.0996993  52.2544913   9.4131673  71.4436993  52.4064913  10.2001673
  70.6466993  51.5164913   9.5261673  71.0836993  52.1674913   9.5461673
  58.2896993  59.6894913   2.2151673  59.0456993  59.2574913   2.2731673
  58.3046993  60.2214913   2.9061673  58.4036993  59.7044913   2.3261673
  59.2296993  57.9104913  10.2201673  59.6606993  57.7814913   9.4731673
  59.0246993  58.7584913  10.1941673  59.2626993  58.0164913  10.1061673
  65.5756993  51.4744913   3.8701673  65.5736993  51.3574913   3.0051673
  65.3946993  52.3224913   3.9621673  65.5486993  51.5824913   3.7561673
  74.6296993  63.9014913  15.3671673  73.9586993  64.4154913  15.5851673
  74.6926993  64.0014913  14.5031673  74.5396993  63.9924913  15.2721673
  63.3136993  61.4264913   8.5021673  63.4396993  62.2694913   8.6891673
  63.9816993  61.0274913   8.8981673  63.4316993  61.4924913   8.5881673
  61.4436993  54.9094913  18.3641673  60.9076993  54.4034913  18.8321673
  61.4636993  54.5194913  17.5841673  61.3666993  54.7764913  18.3181673
  61.9286993  54.3064913   3.5041673  61.8006993  53.8584913   4.2421673
  61.3466993  53.9644913   2.9521673  61.8236993  54.1894913   3.5321673
  62.0956993  56.1364913  10.1031673  61.3146993  56.0774913   9.7201673
  62.1676993  55.3844913  10.5401673  61.9906993  56.0174913  10.1111673
  62.5256993  55.8734913  13.5711673  62.5506993  55.1984913  13.0201673
  61.8796993  56.3694913  13.2591673  62.4346993  55.8464913  13.4441673
  72.4206993  53.5864913  11.9671673  71.7586993  53.9144913  12.4301673
  72.6076993  54.2204913  11.3981673  72.3506993  53.7284913  11.9511673
  66.6256993  64.6504913  12.9631673  66.3486993  64.0094913  12.4401673
  66.4176993  65.3764913  12.5251673  66.5546993  64.6634913  12.8211673
  69.0656993  49.4924913  15.3961673  69.2146993  48.6674913  15.1531673
  69.4446993  49.5474913  16.1801673  69.1436993  49.3784913  15.4761673
  70.6136993  51.5554913   5.4781673  71.1036993  52.2724913   5.4011673
  69.8236993  51.8164913   5.2151673  70.5696993  51.6994913   5.4281673
  60.3246993  57.2284913  19.1301673  60.2876993  57.7294913  18.4161673
  60.6556993  56.4764913  18.8351673  60.3676993  57.1904913  18.9811673
  71.9276993  59.4334913  17.3881673  72.4116993  60.1514913  17.4861673
  72.3216993  59.0064913  16.7371673  72.0576993  59.4764913  17.3061673
  66.2236993  62.2784913  18.5651673  66.5776993  62.1004913  19.3421673
  65.7876993  61.5494913  18.3661673  66.2116993  62.1444913  18.6511673
  67.1956993  53.0254913  11.2031673  67.6756993  53.7244913  11.4111673
  67.5686993  52.3784913  11.6541673  67.3216993  53.0334913  11.3001673
  69.3846993  56.1944913   3.4771673  69.3766993  56.9164913   2.9871673
  68.7456993  56.3294913   4.0541673  69.2896993  56.3214913   3.4901673
  74.3566993  60.0644913   7.4581673  74.7126993  59.7144913   8.1731673
  74.3486993  59.4034913   6.8881673  74.4086993  59.9144913   7.4791673
  70.4016993  63.1304913  11.3021673  69.7986993  62.8344913  10.7451673
  70.9466993  63.5824913  10.7931673  70.3926993  63.1534913  11.1441673
  70.4146993  59.9814913  10.7021673  69.6176993  60.2054913  10.9761673
  70.6726993  59.3874913  11.2871673  70.3346993  59.9264913  10.8291673
  64.3066993  64.7934913   5.1501673  64.1596993  64.0174913   5.5211673
  64.9956993  64.6464913   4.6351673  64.3866993  64.6564913   5.1291673
  63.9776993  48.5364913   3.1381673  64.0746993  48.4294913   3.9991673
  63.2696993  49.0424913   3.0731673  63.8876993  48.5954913   3.2561673
  66.5986993  64.3094913   3.5521673  67.2206993  64.4724913   4.1421673
  66.6346993  65.0004913   3.0201673  66.6956993  64.4354913   3.5611673
  73.6746993  57.9794913  15.5481673  73.7296993  58.1044913  14.6861673
  74.4276993  58.2994913  15.8501673  73.7936993  58.0444913  15.4651673
  69.8656993  63.3284913  19.8251673  70.0296993  63.6114913  20.6341673
  70.1286993  63.9894913  19.3201673  69.9286993  63.4684913  19.8701673
  74.7066993  48.2774913  18.5351673  74.0696993  47.8774913  18.0931673
  74.7326993  47.8464913  19.2931673  74.6166993  48.1554913  18.5811673
  61.0996993  56.8434913   4.3811673  61.4236993  56.0644913   4.1591673
  61.7456993  57.2114913   4.8361673  61.2426993  56.7824913   4.4151673
  69.4056993  57.7854913  15.1481673  69.2506993  58.3954913  15.7521673
  69.9396993  57.2274913  15.5541673  69.4616993  57.7934913  15.2971673
  58.0966993  48.5044913   5.3491673  58.2256993  47.7964913   4.8571673
  57.7296993  48.1864913   6.0741673  58.0616993  48.3524913   5.3841673
  67.7896993  56.1854913   5.8061673  67.8486993  56.8354913   6.3851673
  67.6006993  55.4894913   6.2971673  67.7706993  56.1784913   5.9641673
  73.0156993  60.5144913  11.6751673  72.5366993  60.8124913  11.0091673
  72.6596993  59.7384913  11.8531673  72.8926993  60.4434913  11.6031673
  62.2856993  50.7024913   2.3181673  61.7746993  50.7554913   1.6121673
  63.0696993  50.9424913   2.0221673  62.3256993  50.7454913   2.1701673
  67.0126993  58.2324913  10.2371673  66.1656993  58.0384913  10.3181673
  67.3366993  58.0674913  11.0301673  66.9346993  58.1794913  10.3661673
  60.8606993  57.9254913  12.5531673  61.5826993  58.4134913  12.5161673
  60.5906993  57.8954913  11.7241673  60.9276993  57.9934913  12.4251673
  64.0906993  53.0964913   9.2881673  64.9366993  52.9064913   9.3861673
  63.7206993  52.3194913   9.1501673  64.1606993  52.9534913   9.2821673
  58.9116993  54.4344913   5.9431673  59.4006993  54.1424913   6.6041673
  59.0406993  53.8414913   5.3161673  59.0026993  54.3034913   5.9481673
  73.9466993  57.4564913  12.7941673  73.9396993  56.6804913  13.1921673
  73.1056993  57.6904913  12.7871673  73.8216993  57.3764913  12.8521673
  60.2556993  58.9774913  16.8311673  59.8346993  58.4594913  16.2701673
  59.9036993  59.7634913  16.6881673  60.1416993  59.0174913  16.7271673
  64.8916993  54.3294913   4.1391673  65.1636993  55.1554913   4.2061673
  64.0286993  54.4044913   4.0431673  64.8046993  54.4624913   4.1341673
  72.8646993  51.4514913  18.7711673  72.3396993  51.9104913  19.2951673
  72.5036993  50.6564913  18.7651673  72.7336993  51.4014913  18.8471673
  58.3716993  50.2994913  10.6751673  58.4156993  50.6434913   9.8741673
  59.1266993  50.5364913  11.0421673  58.4896993  50.3854913  10.6111673
  71.3566993  55.0204913  18.8471673  71.4296993  55.1244913  19.7101673
  70.7226993  55.5784913  18.6261673  71.2736993  55.1184913  18.9421673
  73.6246993  55.3394913  17.2121673  73.9436993  56.1254913  17.4151673
  73.2546993  55.0694913  17.9551673  73.6176993  55.4154913  17.3521673
  72.9386993  61.7634913   2.7421673  73.2726993  60.9574913   2.7771673
  72.1836993  61.6914913   3.1721673  72.8766993  61.6334913   2.8111673
  73.4206993  53.5974913   8.4011673  72.6756993  53.2744913   8.7191673
  73.4226993  54.4234913   8.6811673  73.3106993  53.6714913   8.4891673
  70.3126993  59.6384913   2.1451673  70.9966993  59.1244913   1.9761673
  69.8956993  59.6844913   1.3801673  70.3516993  59.5694913   2.0071673
  64.9946993  60.7884913  13.4491673  64.6966993  61.3804913  14.0161673
  65.0496993  61.2304913  12.7001673  64.9586993  60.9414913  13.4221673
  62.9736993  59.7384913  16.8471673  62.1676993  59.4484913  17.0141673
  62.8846993  60.6064913  16.8531673  62.8416993  59.8234913  16.8721673
  72.3326993  49.9274913  15.8621673  73.0766993  50.3794913  15.7991673
  71.7666993  50.3974913  15.3931673  72.3596993  50.0644913  15.7841673
  67.5106993  57.2114913  12.9401673  67.9866993  57.5854913  13.5681673
  66.6876993  57.3454913  13.1991673  67.4596993  57.2864913  13.0711673
  64.2206993  52.8144913  15.6811673  64.3816993  52.0704913  16.1081673
  64.1756993  52.5654913  14.8461673  64.2376993  52.6674913  15.6211673
  66.7746993  64.6044913   8.1681673  67.3206993  65.2834913   8.2221673
  66.4246993  64.6864913   7.3731673  66.8036993  64.7174913   8.0581673
  73.6176993  47.9074913  13.5321673  73.3376993  48.7324913  13.4881673
  74.3336993  47.9604913  14.0281673  73.6826993  48.0374913  13.5991673
  65.9726993  48.6224913  15.5611673  66.6776993  48.9424913  15.1591673
  66.2136993  47.8154913  15.7881673  66.1116993  48.5504913  15.5351673
  64.9576993  62.8324913  11.5571673  64.3336993  63.4144913  11.3751673
  65.2056993  62.5464913  10.7711673  64.9016993  62.8764913  11.4141673
  69.2666993  59.4664913  18.5461673  70.0236993  59.7524913  18.2201673
  68.7196993  59.5184913  17.8681673  69.2976993  59.5164913  18.3971673
  73.1756993  62.0164913  17.0501673  73.5216993  62.2864913  17.8041673
  73.4696993  62.5984913  16.4701673  73.2706993  62.1424913  17.0761673
  75.0386993  54.1624913   2.3891673  75.4166993  54.8394913   1.9891673
  74.1966993  54.3864913   2.4201673  74.9696993  54.2954913   2.3341673
  62.4816993  53.6754913  11.6221673  62.9216993  53.5724913  10.8761673
  63.0266993  53.3624913  12.2271673  62.6266993  53.6144913  11.6011673
  70.4976993  52.7774913  17.2141673  69.8496993  53.2474913  17.5621673
  71.0626993  52.6884913  17.8731673  70.4856993  52.8334913  17.3631673
  70.1856993  54.3144913  13.5121673  70.4876993  54.7344913  14.2151673
  70.2216993  53.4744913  13.7441673  70.2356993  54.2524913  13.6501673
  67.6106993  64.4814913  17.4371673  68.0886993  63.8814913  17.0211673
  67.2596993  64.0384913  18.1021673  67.6296993  64.3274913  17.4741673
  72.7336993  53.7614913   5.7641673  72.9406993  53.5604913   6.5881673
  73.4896993  54.0294913   5.4221673  72.8756993  53.7714913   5.8351673
  66.0286993  48.6604913  11.6691673  65.2026993  48.5114913  11.9061673
  65.9886993  48.6954913  10.7981673  65.9006993  48.6434913  11.5751673
  73.7556993  49.8444913   7.2381673  73.0416993  49.3734913   7.4091673
  73.5936993  50.1854913   6.4521673  73.6266993  49.8254913   7.1471673
  74.1986993  57.7884913   5.6181673  74.6746993  57.0594913   5.5701673
  73.3776993  57.5024913   5.5421673  74.1476993  57.6384913   5.5991673
  67.6696993  59.7004913  16.4571673  66.8746993  59.6364913  16.8081673
  67.7406993  60.5474913  16.2621673  67.5626993  59.8154913  16.4801673
  58.5936993  49.0584913  17.7041673  58.4536993  49.8534913  17.3731673
  57.8076993  48.8154913  17.9931673  58.4566993  49.1404913  17.6981673
  63.4996993  65.9074913  11.7741673  63.5106993  65.9664913  12.6441673
  63.0746993  65.1604913  11.6241673  63.4386993  65.8054913  11.8801673
  61.6576993  51.8024913   4.9291673  61.7836993  51.4734913   4.1311673
  60.8456993  51.5534913   5.1281673  61.5566993  51.7174913   4.8411673
  70.4146993  58.9554913   7.9731673  70.4906993  59.2964913   8.7721673
  70.5836993  58.1084913   8.0941673  70.4506993  58.8804913   8.1091673
  67.9366993  58.2294913   7.5381673  67.6386993  57.9144913   8.2951673
  68.6316993  58.7024913   7.7731673  67.9956993  58.2524913   7.6851673
  68.1586993  62.3474913  15.5651673  68.8456993  62.2334913  16.0901673
  68.2926993  63.1384913  15.2211673  68.2796993  62.4474913  15.5921673
  70.8476993  55.6214913  15.9521673  70.5926993  54.9024913  16.3741673
  71.6686993  55.7374913  16.2221673  70.9316993  55.5324913  16.0541673
  60.2636993  65.4054913  17.2161673  59.6096993  64.8364913  17.3141673
  59.8886993  66.1784913  17.3671673  60.1116993  65.4354913  17.2531673
  68.7816993  56.8114913  19.1391673  69.1046993  57.4974913  18.7071673
  68.0776993  57.1344913  19.5411673  68.7246993  56.9604913  19.1341673
  71.8656993  65.1854913  10.0681673  71.4146993  65.8284913  10.4471673
  72.5736993  65.1064913  10.5731673  71.9036993  65.2684913  10.1991673
  68.5666993  60.2754913  12.9981673  67.8726993  60.6774913  13.3411673
  69.2436993  60.7084913  13.3371673  68.5636993  60.3984913  13.0991673
  73.9436993  62.8684913  19.5781673  74.7196993  62.4784913  19.6611673
  73.4746993  62.5324913  20.2331673  73.9886993  62.7614913  19.6871673
  61.6346993  53.8134913  15.3451673  62.0096993  54.4324913  14.8581673
  62.3086993  53.3394913  15.6301673  61.7896993  53.8354913  15.3151673
  59.4096993  52.2614913  14.6201673  59.4866993  52.0924913  13.7671673
  60.1556993  52.6674913  14.8171673  59.5306993  52.2964913  14.5231673
  74.9686993  54.9014913   5.0601673  75.0716993  54.8434913   4.1961673
  75.7096993  54.5694913   5.3781673  75.0936993  54.8444913   4.9791673
  61.9636993  49.6714913  17.0311673  61.8826993  48.8274913  17.2371673
  61.6496993  49.7154913  16.2181673  61.9056993  49.5534913  16.9411673
  68.8886993  61.8664913   6.1671673  68.6836993  62.6994913   6.0081673
  68.1136993  61.4844913   6.2891673  68.7436993  61.9334913   6.1621673
  74.0706993  55.0474913  14.4161673  74.0686993  54.1844913  14.5401673
  74.1376993  55.3714913  15.2231673  74.0806993  54.9674913  14.5531673
  58.8066993  57.4874913  14.8441673  59.1266993  57.7064913  14.0631673
  58.7066993  56.6224913  14.7891673  58.8386993  57.3924913  14.7211673
  69.9496993  49.8474913  18.1981673  70.0416993  50.5594913  18.6921673
  69.3126993  49.4024913  18.5951673  69.8686993  49.8864913  18.3301673
  68.9436993  50.0374913   9.0521673  68.2436993  50.5554913   8.9961673
  68.9816993  49.6574913   8.2681673  68.8456993  50.0584913   8.9281673
  64.2506993  62.1284913   2.5761673  64.6916993  62.2084913   3.3241673
  63.4456993  61.9124913   2.8341673  64.1966993  62.1084913   2.7251673
  72.5416993  50.5534913  11.8521673  73.3966993  50.6524913  11.9971673
  72.1726993  51.1064913  12.4171673  72.6136993  50.6504913  11.9571673
  63.5696993  56.7794913  16.2291673  63.1736993  57.5534913  16.3041673
  63.1636993  56.4064913  15.5531673  63.4516993  56.8384913  16.1401673
  72.8456993  55.8334913  10.3431673  73.5116993  56.3744913  10.5031673
  72.5006993  56.1444913   9.6041673  72.8926993  55.9594913  10.2581673
  73.1586993  63.8994913   6.1501673  72.9846993  63.2454913   6.7001673
  73.8716993  63.6284913   5.7271673  73.2386993  63.7624913   6.1691673
  61.5796993  61.1984913   3.1771673  61.3356993  60.8914913   3.9571673
  61.5466993  60.4954913   2.6611673  61.5386993  61.0494913   3.2161673
  64.3986993  59.4434913   1.9201673  63.5806993  59.1754913   2.0601673
  64.3706993  60.2954913   2.1051673  64.2736993  59.5304913   1.9681673
  63.9986993  49.7564913  13.6791673  63.1346993  49.8404913  13.7591673
  64.2186993  49.2424913  14.3481673  63.9036993  49.6934913  13.7901673
  68.1016993  50.5044913  12.0531673  67.3646993  50.0504913  12.1661673
  68.6726993  50.1024913  12.5761673  68.0766993  50.3774913  12.1471673
  70.8336993  61.3524913  13.8411673  71.0396993  61.6534913  14.6331673
  70.7726993  62.0744913  13.3561673  70.8546993  61.5034913  13.8861673
  70.3676993  65.5664913  18.0871673  69.6146993  65.5484913  17.6461673
  70.5356993  66.4184913  18.1711673  70.2816993  65.6894913  18.0341673
  65.6046993  54.8334913  17.2571673  65.2826993  54.2574913  16.6871673
  65.2456993  55.5884913  17.0111673  65.5046993  54.8594913  17.1371673
  75.6456993  59.9914913  13.2991673  75.6136993  59.1294913  13.1641673
  74.9526993  60.2934913  12.8651673  75.5386993  59.9084913  13.2151673
  64.0396993  65.1894913  17.5051673  64.0806993  65.3154913  18.3681673
  64.6906993  64.6294913  17.3491673  64.1416993  65.1254913  17.6101673
  73.7506993  63.2514913  12.0961673  74.2776993  63.1684913  11.4051673
  73.3596993  62.4734913  12.1501673  73.7706993  63.1244913  12.0021673
  61.2186993  49.8394913  14.3271673  60.8756993  49.0724913  14.0931673
  60.5236993  50.3634913  14.3911673  61.0656993  49.8034913  14.3021673
  70.2646993  48.6954913  11.3041673  70.9346993  49.2394913  11.4311673
  69.7616993  49.1194913  10.7311673  70.2896993  48.8384913  11.2381673
  61.6326993  63.5724913  18.8651673  62.2276993  64.0034913  19.3371673
  61.2686993  64.1964913  18.3761673  61.6666993  63.7284913  18.8621673
  69.6236993  54.5034913   8.7971673  70.1746993  53.8964913   9.0971673
  69.1986993  54.7664913   9.5121673  69.6426993  54.4524913   8.9461673
  59.8716993  53.1534913   8.2831673  59.5036993  53.4554913   9.0141673
  60.4056993  52.5244913   8.5671673  59.8956993  53.1054913   8.4331673
  59.5596993  61.5614913  15.7941673  58.9856993  61.9774913  16.3031673
  60.2926993  62.0264913  15.8891673  59.5836993  61.6914913  15.8831673
  71.5936993  56.3344913   5.3591673  71.6616993  55.4844913   5.5401673
  70.7706993  56.4204913   5.0811673  71.4816993  56.2214913   5.3451673
  61.3456993  64.8284913   4.5691673  61.2006993  64.9844913   3.7231673
  62.2116993  64.9074913   4.6471673  61.4526993  64.8634913   4.4561673
  65.5126993  57.2254913   4.2971673  65.6126993  57.3644913   3.4421673
  66.3306993  57.1654913   4.5931673  65.6476993  57.2364913   4.2141673
  74.6726993  65.2894913   1.7771673  75.3096993  65.1554913   2.3581673
  74.3316993  64.4954913   1.6601673  74.7166993  65.1524913   1.8451673
  74.8676993  57.7074913  18.5101673  75.5016993  57.5374913  19.0841673
  75.2846993  58.1104913  17.8581673  75.0226993  57.7424913  18.4991673
  70.7476993  61.5544913   4.0991673  70.4966993  61.4264913   4.9251673
  70.4306993  60.8594913   3.6781673  70.6636993  61.4334913   4.1591673
  75.4926993  52.2714913  19.2481673  75.2966993  52.9154913  19.8031673
  74.7706993  51.7814913  19.2401673  75.3576993  52.2944913  19.3291673
  75.3916993  53.2124913  12.2191673  74.5586993  53.4624913  12.1471673
  75.3356993  52.3724913  12.4481673  75.2606993  53.1254913  12.2421673
  64.6516993  50.2004913  17.4131673  64.8856993  49.6244913  16.8001673
  63.8096993  50.0194913  17.5541673  64.5616993  50.0884913  17.3431673
  72.2786993  57.8184913  19.8651673  73.1496993  57.7824913  19.8291673
  72.0596993  58.2384913  19.1331673  72.3756993  57.8744913  19.7521673
  62.0326993  63.6434913  11.0461673  61.9536993  62.8334913  10.7301673
  61.5886993  64.1304913  10.4741673  61.9556993  63.5954913  10.9151673
  67.6336993  59.7624913   3.5291673  68.3506993  59.4154913   3.1731673
  67.5996993  60.5624913   3.1811673  67.7346993  59.8294913   3.4251673
  59.6046993  65.8874913  14.6271673  60.0976993  65.8314913  15.3451673
  59.7926993  65.1544913  14.1921673  59.7056993  65.7704913  14.6691673
  69.0426993  29.9253833  63.7928903  68.7976993  30.4133833  63.1128903
  69.9056993  29.8523833  63.6928903  69.1336993  29.9863833  63.6778903
  68.8516993  36.8413833  68.4638903  68.3276993  37.4373833  68.8268903
  69.2486993  36.4733833  69.1478903  68.8326993  36.8753833  68.6188903
  58.7206993  40.9813833  63.9198903  58.2796993  41.0993833  64.6628903
  58.4376993  40.2063833  63.6348903  58.6136993  40.8843833  63.9878903
  74.9956993  44.2823833  61.4348903  75.6966993  43.7633833  61.4308903
  74.4086993  43.8373833  60.9658903  75.0126993  44.1393833  61.3648903
  58.4636993  34.7733833  60.4268903  57.6856993  34.9353833  60.0668903
  58.5026993  33.9023833  60.4488903  58.3546993  34.6683833  60.3768903
  61.6026993  40.0363833  59.0988903  61.2106993  39.6653833  58.4128903
  61.5226993  39.4383833  59.7278903  61.5326993  39.8933833  59.0898903
  71.5226993  37.9083833  65.1398903  71.6026993  37.9123833  64.2708903
  70.9386993  37.2763833  65.2888903  71.4476993  37.8153833  65.0338903
  61.2296993  41.6773833  62.9988903  61.8376993  41.5073833  63.6018903
  60.4786993  41.5373833  63.4198903  61.2086993  41.6313833  63.1498903
  65.5116993  31.0123833  62.9478903  65.4416993  31.6893833  62.4018903
  66.2526993  30.6243833  62.6988903  65.6106993  31.0553833  62.8298903
  60.1206993  44.7683833  59.0758903  60.5876993  44.8523833  58.3438903
  60.5756993  44.1903833  59.5448903  60.2566993  44.6953833  59.0368903
  58.6606993  43.7163833  70.1748903  58.7896993  43.4363833  70.9908903
  58.0506993  43.1753833  69.8658903  58.5896993  43.5953833  70.2498903
  65.2346993  41.2413833  75.2418903  64.9986993  41.2383833  76.0818903
  64.4866993  41.0933833  74.8178903  65.0886993  41.2183833  75.3028903
  60.1066993  38.2373833  64.3768903  59.6446993  37.8453833  63.7498903
  60.8066993  37.7243833  64.4688903  60.1416993  38.1043833  64.2978903
  64.6146993  33.8473833  69.7238903  65.2926993  33.8653833  69.1748903
  64.5696993  33.0113833  69.9688903  64.7076993  33.7263833  69.6788903
  65.2166993  44.4333833  72.5048903  65.3546993  45.1933833  72.0978903
  66.0076993  44.0683833  72.5318903  65.3536993  44.4923833  72.4488903
  62.1076993  36.3373833  64.3998903  62.9246993  36.1503833  64.6428903
  61.6306993  35.7233833  64.7958903  62.1576993  36.2193833  64.4948903
  66.3116993  42.3183833  67.0098903  66.6596993  41.5193833  67.0398903
  66.9766993  42.8223833  66.7548903  66.4616993  42.2743833  66.9768903
  66.3686993  41.7673833  63.2208903  66.6996993  41.1233833  63.7068903
  66.6086993  41.5563833  62.4098903  66.4526993  41.6413833  63.1728903
  68.3366993  35.8983833  74.5598903  67.4886993  35.7993833  74.3818903
  68.3656993  36.6433833  75.0138903  68.2156993  35.9943833  74.6008903
  62.7046993  31.4313833  63.6658903  62.4086993  31.9323833  63.0158903
  63.5716993  31.5093833  63.6088903  62.7886993  31.5173833  63.5618903
  72.8946993  28.8583833  73.6738903  72.7366993  29.6273833  73.2918903
  72.1226993  28.6383833  74.0178903  72.7566993  28.9393833  73.6688903
  65.6836993  30.5733833  65.8888903  65.7566993  31.4333833  66.0178903
  65.6456993  30.4983833  65.0208903  65.6886993  30.6893833  65.7798903
  70.3566993  33.4993833  58.1878903  69.9066993  34.1803833  58.4948903
  70.4706993  32.9953833  58.8908903  70.3076993  33.5253833  58.3368903
  58.5626993  35.9983833  67.3898903  58.3066993  36.8293833  67.3148903
  57.8986993  35.6153833  67.8068903  58.4266993  36.0643833  67.4408903
  58.4726993  45.7083833  65.2898903  57.8806993  46.2663833  64.9768903
  58.8986993  45.4393833  64.5778903  58.4486993  45.7503833  65.1388903
  64.3126993  43.5523833  62.7698903  63.7336993  43.2773833  63.3618903
  64.9366993  42.9433833  62.7948903  64.3196993  43.4223833  62.8608903
  70.4556993  45.8403833  60.2918903  71.1826993  46.3123833  60.3938903
  70.6846993  45.0463833  60.5718903  70.5976993  45.7933833  60.3488903
  68.6236993  46.2323833  62.2818903  68.8376993  46.7593833  62.9438903
  69.3906993  46.0583833  61.9028903  68.7686993  46.2843833  62.3238903
  61.5916993  30.8153833  67.8808903  61.0706993  30.1873833  67.5728903
  62.1826993  30.3783833  68.3518903  61.6026993  30.6573833  67.9048903
  60.0176993  44.3783833  63.2208903  60.6736993  43.8033833  63.2358903
  60.4066993  45.1273833  62.9998903  60.1726993  44.4033833  63.1908903
  75.7506993  33.4723833  64.4828903  75.4046993  34.1503833  64.9088903
  75.1146993  32.8743833  64.4988903  75.6056993  33.4843833  64.5478903
  71.0626993  46.2423833  70.5868903  71.8066993  46.6983833  70.5768903
  70.9416993  46.0283833  69.7498903  71.1546993  46.2783833  70.4618903
  60.6306993  32.5453833  76.1628903  59.8526993  32.1553833  76.0908903
  61.1216993  32.1333833  75.5718903  60.5876993  32.4263833  76.0648903
  60.8356993  42.8653833  66.7208903  61.2586993  42.5093833  66.0468903
  61.1596993  42.4433833  67.4128903  60.9456993  42.7503833  66.7238903
  64.0666993  45.7173833  66.0168903  64.9106993  45.8213833  65.8218903
  63.7696993  46.5353833  66.0848903  64.1476993  45.8533833  65.9978903
  67.2796993  30.1883833  75.3308903  67.4576993  29.3793833  75.0558903
  67.1366993  30.6293833  74.5918903  67.2846993  30.1343833  75.1808903
  67.8736993  35.1143833  64.1038903  68.1606993  34.8823833  63.3138903
  68.6056993  35.1933833  64.5728903  68.0236993  35.0913833  64.0568903
  68.5956993  35.4533833  59.2248903  68.8766993  36.2413833  59.4738903
  67.8196993  35.6183833  58.8618903  68.5226993  35.5943833  59.2078903
  72.6366993  47.4273833  60.6918903  73.3016993  47.2793833  60.1468903
  72.9966993  47.3443833  61.4818903  72.7886993  47.3933833  60.7278903
  63.0646993  46.9363833  71.7568903  63.3566993  46.8693833  72.5768903
  62.4386993  46.3313833  71.7118903  63.0156993  46.8373833  71.8718903
  57.9786993  33.0933833  73.7488903  57.9746993  33.6803833  74.3948903
  58.5726993  33.4053833  73.1918903  58.0656993  33.2263833  73.7618903
  70.3166993  43.4273833  74.2908903  70.2826993  43.8093833  75.0748903
  71.1706993  43.3853833  74.1198903  70.4376993  43.4773833  74.3818903
  67.4546993  43.6243833  59.0408903  67.2736993  44.1693833  59.6978903
  68.2206993  43.9143833  58.7398903  67.5406993  43.7483833  59.0938903
  70.9616993  31.5203833  60.0948903  71.5016993  30.8383833  60.1708903
  71.0236993  31.9183833  60.8688903  71.0506993  31.4783833  60.2208903
  58.9156993  32.6883833  62.6638903  58.8016993  31.8243833  62.6948903
  58.4406993  32.9823833  63.3338903  58.8286993  32.6043833  62.7668903
  61.0576993  45.0983833  70.8788903  60.3596993  44.5903833  71.0048903
  61.3176993  44.8933833  70.0708903  60.9926993  44.9933833  70.7778903
  68.2196993  33.8963833  61.4088903  67.7116993  33.2343833  61.1548903
  68.2716993  34.4003833  60.6988903  68.1526993  33.8733833  61.2668903
  68.7686993  46.5913833  71.7888903  69.5366993  46.5113833  71.3828903
  68.1856993  46.4703833  71.1508903  68.7956993  46.5613833  71.6348903
  68.2196993  30.8373833  61.2998903  67.7646993  30.4353833  60.6738903
  68.9926993  30.9923833  60.9248903  68.2666993  30.8013833  61.1518903
  75.0456993  47.1943833  64.6898903  74.5906993  47.9113833  64.8908903
  74.4316993  46.6233833  64.4478903  74.8876993  47.2163833  64.6838903
  66.8176993  33.2043833  65.8218903  66.8916993  33.7723833  65.1638903
  66.9386993  33.6963833  66.5318903  66.8456993  33.3613833  65.8298903
  72.0426993  43.0393833  64.2338903  72.7436993  42.5573833  64.4228903
  71.3826993  42.4703833  64.2788903  72.0486993  42.8843833  64.2678903
  62.4186993  43.9493833  73.4458903  63.2596993  44.0123833  73.2238903
  62.3816993  44.3463833  74.2218903  62.5376993  44.0173833  73.5278903
  61.4256993  29.0273833  64.1698903  61.9616993  29.7153833  64.1598903
  61.4286993  28.7533833  63.3418903  61.5046993  29.0883833  64.0458903
  64.3816993  39.4603833  68.1948903  64.5536993  39.2503833  69.0238903
  63.7266993  38.9263833  67.9788903  64.3106993  39.3503833  68.2858903
  70.6096993  33.3743833  71.7098903  70.5146993  33.6933833  72.5158903
  70.0166993  32.7353833  71.6718903  70.5076993  33.3263833  71.8238903
  65.1316993  39.3983833  70.7848903  65.1846993  40.2453833  70.9868903
  64.8466993  39.0283833  71.5218903  65.0976993  39.4683833  70.9228903
  71.3086993  40.0933833  69.9148903  70.7946993  39.6813833  70.4858903
  71.1826993  40.9373833  70.0958903  71.2146993  40.1573833  70.0258903
  71.8656993  29.3183833  64.5458903  71.9146993  29.0003833  65.3568903
  72.1886993  28.6743833  64.0528903  71.9206993  29.1763833  64.5928903
  74.3296993  33.5543833  72.8538903  75.1016993  33.3293833  73.1908903
  73.8546993  33.7713833  73.5538903  74.3736993  33.5533833  73.0068903
  61.8736993  32.8373833  65.8238903  62.1456993  32.4073833  65.1158903
  61.6976993  32.2013833  66.3948903  61.8876993  32.6803833  65.8038903
  74.5616993  40.5323833  60.0418903  74.6806993  40.2453833  60.8568903
  75.3686993  40.5533833  59.7118903  74.6976993  40.4933833  60.1138903
  61.6976993  40.2643833  65.3728903  62.5486993  40.1843833  65.1998903
  61.3406993  39.5823833  64.9608903  61.7706993  40.1513833  65.2858903
  60.4646993  46.9893833  66.6098903  59.7916993  46.4913833  66.3648903
  60.8676993  47.1743833  65.8588903  60.4246993  46.9433833  66.4628903
  60.0146993  33.9393833  68.9058903  60.8576993  34.1593833  68.8628903
  59.6256993  34.5123833  68.3748903  60.0816993  34.0563833  68.8208903
  72.4566993  37.0693833  59.6268903  72.2366993  37.8003833  59.2048903
  72.0086993  37.1203833  60.3738903  72.3576993  37.1843833  59.6748903
  64.0656993  40.2713833  63.6078903  64.7786993  40.7663833  63.6978903
  64.2876993  39.7043833  62.9818903  64.2036993  40.2603833  63.5288903
  58.2216993  41.9143833  66.9278903  57.5546993  42.4023833  67.2038903
  58.9016993  42.4593833  66.9568903  58.2236993  42.0663833  66.9728903
  58.2876993  38.5983833  62.0308903  58.1026993  37.7593833  62.1828903
  58.9466993  38.5623833  61.4608903  58.3576993  38.4693833  61.9688903
  74.6456993  31.4883833  61.3588903  75.3916993  31.0813833  61.5578903
  74.9086993  32.2033833  60.9338903  74.7946993  31.5343833  61.3258903
  68.5886993  43.9743833  65.9348903  68.0656993  44.6083833  65.6418903
  68.8986993  43.6103833  65.2058903  68.5566993  44.0143833  65.7838903
  58.4596993  42.7623833  61.6058903  59.0116993  43.3313833  61.9698903
  58.2276993  42.2473833  62.2708903  58.5066993  42.7703833  61.7578903
  62.6636993  41.7623833  68.6948903  63.1306993  42.0513833  69.3728903
  63.2356993  41.2843833  68.2408903  62.8176993  41.7343833  68.7278903
  71.0996993  33.7763833  66.4318903  71.4436993  33.9283833  67.2188903
  70.6466993  33.0383833  66.5448903  71.0836993  33.6893833  66.5648903
  58.2896993  41.2113833  59.2338903  59.0456993  40.7793833  59.2918903
  58.3046993  41.7433833  59.9248903  58.4036993  41.2263833  59.3448903
  59.2296993  39.4323833  67.2388903  59.6606993  39.3033833  66.4918903
  59.0246993  40.2803833  67.2128903  59.2626993  39.5383833  67.1248903
  65.5756993  32.9963833  60.8888903  65.5736993  32.8793833  60.0238903
  65.3946993  33.8443833  60.9808903  65.5486993  33.1043833  60.7748903
  74.6296993  45.4233833  72.3858903  73.9586993  45.9373833  72.6038903
  74.6926993  45.5233833  71.5218903  74.5396993  45.5143833  72.2908903
  63.3136993  42.9483833  65.5208903  63.4396993  43.7913833  65.7078903
  63.9816993  42.5493833  65.9168903  63.4316993  43.0143833  65.6068903
  61.4436993  36.4313833  75.3828903  60.9076993  35.9253833  75.8508903
  61.4636993  36.0413833  74.6028903  61.3666993  36.2983833  75.3368903
  61.9286993  35.8283833  60.5228903  61.8006993  35.3803833  61.2608903
  61.3466993  35.4863833  59.9708903  61.8236993  35.7113833  60.5508903
  62.0956993  37.6583833  67.1218903  61.3146993  37.5993833  66.7388903
  62.1676993  36.9063833  67.5588903  61.9906993  37.5393833  67.1298903
  62.5256993  37.3953833  70.5898903  62.5506993  36.7203833  70.0388903
  61.8796993  37.8913833  70.2778903  62.4346993  37.3683833  70.4628903
  72.4206993  35.1083833  68.9858903  71.7586993  35.4363833  69.4488903
  72.6076993  35.7423833  68.4168903  72.3506993  35.2503833  68.9698903
  66.6256993  46.1723833  69.9818903  66.3486993  45.5313833  69.4588903
  66.4176993  46.8983833  69.5438903  66.5546993  46.1853833  69.8398903
  69.0656993  31.0143833  72.4148903  69.2146993  30.1893833  72.1718903
  69.4446993  31.0693833  73.1988903  69.1436993  30.9003833  72.4948903
  70.6136993  33.0773833  62.4968903  71.1036993  33.7943833  62.4198903
  69.8236993  33.3383833  62.2338903  70.5696993  33.2213833  62.4468903
  60.3246993  38.7503833  76.1488903  60.2876993  39.2513833  75.4348903
  60.6556993  37.9983833  75.8538903  60.3676993  38.7123833  75.9998903
  71.9276993  40.9553833  74.4068903  72.4116993  41.6733833  74.5048903
  72.3216993  40.5283833  73.7558903  72.0576993  40.9983833  74.3248903
  66.2236993  43.8003833  75.5838903  66.5776993  43.6223833  76.3608903
  65.7876993  43.0713833  75.3848903  66.2116993  43.6663833  75.6698903
  67.1956993  34.5473833  68.2218903  67.6756993  35.2463833  68.4298903
  67.5686993  33.9003833  68.6728903  67.3216993  34.5553833  68.3188903
  69.3846993  37.7163833  60.4958903  69.3766993  38.4383833  60.0058903
  68.7456993  37.8513833  61.0728903  69.2896993  37.8433833  60.5088903
  74.3566993  41.5863833  64.4768903  74.7126993  41.2363833  65.1918903
  74.3486993  40.9253833  63.9068903  74.4086993  41.4363833  64.4978903
  70.4016993  44.6523833  68.3208903  69.7986993  44.3563833  67.7638903
  70.9466993  45.1043833  67.8118903  70.3926993  44.6753833  68.1628903
  70.4146993  41.5033833  67.7208903  69.6176993  41.7273833  67.9948903
  70.6726993  40.9093833  68.3058903  70.3346993  41.4483833  67.8478903
  64.3066993  46.3153833  62.1688903  64.1596993  45.5393833  62.5398903
  64.9956993  46.1683833  61.6538903  64.3866993  46.1783833  62.1478903
  63.9776993  30.0583833  60.1568903  64.0746993  29.9513833  61.0178903
  63.2696993  30.5643833  60.0918903  63.8876993  30.1173833  60.2748903
  66.5986993  45.8313833  60.5708903  67.2206993  45.9943833  61.1608903
  66.6346993  46.5223833  60.0388903  66.6956993  45.9573833  60.5798903
  73.6746993  39.5013833  72.5668903  73.7296993  39.6263833  71.7048903
  74.4276993  39.8213833  72.8688903  73.7936993  39.5663833  72.4838903
  74.7066993  29.7993833  75.5538903  74.0696993  29.3993833  75.1118903
  74.7326993  29.3683833  76.3118903  74.6166993  29.6773833  75.5998903
  61.0996993  38.3653833  61.3998903  61.4236993  37.5863833  61.1778903
  61.7456993  38.7333833  61.8548903  61.2426993  38.3043833  61.4338903
  69.4056993  39.3073833  72.1668903  69.2506993  39.9173833  72.7708903
  69.9396993  38.7493833  72.5728903  69.4616993  39.3153833  72.3158903
  58.0966993  30.0263833  62.3678903  58.2256993  29.3183833  61.8758903
  57.7296993  29.7083833  63.0928903  58.0616993  29.8743833  62.4028903
  67.7896993  37.7073833  62.8248903  67.8486993  38.3573833  63.4038903
  67.6006993  37.0113833  63.3158903  67.7706993  37.7003833  62.9828903
  73.0156993  42.0363833  68.6938903  72.5366993  42.3343833  68.0278903
  72.6596993  41.2603833  68.8718903  72.8926993  41.9653833  68.6218903
  62.2856993  32.2243833  59.3368903  61.7746993  32.2773833  58.6308903
  63.0696993  32.4643833  59.0408903  62.3256993  32.2673833  59.1888903
  67.0126993  39.7543833  67.2558903  66.1656993  39.5603833  67.3368903
  67.3366993  39.5893833  68.0488903  66.9346993  39.7013833  67.3848903
  63.7646993  46.4843833  58.1418903  64.2036993  45.7873833  58.4298903
  63.9716993  47.1083833  58.7148903  63.8606993  46.4733833  58.2688903
  60.8606993  39.4473833  69.5718903  61.5826993  39.9353833  69.5348903
  60.5906993  39.4173833  68.7428903  60.9276993  39.5153833  69.4438903
  64.0906993  34.6183833  66.3068903  64.9366993  34.4283833  66.4048903
  63.7206993  33.8413833  66.1688903  64.1606993  34.4753833  66.3008903
  58.9116993  35.9563833  62.9618903  59.4006993  35.6643833  63.6228903
  59.0406993  35.3633833  62.3348903  59.0026993  35.8253833  62.9668903
  73.9466993  38.9783833  69.8128903  73.9396993  38.2023833  70.2108903
  73.1056993  39.2123833  69.8058903  73.8216993  38.8983833  69.8708903
  63.4366993  37.3903833  58.4478903  62.8266993  36.9853833  58.9218903
  63.0506993  37.5083833  57.6748903  63.2896993  37.3473833  58.4038903
  60.2556993  40.4993833  73.8498903  59.8346993  39.9813833  73.2888903
  59.9036993  41.2853833  73.7068903  60.1416993  40.5393833  73.7458903
  64.8916993  35.8513833  61.1578903  65.1636993  36.6773833  61.2248903
  64.0286993  35.9263833  61.0618903  64.8046993  35.9843833  61.1528903
  72.8646993  32.9733833  75.7898903  72.3396993  33.4323833  76.3138903
  72.5036993  32.1783833  75.7838903  72.7336993  32.9233833  75.8658903
  58.3716993  31.8213833  67.6938903  58.4156993  32.1653833  66.8928903
  59.1266993  32.0583833  68.0608903  58.4896993  31.9073833  67.6298903
  71.3566993  36.5423833  75.8658903  71.4296993  36.6463833  76.7288903
  70.7226993  37.1003833  75.6448903  71.2736993  36.6403833  75.9608903
  73.6246993  36.8613833  74.2308903  73.9436993  37.6473833  74.4338903
  73.2546993  36.5913833  74.9738903  73.6176993  36.9373833  74.3708903
  72.9386993  43.2853833  59.7608903  73.2726993  42.4793833  59.7958903
  72.1836993  43.2133833  60.1908903  72.8766993  43.1553833  59.8298903
  73.4206993  35.1193833  65.4198903  72.6756993  34.7963833  65.7378903
  73.4226993  35.9453833  65.6998903  73.3106993  35.1933833  65.5078903
  70.3126993  41.1603833  59.1638903  70.9966993  40.6463833  58.9948903
  69.8956993  41.2063833  58.3988903  70.3516993  41.0913833  59.0258903
  64.9946993  42.3103833  70.4678903  64.6966993  42.9023833  71.0348903
  65.0496993  42.7523833  69.7188903  64.9586993  42.4633833  70.4408903
  62.9736993  41.2603833  73.8658903  62.1676993  40.9703833  74.0328903
  62.8846993  42.1283833  73.8718903  62.8416993  41.3453833  73.8908903
  72.3326993  31.4493833  72.8808903  73.0766993  31.9013833  72.8178903
  71.7666993  31.9193833  72.4118903  72.3596993  31.5863833  72.8028903
  67.5106993  38.7333833  69.9588903  67.9866993  39.1073833  70.5868903
  66.6876993  38.8673833  70.2178903  67.4596993  38.8083833  70.0898903
  64.2206993  34.3363833  72.6998903  64.3816993  33.5923833  73.1268903
  64.1756993  34.0873833  71.8648903  64.2376993  34.1893833  72.6398903
  66.7746993  46.1263833  65.1868903  67.3206993  46.8053833  65.2408903
  66.4246993  46.2083833  64.3918903  66.8036993  46.2393833  65.0768903
  73.6176993  29.4293833  70.5508903  73.3376993  30.2543833  70.5068903
  74.3336993  29.4823833  71.0468903  73.6826993  29.5593833  70.6178903
  65.9726993  30.1443833  72.5798903  66.6776993  30.4643833  72.1778903
  66.2136993  29.3373833  72.8068903  66.1116993  30.0723833  72.5538903
  64.9576993  44.3543833  68.5758903  64.3336993  44.9363833  68.3938903
  65.2056993  44.0683833  67.7898903  64.9016993  44.3983833  68.4328903
  69.2666993  40.9883833  75.5648903  70.0236993  41.2743833  75.2388903
  68.7196993  41.0403833  74.8868903  69.2976993  41.0383833  75.4158903
  73.1756993  43.5383833  74.0688903  73.5216993  43.8083833  74.8228903
  73.4696993  44.1203833  73.4888903  73.2706993  43.6643833  74.0948903
  75.0386993  35.6843833  59.4078903  75.4166993  36.3613833  59.0078903
  74.1966993  35.9083833  59.4388903  74.9696993  35.8173833  59.3528903
  66.5516993  39.1303833  58.4908903  65.7466993  38.9533833  58.2058903
  66.5186993  39.9813833  58.6828903  66.4276993  39.2293833  58.4778903
  62.4816993  35.1973833  68.6408903  62.9216993  35.0943833  67.8948903
  63.0266993  34.8843833  69.2458903  62.6266993  35.1363833  68.6198903
  70.4976993  34.2993833  74.2328903  69.8496993  34.7693833  74.5808903
  71.0626993  34.2103833  74.8918903  70.4856993  34.3553833  74.3818903
  70.1856993  35.8363833  70.5308903  70.4876993  36.2563833  71.2338903
  70.2216993  34.9963833  70.7628903  70.2356993  35.7743833  70.6688903
  67.6106993  46.0033833  74.4558903  68.0886993  45.4033833  74.0398903
  67.2596993  45.5603833  75.1208903  67.6296993  45.8493833  74.4928903
  72.7336993  35.2833833  62.7828903  72.9406993  35.0823833  63.6068903
  73.4896993  35.5513833  62.4408903  72.8756993  35.2933833  62.8538903
  66.0286993  30.1823833  68.6878903  65.2026993  30.0333833  68.9248903
  65.9886993  30.2173833  67.8168903  65.9006993  30.1653833  68.5938903
  73.7556993  31.3663833  64.2568903  73.0416993  30.8953833  64.4278903
  73.5936993  31.7073833  63.4708903  73.6266993  31.3473833  64.1658903
  74.1986993  39.3103833  62.6368903  74.6746993  38.5813833  62.5888903
  73.3776993  39.0243833  62.5608903  74.1476993  39.1603833  62.6178903
  67.6696993  41.2223833  73.4758903  66.8746993  41.1583833  73.8268903
  67.7406993  42.0693833  73.2808903  67.5626993  41.3373833  73.4988903
  58.5936993  30.5803833  74.7228903  58.4536993  31.3753833  74.3918903
  57.8076993  30.3373833  75.0118903  58.4566993  30.6623833  74.7168903
  63.4996993  47.4293833  68.7928903  63.5106993  47.4883833  69.6628903
  63.0746993  46.6823833  68.6428903  63.4386993  47.3273833  68.8988903
  61.6576993  33.3243833  61.9478903  61.7836993  32.9953833  61.1498903
  60.8456993  33.0753833  62.1468903  61.5566993  33.2393833  61.8598903
  70.4146993  40.4773833  64.9918903  70.4906993  40.8183833  65.7908903
  70.5836993  39.6303833  65.1128903  70.4506993  40.4023833  65.1278903
  67.9366993  39.7513833  64.5568903  67.6386993  39.4363833  65.3138903
  68.6316993  40.2243833  64.7918903  67.9956993  39.7743833  64.7038903
  68.1586993  43.8693833  72.5838903  68.8456993  43.7553833  73.1088903
  68.2926993  44.6603833  72.2398903  68.2796993  43.9693833  72.6108903
  70.8476993  37.1433833  72.9708903  70.5926993  36.4243833  73.3928903
  71.6686993  37.2593833  73.2408903  70.9316993  37.0543833  73.0728903
  60.2636993  46.9273833  74.2348903  59.6096993  46.3583833  74.3328903
  59.8886993  47.7003833  74.3858903  60.1116993  46.9573833  74.2718903
  68.7816993  38.3333833  76.1578903  69.1046993  39.0193833  75.7258903
  68.0776993  38.6563833  76.5598903  68.7246993  38.4823833  76.1528903
  71.8656993  46.7073833  67.0868903  71.4146993  47.3503833  67.4658903
  72.5736993  46.6283833  67.5918903  71.9036993  46.7903833  67.2178903
  68.5666993  41.7973833  70.0168903  67.8726993  42.1993833  70.3598903
  69.2436993  42.2303833  70.3558903  68.5636993  41.9203833  70.1178903
  61.6346993  35.3353833  72.3638903  62.0096993  35.9543833  71.8768903
  62.3086993  34.8613833  72.6488903  61.7896993  35.3573833  72.3338903
  59.4096993  33.7833833  71.6388903  59.4866993  33.6143833  70.7858903
  60.1556993  34.1893833  71.8358903  59.5306993  33.8183833  71.5418903
  74.9686993  36.4233833  62.0788903  75.0716993  36.3653833  61.2148903
  75.7096993  36.0913833  62.3968903  75.0936993  36.3663833  61.9978903
  61.9636993  31.1933833  74.0498903  61.8826993  30.3493833  74.2558903
  61.6496993  31.2373833  73.2368903  61.9056993  31.0753833  73.9598903
  68.8886993  43.3883833  63.1858903  68.6836993  44.2213833  63.0268903
  68.1136993  43.0063833  63.3078903  68.7436993  43.4553833  63.1808903
  74.0706993  36.5693833  71.4348903  74.0686993  35.7063833  71.5588903
  74.1376993  36.8933833  72.2418903  74.0806993  36.4893833  71.5718903
  58.8066993  39.0093833  71.8628903  59.1266993  39.2283833  71.0818903
  58.7066993  38.1443833  71.8078903  58.8386993  38.9143833  71.7398903
  60.2626993  34.9453833  58.4808903  59.5906993  34.9593833  59.0368903
  60.3576993  34.0973833  58.2968903  60.1776993  34.8223833  58.5358903
  69.9496993  31.3693833  75.2168903  70.0416993  32.0813833  75.7108903
  69.3126993  30.9243833  75.6138903  69.8686993  31.4083833  75.3488903
  68.9436993  31.5593833  66.0708903  68.2436993  32.0773833  66.0148903
  68.9816993  31.1793833  65.2868903  68.8456993  31.5803833  65.9468903
  64.2506993  43.6503833  59.5948903  64.6916993  43.7303833  60.3428903
  63.4456993  43.4343833  59.8528903  64.1966993  43.6303833  59.7438903
  72.5416993  32.0753833  68.8708903  73.3966993  32.1743833  69.0158903
  72.1726993  32.6283833  69.4358903  72.6136993  32.1723833  68.9758903
  63.5696993  38.3013833  73.2478903  63.1736993  39.0753833  73.3228903
  63.1636993  37.9283833  72.5718903  63.4516993  38.3603833  73.1588903
  72.8456993  37.3553833  67.3618903  73.5116993  37.8963833  67.5218903
  72.5006993  37.6663833  66.6228903  72.8926993  37.4813833  67.2768903
  73.1586993  45.4213833  63.1688903  72.9846993  44.7673833  63.7188903
  73.8716993  45.1503833  62.7458903  73.2386993  45.2843833  63.1878903
  61.5796993  42.7203833  60.1958903  61.3356993  42.4133833  60.9758903
  61.5466993  42.0173833  59.6798903  61.5386993  42.5713833  60.2348903
  64.3986993  40.9653833  58.9388903  63.5806993  40.6973833  59.0788903
  64.3706993  41.8173833  59.1238903  64.2736993  41.0523833  58.9868903
  63.9986993  31.2783833  70.6978903  63.1346993  31.3623833  70.7778903
  64.2186993  30.7643833  71.3668903  63.9036993  31.2153833  70.8088903
  68.1016993  32.0263833  69.0718903  67.3646993  31.5723833  69.1848903
  68.6726993  31.6243833  69.5948903  68.0766993  31.8993833  69.1658903
  70.8336993  42.8743833  70.8598903  71.0396993  43.1753833  71.6518903
  70.7726993  43.5963833  70.3748903  70.8546993  43.0253833  70.9048903
  70.3676993  47.0883833  75.1058903  69.6146993  47.0703833  74.6648903
  70.5356993  47.9403833  75.1898903  70.2816993  47.2113833  75.0528903
  65.6046993  36.3553833  74.2758903  65.2826993  35.7793833  73.7058903
  65.2456993  37.1103833  74.0298903  65.5046993  36.3813833  74.1558903
  66.4006993  29.6073833  58.9028903  66.4786993  29.8543833  58.0698903
  65.6576993  29.9843833  59.1608903  66.3026993  29.6993833  58.8178903
  75.6456993  41.5133833  70.3178903  75.6136993  40.6513833  70.1828903
  74.9526993  41.8153833  69.8838903  75.5386993  41.4303833  70.2338903
  64.0396993  46.7113833  74.5238903  64.0806993  46.8373833  75.3868903
  64.6906993  46.1513833  74.3678903  64.1416993  46.6473833  74.6288903
  73.7506993  44.7733833  69.1148903  74.2776993  44.6903833  68.4238903
  73.3596993  43.9953833  69.1688903  73.7706993  44.6463833  69.0208903
  61.2186993  31.3613833  71.3458903  60.8756993  30.5943833  71.1118903
  60.5236993  31.8853833  71.4098903  61.0656993  31.3253833  71.3208903
  70.2646993  30.2173833  68.3228903  70.9346993  30.7613833  68.4498903
  69.7616993  30.6413833  67.7498903  70.2896993  30.3603833  68.2568903
  61.6326993  45.0943833  75.8838903  62.2276993  45.5253833  76.3558903
  61.2686993  45.7183833  75.3948903  61.6666993  45.2503833  75.8808903
  69.6236993  36.0253833  65.8158903  70.1746993  35.4183833  66.1158903
  69.1986993  36.2883833  66.5308903  69.6426993  35.9743833  65.9648903
  59.8716993  34.6753833  65.3018903  59.5036993  34.9773833  66.0328903
  60.4056993  34.0463833  65.5858903  59.8956993  34.6273833  65.4518903
  59.5596993  43.0833833  72.8128903  58.9856993  43.4993833  73.3218903
  60.2926993  43.5483833  72.9078903  59.5836993  43.2133833  72.9018903
  71.5936993  37.8563833  62.3778903  71.6616993  37.0063833  62.5588903
  70.7706993  37.9423833  62.0998903  71.4816993  37.7433833  62.3638903
  61.3456993  46.3503833  61.5878903  61.2006993  46.5063833  60.7418903
  62.2116993  46.4293833  61.6658903  61.4526993  46.3853833  61.4748903
  65.5126993  38.7473833  61.3158903  65.6126993  38.8863833  60.4608903
  66.3306993  38.6873833  61.6118903  65.6476993  38.7583833  61.2328903
  74.6726993  46.8113833  58.7958903  75.3096993  46.6773833  59.3768903
  74.3316993  46.0173833  58.6788903  74.7166993  46.6743833  58.8638903
  74.8676993  39.2293833  75.5288903  75.5016993  39.0593833  76.1028903
  75.2846993  39.6323833  74.8768903  75.0226993  39.2643833  75.5178903
  70.7476993  43.0763833  61.1178903  70.4966993  42.9483833  61.9438903
  70.4306993  42.3813833  60.6968903  70.6636993  42.9553833  61.1778903
  75.4926993  33.7933833  76.2668903  75.2966993  34.4373833  76.8218903
  74.7706993  33.3033833  76.2588903  75.3576993  33.8163833  76.3478903
  75.3916993  34.7343833  69.2378903  74.5586993  34.9843833  69.1658903
  75.3356993  33.8943833  69.4668903  75.2606993  34.6473833  69.2608903
  64.6516993  31.7223833  74.4318903  64.8856993  31.1463833  73.8188903
  63.8096993  31.5413833  74.5728903  64.5616993  31.6103833  74.3618903
  72.2786993  39.3403833  76.8838903  73.1496993  39.3043833  76.8478903
  72.0596993  39.7603833  76.1518903  72.3756993  39.3963833  76.7708903
  62.0326993  45.1653833  68.0648903  61.9536993  44.3553833  67.7488903
  61.5886993  45.6523833  67.4928903  61.9556993  45.1173833  67.9338903
  67.6336993  41.2843833  60.5478903  68.3506993  40.9373833  60.1918903
  67.5996993  42.0843833  60.1998903  67.7346993  41.3513833  60.4438903
  59.6046993  47.4093833  71.6458903  60.0976993  47.3533833  72.3638903
  59.7926993  46.6763833  71.2108903  59.7056993  47.2923833  71.6878903
  69.0426993  29.9253833  44.7866493  68.7976993  30.4133833  44.1066493
  69.9056993  29.8523833  44.6866493  69.1336993  29.9863833  44.6716493
  68.8516993  36.8413833  49.4576493  68.3276993  37.4373833  49.8206493
  69.2486993  36.4733833  50.1416493  68.8326993  36.8753833  49.6126493
  58.7206993  40.9813833  44.9136493  58.2796993  41.0993833  45.6566493
  58.4376993  40.2063833  44.6286493  58.6136993  40.8843833  44.9816493
  74.9956993  44.2823833  42.4286493  75.6966993  43.7633833  42.4246493
  74.4086993  43.8373833  41.9596493  75.0126993  44.1393833  42.3586493
  58.4636993  34.7733833  41.4206493  57.6856993  34.9353833  41.0606493
  58.5026993  33.9023833  41.4426493  58.3546993  34.6683833  41.3706493
  61.6026993  40.0363833  40.0926493  61.2106993  39.6653833  39.4066493
  61.5226993  39.4383833  40.7216493  61.5326993  39.8933833  40.0836493
  71.5226993  37.9083833  46.1336493  71.6026993  37.9123833  45.2646493
  70.9386993  37.2763833  46.2826493  71.4476993  37.8153833  46.0276493
  61.2296993  41.6773833  43.9926493  61.8376993  41.5073833  44.5956493
  60.4786993  41.5373833  44.4136493  61.2086993  41.6313833  44.1436493
  65.5116993  31.0123833  43.9416493  65.4416993  31.6893833  43.3956493
  66.2526993  30.6243833  43.6926493  65.6106993  31.0553833  43.8236493
  60.1206993  44.7683833  40.0696493  60.5876993  44.8523833  39.3376493
  60.5756993  44.1903833  40.5386493  60.2566993  44.6953833  40.0306493
  58.6606993  43.7163833  51.1686493  58.7896993  43.4363833  51.9846493
  58.0506993  43.1753833  50.8596493  58.5896993  43.5953833  51.2436493
  65.2346993  41.2413833  56.2356493  64.9986993  41.2383833  57.0756493
  64.4866993  41.0933833  55.8116493  65.0886993  41.2183833  56.2966493
  60.1066993  38.2373833  45.3706493  59.6446993  37.8453833  44.7436493
  60.8066993  37.7243833  45.4626493  60.1416993  38.1043833  45.2916493
  64.6146993  33.8473833  50.7176493  65.2926993  33.8653833  50.1686493
  64.5696993  33.0113833  50.9626493  64.7076993  33.7263833  50.6726493
  65.2166993  44.4333833  53.4986493  65.3546993  45.1933833  53.0916493
  66.0076993  44.0683833  53.5256493  65.3536993  44.4923833  53.4426493
  62.1076993  36.3373833  45.3936493  62.9246993  36.1503833  45.6366493
  61.6306993  35.7233833  45.7896493  62.1576993  36.2193833  45.4886493
  66.3116993  42.3183833  48.0036493  66.6596993  41.5193833  48.0336493
  66.9766993  42.8223833  47.7486493  66.4616993  42.2743833  47.9706493
  66.3686993  41.7673833  44.2146493  66.6996993  41.1233833  44.7006493
  66.6086993  41.5563833  43.4036493  66.4526993  41.6413833  44.1666493
  68.3366993  35.8983833  55.5536493  67.4886993  35.7993833  55.3756493
  68.3656993  36.6433833  56.0076493  68.2156993  35.9943833  55.5946493
  62.7046993  31.4313833  44.6596493  62.4086993  31.9323833  44.0096493
  63.5716993  31.5093833  44.6026493  62.7886993  31.5173833  44.5556493
  72.8946993  28.8583833  54.6676493  72.7366993  29.6273833  54.2856493
  72.1226993  28.6383833  55.0116493  72.7566993  28.9393833  54.6626493
  65.6836993  30.5733833  46.8826493  65.7566993  31.4333833  47.0116493
  65.6456993  30.4983833  46.0146493  65.6886993  30.6893833  46.7736493
  70.3566993  33.4993833  39.1816493  69.9066993  34.1803833  39.4886493
  70.4706993  32.9953833  39.8846493  70.3076993  33.5253833  39.3306493
  58.5626993  35.9983833  48.3836493  58.3066993  36.8293833  48.3086493
  57.8986993  35.6153833  48.8006493  58.4266993  36.0643833  48.4346493
  58.4726993  45.7083833  46.2836493  57.8806993  46.2663833  45.9706493
  58.8986993  45.4393833  45.5716493  58.4486993  45.7503833  46.1326493
  64.3126993  43.5523833  43.7636493  63.7336993  43.2773833  44.3556493
  64.9366993  42.9433833  43.7886493  64.3196993  43.4223833  43.8546493
  70.4556993  45.8403833  41.2856493  71.1826993  46.3123833  41.3876493
  70.6846993  45.0463833  41.5656493  70.5976993  45.7933833  41.3426493
  68.6236993  46.2323833  43.2756493  68.8376993  46.7593833  43.9376493
  69.3906993  46.0583833  42.8966493  68.7686993  46.2843833  43.3176493
  61.5916993  30.8153833  48.8746493  61.0706993  30.1873833  48.5666493
  62.1826993  30.3783833  49.3456493  61.6026993  30.6573833  48.8986493
  64.8976993  32.9483833  58.1726493  65.0146993  32.4943833  57.4366493
  65.1856993  33.7463833  57.9696493  64.9576993  32.9993833  58.0336493
  60.0176993  44.3783833  44.2146493  60.6736993  43.8033833  44.2296493
  60.4066993  45.1273833  43.9936493  60.1726993  44.4033833  44.1846493
  75.7506993  33.4723833  45.4766493  75.4046993  34.1503833  45.9026493
  75.1146993  32.8743833  45.4926493  75.6056993  33.4843833  45.5416493
  71.0626993  46.2423833  51.5806493  71.8066993  46.6983833  51.5706493
  70.9416993  46.0283833  50.7436493  71.1546993  46.2783833  51.4556493
  60.6306993  32.5453833  57.1566493  59.8526993  32.1553833  57.0846493
  61.1216993  32.1333833  56.5656493  60.5876993  32.4263833  57.0586493
  60.8356993  42.8653833  47.7146493  61.2586993  42.5093833  47.0406493
  61.1596993  42.4433833  48.4066493  60.9456993  42.7503833  47.7176493
  64.0666993  45.7173833  47.0106493  64.9106993  45.8213833  46.8156493
  63.7696993  46.5353833  47.0786493  64.1476993  45.8533833  46.9916493
  67.2796993  30.1883833  56.3246493  67.4576993  29.3793833  56.0496493
  67.1366993  30.6293833  55.5856493  67.2846993  30.1343833  56.1746493
  67.8736993  35.1143833  45.0976493  68.1606993  34.8823833  44.3076493
  68.6056993  35.1933833  45.5666493  68.0236993  35.0913833  45.0506493
  68.5956993  35.4533833  40.2186493  68.8766993  36.2413833  40.4676493
  67.8196993  35.6183833  39.8556493  68.5226993  35.5943833  40.2016493
  72.6366993  47.4273833  41.6856493  73.3016993  47.2793833  41.1406493
  72.9966993  47.3443833  42.4756493  72.7886993  47.3933833  41.7216493
  63.0646993  46.9363833  52.7506493  63.3566993  46.8693833  53.5706493
  62.4386993  46.3313833  52.7056493  63.0156993  46.8373833  52.8656493
  57.9786993  33.0933833  54.7426493  57.9746993  33.6803833  55.3886493
  58.5726993  33.4053833  54.1856493  58.0656993  33.2263833  54.7556493
  70.3166993  43.4273833  55.2846493  70.2826993  43.8093833  56.0686493
  71.1706993  43.3853833  55.1136493  70.4376993  43.4773833  55.3756493
  67.4546993  43.6243833  40.0346493  67.2736993  44.1693833  40.6916493
  68.2206993  43.9143833  39.7336493  67.5406993  43.7483833  40.0876493
  70.9616993  31.5203833  41.0886493  71.5016993  30.8383833  41.1646493
  71.0236993  31.9183833  41.8626493  71.0506993  31.4783833  41.2146493
  58.9156993  32.6883833  43.6576493  58.8016993  31.8243833  43.6886493
  58.4406993  32.9823833  44.3276493  58.8286993  32.6043833  43.7606493
  61.0576993  45.0983833  51.8726493  60.3596993  44.5903833  51.9986493
  61.3176993  44.8933833  51.0646493  60.9926993  44.9933833  51.7716493
  68.2196993  33.8963833  42.4026493  67.7116993  33.2343833  42.1486493
  68.2716993  34.4003833  41.6926493  68.1526993  33.8733833  42.2606493
  68.7686993  46.5913833  52.7826493  69.5366993  46.5113833  52.3766493
  68.1856993  46.4703833  52.1446493  68.7956993  46.5613833  52.6286493
  68.2196993  30.8373833  42.2936493  67.7646993  30.4353833  41.6676493
  68.9926993  30.9923833  41.9186493  68.2666993  30.8013833  42.1456493
  75.0456993  47.1943833  45.6836493  74.5906993  47.9113833  45.8846493
  74.4316993  46.6233833  45.4416493  74.8876993  47.2163833  45.6776493
  66.8176993  33.2043833  46.8156493  66.8916993  33.7723833  46.1576493
  66.9386993  33.6963833  47.5256493  66.8456993  33.3613833  46.8236493
  72.0426993  43.0393833  45.2276493  72.7436993  42.5573833  45.4166493
  71.3826993  42.4703833  45.2726493  72.0486993  42.8843833  45.2616493
  62.4186993  43.9493833  54.4396493  63.2596993  44.0123833  54.2176493
  62.3816993  44.3463833  55.2156493  62.5376993  44.0173833  54.5216493
  61.4256993  29.0273833  45.1636493  61.9616993  29.7153833  45.1536493
  61.4286993  28.7533833  44.3356493  61.5046993  29.0883833  45.0396493
  64.3816993  39.4603833  49.1886493  64.5536993  39.2503833  50.0176493
  63.7266993  38.9263833  48.9726493  64.3106993  39.3503833  49.2796493
  70.6096993  33.3743833  52.7036493  70.5146993  33.6933833  53.5096493
  70.0166993  32.7353833  52.6656493  70.5076993  33.3263833  52.8176493
  65.1316993  39.3983833  51.7786493  65.1846993  40.2453833  51.9806493
  64.8466993  39.0283833  52.5156493  65.0976993  39.4683833  51.9166493
  71.3086993  40.0933833  50.9086493  70.7946993  39.6813833  51.4796493
  71.1826993  40.9373833  51.0896493  71.2146993  40.1573833  51.0196493
  71.8656993  29.3183833  45.5396493  71.9146993  29.0003833  46.3506493
  72.1886993  28.6743833  45.0466493  71.9206993  29.1763833  45.5866493
  57.9526993  43.7693833  57.9896493  58.7086993  44.1183833  58.2476493
  58.1296993  42.9163833  57.9326493  58.0906993  43.6943833  58.0196493
  74.3296993  33.5543833  53.8476493  75.1016993  33.3293833  54.1846493
  73.8546993  33.7713833  54.5476493  74.3736993  33.5533833  54.0006493
  61.8736993  32.8373833  46.8176493  62.1456993  32.4073833  46.1096493
  61.6976993  32.2013833  47.3886493  61.8876993  32.6803833  46.7976493
  74.5616993  40.5323833  41.0356493  74.6806993  40.2453833  41.8506493
  75.3686993  40.5533833  40.7056493  74.6976993  40.4933833  41.1076493
  61.6976993  40.2643833  46.3666493  62.5486993  40.1843833  46.1936493
  61.3406993  39.5823833  45.9546493  61.7706993  40.1513833  46.2796493
  60.4646993  46.9893833  47.6036493  59.7916993  46.4913833  47.3586493
  60.8676993  47.1743833  46.8526493  60.4246993  46.9433833  47.4566493
  60.0146993  33.9393833  49.8996493  60.8576993  34.1593833  49.8566493
  59.6256993  34.5123833  49.3686493  60.0816993  34.0563833  49.8146493
  72.4566993  37.0693833  40.6206493  72.2366993  37.8003833  40.1986493
  72.0086993  37.1203833  41.3676493  72.3576993  37.1843833  40.6686493
  64.0656993  40.2713833  44.6016493  64.7786993  40.7663833  44.6916493
  64.2876993  39.7043833  43.9756493  64.2036993  40.2603833  44.5226493
  58.2216993  41.9143833  47.9216493  57.5546993  42.4023833  48.1976493
  58.9016993  42.4593833  47.9506493  58.2236993  42.0663833  47.9666493
  65.8686993  35.6243833  58.0176493  65.3846993  36.2013833  58.4596493
  65.8406993  35.9193833  57.1966493  65.7926993  35.7533833  57.9616493
  58.2876993  38.5983833  43.0246493  58.1026993  37.7593833  43.1766493
  58.9466993  38.5623833  42.4546493  58.3576993  38.4693833  42.9626493
  74.6456993  31.4883833  42.3526493  75.3916993  31.0813833  42.5516493
  74.9086993  32.2033833  41.9276493  74.7946993  31.5343833  42.3196493
  68.5886993  43.9743833  46.9286493  68.0656993  44.6083833  46.6356493
  68.8986993  43.6103833  46.1996493  68.5566993  44.0143833  46.7776493
  58.4596993  42.7623833  42.5996493  59.0116993  43.3313833  42.9636493
  58.2276993  42.2473833  43.2646493  58.5066993  42.7703833  42.7516493
  62.6636993  41.7623833  49.6886493  63.1306993  42.0513833  50.3666493
  63.2356993  41.2843833  49.2346493  62.8176993  41.7343833  49.7216493
  71.0996993  33.7763833  47.4256493  71.4436993  33.9283833  48.2126493
  70.6466993  33.0383833  47.5386493  71.0836993  33.6893833  47.5586493
  58.2896993  41.2113833  40.2276493  59.0456993  40.7793833  40.2856493
  58.3046993  41.7433833  40.9186493  58.4036993  41.2263833  40.3386493
  59.2296993  39.4323833  48.2326493  59.6606993  39.3033833  47.4856493
  59.0246993  40.2803833  48.2066493  59.2626993  39.5383833  48.1186493
  65.5756993  32.9963833  41.8826493  65.5736993  32.8793833  41.0176493
  65.3946993  33.8443833  41.9746493  65.5486993  33.1043833  41.7686493
  74.6296993  45.4233833  53.3796493  73.9586993  45.9373833  53.5976493
  74.6926993  45.5233833  52.5156493  74.5396993  45.5143833  53.2846493
  63.3136993  42.9483833  46.5146493  63.4396993  43.7913833  46.7016493
  63.9816993  42.5493833  46.9106493  63.4316993  43.0143833  46.6006493
  61.4436993  36.4313833  56.3766493  60.9076993  35.9253833  56.8446493
  61.4636993  36.0413833  55.5966493  61.3666993  36.2983833  56.3306493
  61.9286993  35.8283833  41.5166493  61.8006993  35.3803833  42.2546493
  61.3466993  35.4863833  40.9646493  61.8236993  35.7113833  41.5446493
  62.0956993  37.6583833  48.1156493  61.3146993  37.5993833  47.7326493
  62.1676993  36.9063833  48.5526493  61.9906993  37.5393833  48.1236493
  62.5256993  37.3953833  51.5836493  62.5506993  36.7203833  51.0326493
  61.8796993  37.8913833  51.2716493  62.4346993  37.3683833  51.4566493
  72.4206993  35.1083833  49.9796493  71.7586993  35.4363833  50.4426493
  72.6076993  35.7423833  49.4106493  72.3506993  35.2503833  49.9636493
  66.6256993  46.1723833  50.9756493  66.3486993  45.5313833  50.4526493
  66.4176993  46.8983833  50.5376493  66.5546993  46.1853833  50.8336493
  69.0656993  31.0143833  53.4086493  69.2146993  30.1893833  53.1656493
  69.4446993  31.0693833  54.1926493  69.1436993  30.9003833  53.4886493
  70.6136993  33.0773833  43.4906493  71.1036993  33.7943833  43.4136493
  69.8236993  33.3383833  43.2276493  70.5696993  33.2213833  43.4406493
  60.3246993  38.7503833  57.1426493  60.2876993  39.2513833  56.4286493
  60.6556993  37.9983833  56.8476493  60.3676993  38.7123833  56.9936493
  71.9276993  40.9553833  55.4006493  72.4116993  41.6733833  55.4986493
  72.3216993  40.5283833  54.7496493  72.0576993  40.9983833  55.3186493
  66.2236993  43.8003833  56.5776493  66.5776993  43.6223833  57.3546493
  65.7876993  43.0713833  56.3786493  66.2116993  43.6663833  56.6636493
  67.1956993  34.5473833  49.2156493  67.6756993  35.2463833  49.4236493
  67.5686993  33.9003833  49.6666493  67.3216993  34.5553833  49.3126493
  69.3846993  37.7163833  41.4896493  69.3766993  38.4383833  40.9996493
  68.7456993  37.8513833  42.0666493  69.2896993  37.8433833  41.5026493
  74.3566993  41.5863833  45.4706493  74.7126993  41.2363833  46.1856493
  74.3486993  40.9253833  44.9006493  74.4086993  41.4363833  45.4916493
  70.4016993  44.6523833  49.3146493  69.7986993  44.3563833  48.7576493
  70.9466993  45.1043833  48.8056493  70.3926993  44.6753833  49.1566493
  70.4146993  41.5033833  48.7146493  69.6176993  41.7273833  48.9886493
  70.6726993  40.9093833  49.2996493  70.3346993  41.4483833  48.8416493
  64.3066993  46.3153833  43.1626493  64.1596993  45.5393833  43.5336493
  64.9956993  46.1683833  42.6476493  64.3866993  46.1783833  43.1416493
  63.9776993  30.0583833  41.1506493  64.0746993  29.9513833  42.0116493
  63.2696993  30.5643833  41.0856493  63.8876993  30.1173833  41.2686493
  66.5986993  45.8313833  41.5646493  67.2206993  45.9943833  42.1546493
  66.6346993  46.5223833  41.0326493  66.6956993  45.9573833  41.5736493
  73.6746993  39.5013833  53.5606493  73.7296993  39.6263833  52.6986493
  74.4276993  39.8213833  53.8626493  73.7936993  39.5663833  53.4776493
  69.8656993  44.8503833  57.8376493  70.0296993  45.1333833  58.6466493
  70.1286993  45.5113833  57.3326493  69.9286993  44.9903833  57.8826493
  74.7066993  29.7993833  56.5476493  74.0696993  29.3993833  56.1056493
  74.7326993  29.3683833  57.3056493  74.6166993  29.6773833  56.5936493
  61.0996993  38.3653833  42.3936493  61.4236993  37.5863833  42.1716493
  61.7456993  38.7333833  42.8486493  61.2426993  38.3043833  42.4276493
  69.4056993  39.3073833  53.1606493  69.2506993  39.9173833  53.7646493
  69.9396993  38.7493833  53.5666493  69.4616993  39.3153833  53.3096493
  58.0966993  30.0263833  43.3616493  58.2256993  29.3183833  42.8696493
  57.7296993  29.7083833  44.0866493  58.0616993  29.8743833  43.3966493
  67.7896993  37.7073833  43.8186493  67.8486993  38.3573833  44.3976493
  67.6006993  37.0113833  44.3096493  67.7706993  37.7003833  43.9766493
  73.0156993  42.0363833  49.6876493  72.5366993  42.3343833  49.0216493
  72.6596993  41.2603833  49.8656493  72.8926993  41.9653833  49.6156493
  62.2856993  32.2243833  40.3306493  61.7746993  32.2773833  39.6246493
  63.0696993  32.4643833  40.0346493  62.3256993  32.2673833  40.1826493
  67.0126993  39.7543833  48.2496493  66.1656993  39.5603833  48.3306493
  67.3366993  39.5893833  49.0426493  66.9346993  39.7013833  48.3786493
  63.7646993  46.4843833  39.1356493  64.2036993  45.7873833  39.4236493
  63.9716993  47.1083833  39.7086493  63.8606993  46.4733833  39.2626493
  60.8606993  39.4473833  50.5656493  61.5826993  39.9353833  50.5286493
  60.5906993  39.4173833  49.7366493  60.9276993  39.5153833  50.4376493
  64.0906993  34.6183833  47.3006493  64.9366993  34.4283833  47.3986493
  63.7206993  33.8413833  47.1626493  64.1606993  34.4753833  47.2946493
  73.9466993  38.9783833  50.8066493  73.9396993  38.2023833  51.2046493
  73.1056993  39.2123833  50.7996493  73.8216993  38.8983833  50.8646493
  63.4366993  37.3903833  39.4416493  62.8266993  36.9853833  39.9156493
  63.0506993  37.5083833  38.6686493  63.2896993  37.3473833  39.3976493
  60.2556993  40.4993833  54.8436493  59.8346993  39.9813833  54.2826493
  59.9036993  41.2853833  54.7006493  60.1416993  40.5393833  54.7396493
  64.8916993  35.8513833  42.1516493  65.1636993  36.6773833  42.2186493
  64.0286993  35.9263833  42.0556493  64.8046993  35.9843833  42.1466493
  72.8646993  32.9733833  56.7836493  72.3396993  33.4323833  57.3076493
  72.5036993  32.1783833  56.7776493  72.7336993  32.9233833  56.8596493
  58.3716993  31.8213833  48.6876493  58.4156993  32.1653833  47.8866493
  59.1266993  32.0583833  49.0546493  58.4896993  31.9073833  48.6236493
  71.3566993  36.5423833  56.8596493  71.4296993  36.6463833  57.7226493
  70.7226993  37.1003833  56.6386493  71.2736993  36.6403833  56.9546493
  73.6246993  36.8613833  55.2246493  73.9436993  37.6473833  55.4276493
  73.2546993  36.5913833  55.9676493  73.6176993  36.9373833  55.3646493
  72.9386993  43.2853833  40.7546493  73.2726993  42.4793833  40.7896493
  72.1836993  43.2133833  41.1846493  72.8766993  43.1553833  40.8236493
  73.4206993  35.1193833  46.4136493  72.6756993  34.7963833  46.7316493
  73.4226993  35.9453833  46.6936493  73.3106993  35.1933833  46.5016493
  70.3126993  41.1603833  40.1576493  70.9966993  40.6463833  39.9886493
  69.8956993  41.2063833  39.3926493  70.3516993  41.0913833  40.0196493
  64.9946993  42.3103833  51.4616493  64.6966993  42.9023833  52.0286493
  65.0496993  42.7523833  50.7126493  64.9586993  42.4633833  51.4346493
  62.9736993  41.2603833  54.8596493  62.1676993  40.9703833  55.0266493
  62.8846993  42.1283833  54.8656493  62.8416993  41.3453833  54.8846493
  72.3326993  31.4493833  53.8746493  73.0766993  31.9013833  53.8116493
  71.7666993  31.9193833  53.4056493  72.3596993  31.5863833  53.7966493
  67.5106993  38.7333833  50.9526493  67.9866993  39.1073833  51.5806493
  66.6876993  38.8673833  51.2116493  67.4596993  38.8083833  51.0836493
  64.2206993  34.3363833  53.6936493  64.3816993  33.5923833  54.1206493
  64.1756993  34.0873833  52.8586493  64.2376993  34.1893833  53.6336493
  66.7746993  46.1263833  46.1806493  67.3206993  46.8053833  46.2346493
  66.4246993  46.2083833  45.3856493  66.8036993  46.2393833  46.0706493
  73.6176993  29.4293833  51.5446493  73.3376993  30.2543833  51.5006493
  74.3336993  29.4823833  52.0406493  73.6826993  29.5593833  51.6116493
  65.9726993  30.1443833  53.5736493  66.6776993  30.4643833  53.1716493
  66.2136993  29.3373833  53.8006493  66.1116993  30.0723833  53.5476493
  64.9576993  44.3543833  49.5696493  64.3336993  44.9363833  49.3876493
  65.2056993  44.0683833  48.7836493  64.9016993  44.3983833  49.4266493
  69.2666993  40.9883833  56.5586493  70.0236993  41.2743833  56.2326493
  68.7196993  41.0403833  55.8806493  69.2976993  41.0383833  56.4096493
  73.1756993  43.5383833  55.0626493  73.5216993  43.8083833  55.8166493
  73.4696993  44.1203833  54.4826493  73.2706993  43.6643833  55.0886493
  75.0386993  35.6843833  40.4016493  75.4166993  36.3613833  40.0016493
  74.1966993  35.9083833  40.4326493  74.9696993  35.8173833  40.3466493
  66.5516993  39.1303833  39.4846493  65.7466993  38.9533833  39.1996493
  66.5186993  39.9813833  39.6766493  66.4276993  39.2293833  39.4716493
  62.4816993  35.1973833  49.6346493  62.9216993  35.0943833  48.8886493
  63.0266993  34.8843833  50.2396493  62.6266993  35.1363833  49.6136493
  70.4976993  34.2993833  55.2266493  69.8496993  34.7693833  55.5746493
  71.0626993  34.2103833  55.8856493  70.4856993  34.3553833  55.3756493
  70.1856993  35.8363833  51.5246493  70.4876993  36.2563833  52.2276493
  70.2216993  34.9963833  51.7566493  70.2356993  35.7743833  51.6626493
  67.6106993  46.0033833  55.4496493  68.0886993  45.4033833  55.0336493
  67.2596993  45.5603833  56.1146493  67.6296993  45.8493833  55.4866493
  72.7336993  35.2833833  43.7766493  72.9406993  35.0823833  44.6006493
  73.4896993  35.5513833  43.4346493  72.8756993  35.2933833  43.8476493
  66.0286993  30.1823833  49.6816493  65.2026993  30.0333833  49.9186493
  65.9886993  30.2173833  48.8106493  65.9006993  30.1653833  49.5876493
  73.7556993  31.3663833  45.2506493  73.0416993  30.8953833  45.4216493
  73.5936993  31.7073833  44.4646493  73.6266993  31.3473833  45.1596493
  74.1986993  39.3103833  43.6306493  74.6746993  38.5813833  43.5826493
  73.3776993  39.0243833  43.5546493  74.1476993  39.1603833  43.6116493
  67.6696993  41.2223833  54.4696493  66.8746993  41.1583833  54.8206493
  67.7406993  42.0693833  54.2746493  67.5626993  41.3373833  54.4926493
  58.5936993  30.5803833  55.7166493  58.4536993  31.3753833  55.3856493
  57.8076993  30.3373833  56.0056493  58.4566993  30.6623833  55.7106493
  63.4996993  47.4293833  49.7866493  63.5106993  47.4883833  50.6566493
  63.0746993  46.6823833  49.6366493  63.4386993  47.3273833  49.8926493
  61.6576993  33.3243833  42.9416493  61.7836993  32.9953833  42.1436493
  60.8456993  33.0753833  43.1406493  61.5566993  33.2393833  42.8536493
  70.4146993  40.4773833  45.9856493  70.4906993  40.8183833  46.7846493
  70.5836993  39.6303833  46.1066493  70.4506993  40.4023833  46.1216493
  67.9366993  39.7513833  45.5506493  67.6386993  39.4363833  46.3076493
  68.6316993  40.2243833  45.7856493  67.9956993  39.7743833  45.6976493
  68.1586993  43.8693833  53.5776493  68.8456993  43.7553833  54.1026493
  68.2926993  44.6603833  53.2336493  68.2796993  43.9693833  53.6046493
  70.8476993  37.1433833  53.9646493  70.5926993  36.4243833  54.3866493
  71.6686993  37.2593833  54.2346493  70.9316993  37.0543833  54.0666493
  60.2636993  46.9273833  55.2286493  59.6096993  46.3583833  55.3266493
  59.8886993  47.7003833  55.3796493  60.1116993  46.9573833  55.2656493
  68.7816993  38.3333833  57.1516493  69.1046993  39.0193833  56.7196493
  68.0776993  38.6563833  57.5536493  68.7246993  38.4823833  57.1466493
  71.8656993  46.7073833  48.0806493  71.4146993  47.3503833  48.4596493
  72.5736993  46.6283833  48.5856493  71.9036993  46.7903833  48.2116493
  68.5666993  41.7973833  51.0106493  67.8726993  42.1993833  51.3536493
  69.2436993  42.2303833  51.3496493  68.5636993  41.9203833  51.1116493
  73.9436993  44.3903833  57.5906493  74.7196993  44.0003833  57.6736493
  73.4746993  44.0543833  58.2456493  73.9886993  44.2833833  57.6996493
  61.6346993  35.3353833  53.3576493  62.0096993  35.9543833  52.8706493
  62.3086993  34.8613833  53.6426493  61.7896993  35.3573833  53.3276493
  59.4096993  33.7833833  52.6326493  59.4866993  33.6143833  51.7796493
  60.1556993  34.1893833  52.8296493  59.5306993  33.8183833  52.5356493
  74.9686993  36.4233833  43.0726493  75.0716993  36.3653833  42.2086493
  75.7096993  36.0913833  43.3906493  75.0936993  36.3663833  42.9916493
  61.9636993  31.1933833  55.0436493  61.8826993  30.3493833  55.2496493
  61.6496993  31.2373833  54.2306493  61.9056993  31.0753833  54.9536493
  68.8886993  43.3883833  44.1796493  68.6836993  44.2213833  44.0206493
  68.1136993  43.0063833  44.3016493  68.7436993  43.4553833  44.1746493
  74.0706993  36.5693833  52.4286493  74.0686993  35.7063833  52.5526493
  74.1376993  36.8933833  53.2356493  74.0806993  36.4893833  52.5656493
  58.8066993  39.0093833  52.8566493  59.1266993  39.2283833  52.0756493
  58.7066993  38.1443833  52.8016493  58.8386993  38.9143833  52.7336493
  60.2626993  34.9453833  39.4746493  59.5906993  34.9593833  40.0306493
  60.3576993  34.0973833  39.2906493  60.1776993  34.8223833  39.5296493
  69.9496993  31.3693833  56.2106493  70.0416993  32.0813833  56.7046493
  69.3126993  30.9243833  56.6076493  69.8686993  31.4083833  56.3426493
  68.9436993  31.5593833  47.0646493  68.2436993  32.0773833  47.0086493
  68.9816993  31.1793833  46.2806493  68.8456993  31.5803833  46.9406493
  64.2506993  43.6503833  40.5886493  64.6916993  43.7303833  41.3366493
  63.4456993  43.4343833  40.8466493  64.1966993  43.6303833  40.7376493
  72.5416993  32.0753833  49.8646493  73.3966993  32.1743833  50.0096493
  72.1726993  32.6283833  50.4296493  72.6136993  32.1723833  49.9696493
  63.5696993  38.3013833  54.2416493  63.1736993  39.0753833  54.3166493
  63.1636993  37.9283833  53.5656493  63.4516993  38.3603833  54.1526493
  72.8456993  37.3553833  48.3556493  73.5116993  37.8963833  48.5156493
  72.5006993  37.6663833  47.6166493  72.8926993  37.4813833  48.2706493
  73.1586993  45.4213833  44.1626493  72.9846993  44.7673833  44.7126493
  73.8716993  45.1503833  43.7396493  73.2386993  45.2843833  44.1816493
  61.5796993  42.7203833  41.1896493  61.3356993  42.4133833  41.9696493
  61.5466993  42.0173833  40.6736493  61.5386993  42.5713833  41.2286493
  64.3986993  40.9653833  39.9326493  63.5806993  40.6973833  40.0726493
  64.3706993  41.8173833  40.1176493  64.2736993  41.0523833  39.9806493
  63.9986993  31.2783833  51.6916493  63.1346993  31.3623833  51.7716493
  64.2186993  30.7643833  52.3606493  63.9036993  31.2153833  51.8026493
  68.1016993  32.0263833  50.0656493  67.3646993  31.5723833  50.1786493
  68.6726993  31.6243833  50.5886493  68.0766993  31.8993833  50.1596493
  70.8336993  42.8743833  51.8536493  71.0396993  43.1753833  52.6456493
  70.7726993  43.5963833  51.3686493  70.8546993  43.0253833  51.8986493
  70.3676993  47.0883833  56.0996493  69.6146993  47.0703833  55.6586493
  70.5356993  47.9403833  56.1836493  70.2816993  47.2113833  56.0466493
  65.6046993  36.3553833  55.2696493  65.2826993  35.7793833  54.6996493
  65.2456993  37.1103833  55.0236493  65.5046993  36.3813833  55.1496493
  66.4006993  29.6073833  39.8966493  66.4786993  29.8543833  39.0636493
  65.6576993  29.9843833  40.1546493  66.3026993  29.6993833  39.8116493
  75.6456993  41.5133833  51.3116493  75.6136993  40.6513833  51.1766493
  74.9526993  41.8153833  50.8776493  75.5386993  41.4303833  51.2276493
  64.0396993  46.7113833  55.5176493  64.0806993  46.8373833  56.3806493
  64.6906993  46.1513833  55.3616493  64.1416993  46.6473833  55.6226493
  73.7506993  44.7733833  50.1086493  74.2776993  44.6903833  49.4176493
  73.3596993  43.9953833  50.1626493  73.7706993  44.6463833  50.0146493
  61.2186993  31.3613833  52.3396493  60.8756993  30.5943833  52.1056493
  60.5236993  31.8853833  52.4036493  61.0656993  31.3253833  52.3146493
  70.2646993  30.2173833  49.3166493  70.9346993  30.7613833  49.4436493
  69.7616993  30.6413833  48.7436493  70.2896993  30.3603833  49.2506493
  61.6326993  45.0943833  56.8776493  62.2276993  45.5253833  57.3496493
  61.2686993  45.7183833  56.3886493  61.6666993  45.2503833  56.8746493
  69.6236993  36.0253833  46.8096493  70.1746993  35.4183833  47.1096493
  69.1986993  36.2883833  47.5246493  69.6426993  35.9743833  46.9586493
  59.8716993  34.6753833  46.2956493  59.5036993  34.9773833  47.0266493
  60.4056993  34.0463833  46.5796493  59.8956993  34.6273833  46.4456493
  59.5596993  43.0833833  53.8066493  58.9856993  43.4993833  54.3156493
  60.2926993  43.5483833  53.9016493  59.5836993  43.2133833  53.8956493
  71.5936993  37.8563833  43.3716493  71.6616993  37.0063833  43.5526493
  70.7706993  37.9423833  43.0936493  71.4816993  37.7433833  43.3576493
  61.3456993  46.3503833  42.5816493  61.2006993  46.5063833  41.7356493
  62.2116993  46.4293833  42.6596493  61.4526993  46.3853833  42.4686493
  65.5126993  38.7473833  42.3096493  65.6126993  38.8863833  41.4546493
  66.3306993  38.6873833  42.6056493  65.6476993  38.7583833  42.2266493
  74.6726993  46.8113833  39.7896493  75.3096993  46.6773833  40.3706493
  74.3316993  46.0173833  39.6726493  74.7166993  46.6743833  39.8576493
  74.8676993  39.2293833  56.5226493  75.5016993  39.0593833  57.0966493
  75.2846993  39.6323833  55.8706493  75.0226993  39.2643833  56.5116493
  70.7476993  43.0763833  42.1116493  70.4966993  42.9483833  42.9376493
  70.4306993  42.3813833  41.6906493  70.6636993  42.9553833  42.1716493
  75.4926993  33.7933833  57.2606493  75.2966993  34.4373833  57.8156493
  74.7706993  33.3033833  57.2526493  75.3576993  33.8163833  57.3416493
  75.3916993  34.7343833  50.2316493  74.5586993  34.9843833  50.1596493
  75.3356993  33.8943833  50.4606493  75.2606993  34.6473833  50.2546493
  64.6516993  31.7223833  55.4256493  64.8856993  31.1463833  54.8126493
  63.8096993  31.5413833  55.5666493  64.5616993  31.6103833  55.3556493
  72.2786993  39.3403833  57.8776493  73.1496993  39.3043833  57.8416493
  72.0596993  39.7603833  57.1456493  72.3756993  39.3963833  57.7646493
  62.0326993  45.1653833  49.0586493  61.9536993  44.3553833  48.7426493
  61.5886993  45.6523833  48.4866493  61.9556993  45.1173833  48.9276493
  67.6336993  41.2843833  41.5416493  68.3506993  40.9373833  41.1856493
  67.5996993  42.0843833  41.1936493  67.7346993  41.3513833  41.4376493
  59.6046993  47.4093833  52.6396493  60.0976993  47.3533833  53.3576493
  59.7926993  46.6763833  52.2046493  59.7056993  47.2923833  52.6816493
  69.0426993  29.9253833  25.7804083  68.7976993  30.4133833  25.1004083
  69.9056993  29.8523833  25.6804083  69.1336993  29.9863833  25.6654083
  68.8516993  36.8413833  30.4514083  68.3276993  37.4373833  30.8144083
  69.2486993  36.4733833  31.1354083  68.8326993  36.8753833  30.6064083
  58.7206993  40.9813833  25.9074083  58.2796993  41.0993833  26.6504083
  58.4376993  40.2063833  25.6224083  58.6136993  40.8843833  25.9754083
  74.9956993  44.2823833  23.4224083  75.6966993  43.7633833  23.4184083
  74.4086993  43.8373833  22.9534083  75.0126993  44.1393833  23.3524083
  58.4636993  34.7733833  22.4144083  57.6856993  34.9353833  22.0544083
  58.5026993  33.9023833  22.4364083  58.3546993  34.6683833  22.3644083
  61.6026993  40.0363833  21.0864083  61.2106993  39.6653833  20.4004083
  61.5226993  39.4383833  21.7154083  61.5326993  39.8933833  21.0774083
  71.5226993  37.9083833  27.1274083  71.6026993  37.9123833  26.2584083
  70.9386993  37.2763833  27.2764083  71.4476993  37.8153833  27.0214083
  61.2296993  41.6773833  24.9864083  61.8376993  41.5073833  25.5894083
  60.4786993  41.5373833  25.4074083  61.2086993  41.6313833  25.1374083
  65.5116993  31.0123833  24.9354083  65.4416993  31.6893833  24.3894083
  66.2526993  30.6243833  24.6864083  65.6106993  31.0553833  24.8174083
  60.1206993  44.7683833  21.0634083  60.5876993  44.8523833  20.3314083
  60.5756993  44.1903833  21.5324083  60.2566993  44.6953833  21.0244083
  58.6606993  43.7163833  32.1624083  58.7896993  43.4363833  32.9784083
  58.0506993  43.1753833  31.8534083  58.5896993  43.5953833  32.2374083
  65.2346993  41.2413833  37.2294083  64.9986993  41.2383833  38.0694083
  64.4866993  41.0933833  36.8054083  65.0886993  41.2183833  37.2904083
  60.1066993  38.2373833  26.3644083  59.6446993  37.8453833  25.7374083
  60.8066993  37.7243833  26.4564083  60.1416993  38.1043833  26.2854083
  64.6146993  33.8473833  31.7114083  65.2926993  33.8653833  31.1624083
  64.5696993  33.0113833  31.9564083  64.7076993  33.7263833  31.6664083
  65.2166993  44.4333833  34.4924083  65.3546993  45.1933833  34.0854083
  66.0076993  44.0683833  34.5194083  65.3536993  44.4923833  34.4364083
  62.1076993  36.3373833  26.3874083  62.9246993  36.1503833  26.6304083
  61.6306993  35.7233833  26.7834083  62.1576993  36.2193833  26.4824083
  66.3116993  42.3183833  28.9974083  66.6596993  41.5193833  29.0274083
  66.9766993  42.8223833  28.7424083  66.4616993  42.2743833  28.9644083
  66.3686993  41.7673833  25.2084083  66.6996993  41.1233833  25.6944083
  66.6086993  41.5563833  24.3974083  66.4526993  41.6413833  25.1604083
  68.3366993  35.8983833  36.5474083  67.4886993  35.7993833  36.3694083
  68.3656993  36.6433833  37.0014083  68.2156993  35.9943833  36.5884083
  62.7046993  31.4313833  25.6534083  62.4086993  31.9323833  25.0034083
  63.5716993  31.5093833  25.5964083  62.7886993  31.5173833  25.5494083
  72.8946993  28.8583833  35.6614083  72.7366993  29.6273833  35.2794083
  72.1226993  28.6383833  36.0054083  72.7566993  28.9393833  35.6564083
  65.6836993  30.5733833  27.8764083  65.7566993  31.4333833  28.0054083
  65.6456993  30.4983833  27.0084083  65.6886993  30.6893833  27.7674083
  70.3566993  33.4993833  20.1754083  69.9066993  34.1803833  20.4824083
  70.4706993  32.9953833  20.8784083  70.3076993  33.5253833  20.3244083
  58.5626993  35.9983833  29.3774083  58.3066993  36.8293833  29.3024083
  57.8986993  35.6153833  29.7944083  58.4266993  36.0643833  29.4284083
  58.4726993  45.7083833  27.2774083  57.8806993  46.2663833  26.9644083
  58.8986993  45.4393833  26.5654083  58.4486993  45.7503833  27.1264083
  64.3126993  43.5523833  24.7574083  63.7336993  43.2773833  25.3494083
  64.9366993  42.9433833  24.7824083  64.3196993  43.4223833  24.8484083
  70.4556993  45.8403833  22.2794083  71.1826993  46.3123833  22.3814083
  70.6846993  45.0463833  22.5594083  70.5976993  45.7933833  22.3364083
  68.6236993  46.2323833  24.2694083  68.8376993  46.7593833  24.9314083
  69.3906993  46.0583833  23.8904083  68.7686993  46.2843833  24.3114083
  64.8976993  32.9483833  39.1664083  65.0146993  32.4943833  38.4304083
  65.1856993  33.7463833  38.9634083  64.9576993  32.9993833  39.0274083
  60.0176993  44.3783833  25.2084083  60.6736993  43.8033833  25.2234083
  60.4066993  45.1273833  24.9874083  60.1726993  44.4033833  25.1784083
  75.7506993  33.4723833  26.4704083  75.4046993  34.1503833  26.8964083
  75.1146993  32.8743833  26.4864083  75.6056993  33.4843833  26.5354083
  71.0626993  46.2423833  32.5744083  71.8066993  46.6983833  32.5644083
  70.9416993  46.0283833  31.7374083  71.1546993  46.2783833  32.4494083
  60.6306993  32.5453833  38.1504083  59.8526993  32.1553833  38.0784083
  61.1216993  32.1333833  37.5594083  60.5876993  32.4263833  38.0524083
  60.8356993  42.8653833  28.7084083  61.2586993  42.5093833  28.0344083
  61.1596993  42.4433833  29.4004083  60.9456993  42.7503833  28.7114083
  64.0666993  45.7173833  28.0044083  64.9106993  45.8213833  27.8094083
  63.7696993  46.5353833  28.0724083  64.1476993  45.8533833  27.9854083
  67.2796993  30.1883833  37.3184083  67.4576993  29.3793833  37.0434083
  67.1366993  30.6293833  36.5794083  67.2846993  30.1343833  37.1684083
  67.8736993  35.1143833  26.0914083  68.1606993  34.8823833  25.3014083
  68.6056993  35.1933833  26.5604083  68.0236993  35.0913833  26.0444083
  68.5956993  35.4533833  21.2124083  68.8766993  36.2413833  21.4614083
  67.8196993  35.6183833  20.8494083  68.5226993  35.5943833  21.1954083
  72.6366993  47.4273833  22.6794083  73.3016993  47.2793833  22.1344083
  72.9966993  47.3443833  23.4694083  72.7886993  47.3933833  22.7154083
  63.0646993  46.9363833  33.7444083  63.3566993  46.8693833  34.5644083
  62.4386993  46.3313833  33.6994083  63.0156993  46.8373833  33.8594083
  57.9786993  33.0933833  35.7364083  57.9746993  33.6803833  36.3824083
  58.5726993  33.4053833  35.1794083  58.0656993  33.2263833  35.7494083
  70.3166993  43.4273833  36.2784083  70.2826993  43.8093833  37.0624083
  71.1706993  43.3853833  36.1074083  70.4376993  43.4773833  36.3694083
  67.4546993  43.6243833  21.0284083  67.2736993  44.1693833  21.6854083
  68.2206993  43.9143833  20.7274083  67.5406993  43.7483833  21.0814083
  70.9616993  31.5203833  22.0824083  71.5016993  30.8383833  22.1584083
  71.0236993  31.9183833  22.8564083  71.0506993  31.4783833  22.2084083
  58.9156993  32.6883833  24.6514083  58.8016993  31.8243833  24.6824083
  58.4406993  32.9823833  25.3214083  58.8286993  32.6043833  24.7544083
  61.0576993  45.0983833  32.8664083  60.3596993  44.5903833  32.9924083
  61.3176993  44.8933833  32.0584083  60.9926993  44.9933833  32.7654083
  68.2196993  33.8963833  23.3964083  67.7116993  33.2343833  23.1424083
  68.2716993  34.4003833  22.6864083  68.1526993  33.8733833  23.2544083
  68.7686993  46.5913833  33.7764083  69.5366993  46.5113833  33.3704083
  68.1856993  46.4703833  33.1384083  68.7956993  46.5613833  33.6224083
  68.2196993  30.8373833  23.2874083  67.7646993  30.4353833  22.6614083
  68.9926993  30.9923833  22.9124083  68.2666993  30.8013833  23.1394083
  75.0456993  47.1943833  26.6774083  74.5906993  47.9113833  26.8784083
  74.4316993  46.6233833  26.4354083  74.8876993  47.2163833  26.6714083
  66.8176993  33.2043833  27.8094083  66.8916993  33.7723833  27.1514083
  66.9386993  33.6963833  28.5194083  66.8456993  33.3613833  27.8174083
  72.0426993  43.0393833  26.2214083  72.7436993  42.5573833  26.4104083
  71.3826993  42.4703833  26.2664083  72.0486993  42.8843833  26.2554083
  62.4186993  43.9493833  35.4334083  63.2596993  44.0123833  35.2114083
  62.3816993  44.3463833  36.2094083  62.5376993  44.0173833  35.5154083
  61.4256993  29.0273833  26.1574083  61.9616993  29.7153833  26.1474083
  61.4286993  28.7533833  25.3294083  61.5046993  29.0883833  26.0334083
  64.3816993  39.4603833  30.1824083  64.5536993  39.2503833  31.0114083
  63.7266993  38.9263833  29.9664083  64.3106993  39.3503833  30.2734083
  70.6096993  33.3743833  33.6974083  70.5146993  33.6933833  34.5034083
  70.0166993  32.7353833  33.6594083  70.5076993  33.3263833  33.8114083
  65.1316993  39.3983833  32.7724083  65.1846993  40.2453833  32.9744083
  64.8466993  39.0283833  33.5094083  65.0976993  39.4683833  32.9104083
  71.3086993  40.0933833  31.9024083  70.7946993  39.6813833  32.4734083
  71.1826993  40.9373833  32.0834083  71.2146993  40.1573833  32.0134083
  71.8656993  29.3183833  26.5334083  71.9146993  29.0003833  27.3444083
  72.1886993  28.6743833  26.0404083  71.9206993  29.1763833  26.5804083
  57.9526993  43.7693833  38.9834083  58.7086993  44.1183833  39.2414083
  58.1296993  42.9163833  38.9264083  58.0906993  43.6943833  39.0134083
  74.3296993  33.5543833  34.8414083  75.1016993  33.3293833  35.1784083
  73.8546993  33.7713833  35.5414083  74.3736993  33.5533833  34.9944083
  61.8736993  32.8373833  27.8114083  62.1456993  32.4073833  27.1034083
  61.6976993  32.2013833  28.3824083  61.8876993  32.6803833  27.7914083
  74.5616993  40.5323833  22.0294083  74.6806993  40.2453833  22.8444083
  75.3686993  40.5533833  21.6994083  74.6976993  40.4933833  22.1014083
  61.6976993  40.2643833  27.3604083  62.5486993  40.1843833  27.1874083
  61.3406993  39.5823833  26.9484083  61.7706993  40.1513833  27.2734083
  60.4646993  46.9893833  28.5974083  59.7916993  46.4913833  28.3524083
  60.8676993  47.1743833  27.8464083  60.4246993  46.9433833  28.4504083
  60.0146993  33.9393833  30.8934083  60.8576993  34.1593833  30.8504083
  59.6256993  34.5123833  30.3624083  60.0816993  34.0563833  30.8084083
  72.4566993  37.0693833  21.6144083  72.2366993  37.8003833  21.1924083
  72.0086993  37.1203833  22.3614083  72.3576993  37.1843833  21.6624083
  64.0656993  40.2713833  25.5954083  64.7786993  40.7663833  25.6854083
  64.2876993  39.7043833  24.9694083  64.2036993  40.2603833  25.5164083
  58.2216993  41.9143833  28.9154083  57.5546993  42.4023833  29.1914083
  58.9016993  42.4593833  28.9444083  58.2236993  42.0663833  28.9604083
  65.8686993  35.6243833  39.0114083  65.3846993  36.2013833  39.4534083
  65.8406993  35.9193833  38.1904083  65.7926993  35.7533833  38.9554083
  58.2876993  38.5983833  24.0184083  58.1026993  37.7593833  24.1704083
  58.9466993  38.5623833  23.4484083  58.3576993  38.4693833  23.9564083
  74.6456993  31.4883833  23.3464083  75.3916993  31.0813833  23.5454083
  74.9086993  32.2033833  22.9214083  74.7946993  31.5343833  23.3134083
  68.5886993  43.9743833  27.9224083  68.0656993  44.6083833  27.6294083
  68.8986993  43.6103833  27.1934083  68.5566993  44.0143833  27.7714083
  58.4596993  42.7623833  23.5934083  59.0116993  43.3313833  23.9574083
  58.2276993  42.2473833  24.2584083  58.5066993  42.7703833  23.7454083
  62.6636993  41.7623833  30.6824083  63.1306993  42.0513833  31.3604083
  63.2356993  41.2843833  30.2284083  62.8176993  41.7343833  30.7154083
  71.0996993  33.7763833  28.4194083  71.4436993  33.9283833  29.2064083
  70.6466993  33.0383833  28.5324083  71.0836993  33.6893833  28.5524083
  58.2896993  41.2113833  21.2214083  59.0456993  40.7793833  21.2794083
  58.3046993  41.7433833  21.9124083  58.4036993  41.2263833  21.3324083
  59.2296993  39.4323833  29.2264083  59.6606993  39.3033833  28.4794083
  59.0246993  40.2803833  29.2004083  59.2626993  39.5383833  29.1124083
  65.5756993  32.9963833  22.8764083  65.5736993  32.8793833  22.0114083
  65.3946993  33.8443833  22.9684083  65.5486993  33.1043833  22.7624083
  74.6296993  45.4233833  34.3734083  73.9586993  45.9373833  34.5914083
  74.6926993  45.5233833  33.5094083  74.5396993  45.5143833  34.2784083
  63.3136993  42.9483833  27.5084083  63.4396993  43.7913833  27.6954083
  63.9816993  42.5493833  27.9044083  63.4316993  43.0143833  27.5944083
  61.4436993  36.4313833  37.3704083  60.9076993  35.9253833  37.8384083
  61.4636993  36.0413833  36.5904083  61.3666993  36.2983833  37.3244083
  61.9286993  35.8283833  22.5104083  61.8006993  35.3803833  23.2484083
  61.3466993  35.4863833  21.9584083  61.8236993  35.7113833  22.5384083
  62.0956993  37.6583833  29.1094083  61.3146993  37.5993833  28.7264083
  62.1676993  36.9063833  29.5464083  61.9906993  37.5393833  29.1174083
  62.5256993  37.3953833  32.5774083  62.5506993  36.7203833  32.0264083
  61.8796993  37.8913833  32.2654083  62.4346993  37.3683833  32.4504083
  72.4206993  35.1083833  30.9734083  71.7586993  35.4363833  31.4364083
  72.6076993  35.7423833  30.4044083  72.3506993  35.2503833  30.9574083
  66.6256993  46.1723833  31.9694083  66.3486993  45.5313833  31.4464083
  66.4176993  46.8983833  31.5314083  66.5546993  46.1853833  31.8274083
  69.0656993  31.0143833  34.4024083  69.2146993  30.1893833  34.1594083
  69.4446993  31.0693833  35.1864083  69.1436993  30.9003833  34.4824083
  70.6136993  33.0773833  24.4844083  71.1036993  33.7943833  24.4074083
  69.8236993  33.3383833  24.2214083  70.5696993  33.2213833  24.4344083
  60.3246993  38.7503833  38.1364083  60.2876993  39.2513833  37.4224083
  60.6556993  37.9983833  37.8414083  60.3676993  38.7123833  37.9874083
  71.9276993  40.9553833  36.3944083  72.4116993  41.6733833  36.4924083
  72.3216993  40.5283833  35.7434083  72.0576993  40.9983833  36.3124083
  66.2236993  43.8003833  37.5714083  66.5776993  43.6223833  38.3484083
  65.7876993  43.0713833  37.3724083  66.2116993  43.6663833  37.6574083
  67.1956993  34.5473833  30.2094083  67.6756993  35.2463833  30.4174083
  67.5686993  33.9003833  30.6604083  67.3216993  34.5553833  30.3064083
  69.3846993  37.7163833  22.4834083  69.3766993  38.4383833  21.9934083
  68.7456993  37.8513833  23.0604083  69.2896993  37.8433833  22.4964083
  74.3566993  41.5863833  26.4644083  74.7126993  41.2363833  27.1794083
  74.3486993  40.9253833  25.8944083  74.4086993  41.4363833  26.4854083
  70.4016993  44.6523833  30.3084083  69.7986993  44.3563833  29.7514083
  70.9466993  45.1043833  29.7994083  70.3926993  44.6753833  30.1504083
  70.4146993  41.5033833  29.7084083  69.6176993  41.7273833  29.9824083
  70.6726993  40.9093833  30.2934083  70.3346993  41.4483833  29.8354083
  64.3066993  46.3153833  24.1564083  64.1596993  45.5393833  24.5274083
  64.9956993  46.1683833  23.6414083  64.3866993  46.1783833  24.1354083
  63.9776993  30.0583833  22.1444083  64.0746993  29.9513833  23.0054083
  63.2696993  30.5643833  22.0794083  63.8876993  30.1173833  22.2624083
  66.5986993  45.8313833  22.5584083  67.2206993  45.9943833  23.1484083
  66.6346993  46.5223833  22.0264083  66.6956993  45.9573833  22.5674083
  73.6746993  39.5013833  34.5544083  73.7296993  39.6263833  33.6924083
  74.4276993  39.8213833  34.8564083  73.7936993  39.5663833  34.4714083
  69.8656993  44.8503833  38.8314083  70.0296993  45.1333833  39.6404083
  70.1286993  45.5113833  38.3264083  69.9286993  44.9903833  38.8764083
  74.7066993  29.7993833  37.5414083  74.0696993  29.3993833  37.0994083
  74.7326993  29.3683833  38.2994083  74.6166993  29.6773833  37.5874083
  61.0996993  38.3653833  23.3874083  61.4236993  37.5863833  23.1654083
  61.7456993  38.7333833  23.8424083  61.2426993  38.3043833  23.4214083
  69.4056993  39.3073833  34.1544083  69.2506993  39.9173833  34.7584083
  69.9396993  38.7493833  34.5604083  69.4616993  39.3153833  34.3034083
  58.0966993  30.0263833  24.3554083  58.2256993  29.3183833  23.8634083
  57.7296993  29.7083833  25.0804083  58.0616993  29.8743833  24.3904083
  67.7896993  37.7073833  24.8124083  67.8486993  38.3573833  25.3914083
  67.6006993  37.0113833  25.3034083  67.7706993  37.7003833  24.9704083
  73.0156993  42.0363833  30.6814083  72.5366993  42.3343833  30.0154083
  72.6596993  41.2603833  30.8594083  72.8926993  41.9653833  30.6094083
  62.2856993  32.2243833  21.3244083  61.7746993  32.2773833  20.6184083
  63.0696993  32.4643833  21.0284083  62.3256993  32.2673833  21.1764083
  67.0126993  39.7543833  29.2434083  66.1656993  39.5603833  29.3244083
  67.3366993  39.5893833  30.0364083  66.9346993  39.7013833  29.3724083
  63.7646993  46.4843833  20.1294083  64.2036993  45.7873833  20.4174083
  63.9716993  47.1083833  20.7024083  63.8606993  46.4733833  20.2564083
  60.8606993  39.4473833  31.5594083  61.5826993  39.9353833  31.5224083
  60.5906993  39.4173833  30.7304083  60.9276993  39.5153833  31.4314083
  64.0906993  34.6183833  28.2944083  64.9366993  34.4283833  28.3924083
  63.7206993  33.8413833  28.1564083  64.1606993  34.4753833  28.2884083
  58.9116993  35.9563833  24.9494083  59.4006993  35.6643833  25.6104083
  59.0406993  35.3633833  24.3224083  59.0026993  35.8253833  24.9544083
  73.9466993  38.9783833  31.8004083  73.9396993  38.2023833  32.1984083
  73.1056993  39.2123833  31.7934083  73.8216993  38.8983833  31.8584083
  63.4366993  37.3903833  20.4354083  62.8266993  36.9853833  20.9094083
  63.0506993  37.5083833  19.6624083  63.2896993  37.3473833  20.3914083
  60.2556993  40.4993833  35.8374083  59.8346993  39.9813833  35.2764083
  59.9036993  41.2853833  35.6944083  60.1416993  40.5393833  35.7334083
  64.8916993  35.8513833  23.1454083  65.1636993  36.6773833  23.2124083
  64.0286993  35.9263833  23.0494083  64.8046993  35.9843833  23.1404083
  72.8646993  32.9733833  37.7774083  72.3396993  33.4323833  38.3014083
  72.5036993  32.1783833  37.7714083  72.7336993  32.9233833  37.8534083
  58.3716993  31.8213833  29.6814083  58.4156993  32.1653833  28.8804083
  59.1266993  32.0583833  30.0484083  58.4896993  31.9073833  29.6174083
  71.3566993  36.5423833  37.8534083  71.4296993  36.6463833  38.7164083
  70.7226993  37.1003833  37.6324083  71.2736993  36.6403833  37.9484083
  73.6246993  36.8613833  36.2184083  73.9436993  37.6473833  36.4214083
  73.2546993  36.5913833  36.9614083  73.6176993  36.9373833  36.3584083
  72.9386993  43.2853833  21.7484083  73.2726993  42.4793833  21.7834083
  72.1836993  43.2133833  22.1784083  72.8766993  43.1553833  21.8174083
  73.4206993  35.1193833  27.4074083  72.6756993  34.7963833  27.7254083
  73.4226993  35.9453833  27.6874083  73.3106993  35.1933833  27.4954083
  70.3126993  41.1603833  21.1514083  70.9966993  40.6463833  20.9824083
  69.8956993  41.2063833  20.3864083  70.3516993  41.0913833  21.0134083
  64.9946993  42.3103833  32.4554083  64.6966993  42.9023833  33.0224083
  65.0496993  42.7523833  31.7064083  64.9586993  42.4633833  32.4284083
  62.9736993  41.2603833  35.8534083  62.1676993  40.9703833  36.0204083
  62.8846993  42.1283833  35.8594083  62.8416993  41.3453833  35.8784083
  72.3326993  31.4493833  34.8684083  73.0766993  31.9013833  34.8054083
  71.7666993  31.9193833  34.3994083  72.3596993  31.5863833  34.7904083
  67.5106993  38.7333833  31.9464083  67.9866993  39.1073833  32.5744083
  66.6876993  38.8673833  32.2054083  67.4596993  38.8083833  32.0774083
  64.2206993  34.3363833  34.6874083  64.3816993  33.5923833  35.1144083
  64.1756993  34.0873833  33.8524083  64.2376993  34.1893833  34.6274083
  66.7746993  46.1263833  27.1744083  67.3206993  46.8053833  27.2284083
  66.4246993  46.2083833  26.3794083  66.8036993  46.2393833  27.0644083
  73.6176993  29.4293833  32.5384083  73.3376993  30.2543833  32.4944083
  74.3336993  29.4823833  33.0344083  73.6826993  29.5593833  32.6054083
  65.9726993  30.1443833  34.5674083  66.6776993  30.4643833  34.1654083
  66.2136993  29.3373833  34.7944083  66.1116993  30.0723833  34.5414083
  64.9576993  44.3543833  30.5634083  64.3336993  44.9363833  30.3814083
  65.2056993  44.0683833  29.7774083  64.9016993  44.3983833  30.4204083
  69.2666993  40.9883833  37.5524083  70.0236993  41.2743833  37.2264083
  68.7196993  41.0403833  36.8744083  69.2976993  41.0383833  37.4034083
  73.1756993  43.5383833  36.0564083  73.5216993  43.8083833  36.8104083
  73.4696993  44.1203833  35.4764083  73.2706993  43.6643833  36.0824083
  75.0386993  35.6843833  21.3954083  75.4166993  36.3613833  20.9954083
  74.1966993  35.9083833  21.4264083  74.9696993  35.8173833  21.3404083
  66.5516993  39.1303833  20.4784083  65.7466993  38.9533833  20.1934083
  66.5186993  39.9813833  20.6704083  66.4276993  39.2293833  20.4654083
  62.4816993  35.1973833  30.6284083  62.9216993  35.0943833  29.8824083
  63.0266993  34.8843833  31.2334083  62.6266993  35.1363833  30.6074083
  70.4976993  34.2993833  36.2204083  69.8496993  34.7693833  36.5684083
  71.0626993  34.2103833  36.8794083  70.4856993  34.3553833  36.3694083
  70.1856993  35.8363833  32.5184083  70.4876993  36.2563833  33.2214083
  70.2216993  34.9963833  32.7504083  70.2356993  35.7743833  32.6564083
  67.6106993  46.0033833  36.4434083  68.0886993  45.4033833  36.0274083
  67.2596993  45.5603833  37.1084083  67.6296993  45.8493833  36.4804083
  72.7336993  35.2833833  24.7704083  72.9406993  35.0823833  25.5944083
  73.4896993  35.5513833  24.4284083  72.8756993  35.2933833  24.8414083
  66.0286993  30.1823833  30.6754083  65.2026993  30.0333833  30.9124083
  65.9886993  30.2173833  29.8044083  65.9006993  30.1653833  30.5814083
  73.7556993  31.3663833  26.2444083  73.0416993  30.8953833  26.4154083
  73.5936993  31.7073833  25.4584083  73.6266993  31.3473833  26.1534083
  74.1986993  39.3103833  24.6244083  74.6746993  38.5813833  24.5764083
  73.3776993  39.0243833  24.5484083  74.1476993  39.1603833  24.6054083
  67.6696993  41.2223833  35.4634083  66.8746993  41.1583833  35.8144083
  67.7406993  42.0693833  35.2684083  67.5626993  41.3373833  35.4864083
  58.5936993  30.5803833  36.7104083  58.4536993  31.3753833  36.3794083
  57.8076993  30.3373833  36.9994083  58.4566993  30.6623833  36.7044083
  63.4996993  47.4293833  30.7804083  63.5106993  47.4883833  31.6504083
  63.0746993  46.6823833  30.6304083  63.4386993  47.3273833  30.8864083
  61.6576993  33.3243833  23.9354083  61.7836993  32.9953833  23.1374083
  60.8456993  33.0753833  24.1344083  61.5566993  33.2393833  23.8474083
  70.4146993  40.4773833  26.9794083  70.4906993  40.8183833  27.7784083
  70.5836993  39.6303833  27.1004083  70.4506993  40.4023833  27.1154083
  67.9366993  39.7513833  26.5444083  67.6386993  39.4363833  27.3014083
  68.6316993  40.2243833  26.7794083  67.9956993  39.7743833  26.6914083
  68.1586993  43.8693833  34.5714083  68.8456993  43.7553833  35.0964083
  68.2926993  44.6603833  34.2274083  68.2796993  43.9693833  34.5984083
  70.8476993  37.1433833  34.9584083  70.5926993  36.4243833  35.3804083
  71.6686993  37.2593833  35.2284083  70.9316993  37.0543833  35.0604083
  60.2636993  46.9273833  36.2224083  59.6096993  46.3583833  36.3204083
  59.8886993  47.7003833  36.3734083  60.1116993  46.9573833  36.2594083
  68.7816993  38.3333833  38.1454083  69.1046993  39.0193833  37.7134083
  68.0776993  38.6563833  38.5474083  68.7246993  38.4823833  38.1404083
  71.8656993  46.7073833  29.0744083  71.4146993  47.3503833  29.4534083
  72.5736993  46.6283833  29.5794083  71.9036993  46.7903833  29.2054083
  68.5666993  41.7973833  32.0044083  67.8726993  42.1993833  32.3474083
  69.2436993  42.2303833  32.3434083  68.5636993  41.9203833  32.1054083
  73.9436993  44.3903833  38.5844083  74.7196993  44.0003833  38.6674083
  73.4746993  44.0543833  39.2394083  73.9886993  44.2833833  38.6934083
  61.6346993  35.3353833  34.3514083  62.0096993  35.9543833  33.8644083
  62.3086993  34.8613833  34.6364083  61.7896993  35.3573833  34.3214083
  59.4096993  33.7833833  33.6264083  59.4866993  33.6143833  32.7734083
  60.1556993  34.1893833  33.8234083  59.5306993  33.8183833  33.5294083
  74.9686993  36.4233833  24.0664083  75.0716993  36.3653833  23.2024083
  75.7096993  36.0913833  24.3844083  75.0936993  36.3663833  23.9854083
  61.9636993  31.1933833  36.0374083  61.8826993  30.3493833  36.2434083
  61.6496993  31.2373833  35.2244083  61.9056993  31.0753833  35.9474083
  68.8886993  43.3883833  25.1734083  68.6836993  44.2213833  25.0144083
  68.1136993  43.0063833  25.2954083  68.7436993  43.4553833  25.1684083
  74.0706993  36.5693833  33.4224083  74.0686993  35.7063833  33.5464083
  74.1376993  36.8933833  34.2294083  74.0806993  36.4893833  33.5594083
  58.8066993  39.0093833  33.8504083  59.1266993  39.2283833  33.0694083
  58.7066993  38.1443833  33.7954083  58.8386993  38.9143833  33.7274083
  60.2626993  34.9453833  20.4684083  59.5906993  34.9593833  21.0244083
  60.3576993  34.0973833  20.2844083  60.1776993  34.8223833  20.5234083
  69.9496993  31.3693833  37.2044083  70.0416993  32.0813833  37.6984083
  69.3126993  30.9243833  37.6014083  69.8686993  31.4083833  37.3364083
  68.9436993  31.5593833  28.0584083  68.2436993  32.0773833  28.0024083
  68.9816993  31.1793833  27.2744083  68.8456993  31.5803833  27.9344083
  64.2506993  43.6503833  21.5824083  64.6916993  43.7303833  22.3304083
  63.4456993  43.4343833  21.8404083  64.1966993  43.6303833  21.7314083
  72.5416993  32.0753833  30.8584083  73.3966993  32.1743833  31.0034083
  72.1726993  32.6283833  31.4234083  72.6136993  32.1723833  30.9634083
  63.5696993  38.3013833  35.2354083  63.1736993  39.0753833  35.3104083
  63.1636993  37.9283833  34.5594083  63.4516993  38.3603833  35.1464083
  72.8456993  37.3553833  29.3494083  73.5116993  37.8963833  29.5094083
  72.5006993  37.6663833  28.6104083  72.8926993  37.4813833  29.2644083
  73.1586993  45.4213833  25.1564083  72.9846993  44.7673833  25.7064083
  73.8716993  45.1503833  24.7334083  73.2386993  45.2843833  25.1754083
  61.5796993  42.7203833  22.1834083  61.3356993  42.4133833  22.9634083
  61.5466993  42.0173833  21.6674083  61.5386993  42.5713833  22.2224083
  64.3986993  40.9653833  20.9264083  63.5806993  40.6973833  21.0664083
  64.3706993  41.8173833  21.1114083  64.2736993  41.0523833  20.9744083
  63.9986993  31.2783833  32.6854083  63.1346993  31.3623833  32.7654083
  64.2186993  30.7643833  33.3544083  63.9036993  31.2153833  32.7964083
  68.1016993  32.0263833  31.0594083  67.3646993  31.5723833  31.1724083
  68.6726993  31.6243833  31.5824083  68.0766993  31.8993833  31.1534083
  70.8336993  42.8743833  32.8474083  71.0396993  43.1753833  33.6394083
  70.7726993  43.5963833  32.3624083  70.8546993  43.0253833  32.8924083
  70.3676993  47.0883833  37.0934083  69.6146993  47.0703833  36.6524083
  70.5356993  47.9403833  37.1774083  70.2816993  47.2113833  37.0404083
  65.6046993  36.3553833  36.2634083  65.2826993  35.7793833  35.6934083
  65.2456993  37.1103833  36.0174083  65.5046993  36.3813833  36.1434083
  66.4006993  29.6073833  20.8904083  66.4786993  29.8543833  20.0574083
  65.6576993  29.9843833  21.1484083  66.3026993  29.6993833  20.8054083
  75.6456993  41.5133833  32.3054083  75.6136993  40.6513833  32.1704083
  74.9526993  41.8153833  31.8714083  75.5386993  41.4303833  32.2214083
  64.0396993  46.7113833  36.5114083  64.0806993  46.8373833  37.3744083
  64.6906993  46.1513833  36.3554083  64.1416993  46.6473833  36.6164083
  73.7506993  44.7733833  31.1024083  74.2776993  44.6903833  30.4114083
  73.3596993  43.9953833  31.1564083  73.7706993  44.6463833  31.0084083
  61.2186993  31.3613833  33.3334083  60.8756993  30.5943833  33.0994083
  60.5236993  31.8853833  33.3974083  61.0656993  31.3253833  33.3084083
  70.2646993  30.2173833  30.3104083  70.9346993  30.7613833  30.4374083
  69.7616993  30.6413833  29.7374083  70.2896993  30.3603833  30.2444083
  61.6326993  45.0943833  37.8714083  62.2276993  45.5253833  38.3434083
  61.2686993  45.7183833  37.3824083  61.6666993  45.2503833  37.8684083
  69.6236993  36.0253833  27.8034083  70.1746993  35.4183833  28.1034083
  69.1986993  36.2883833  28.5184083  69.6426993  35.9743833  27.9524083
  59.8716993  34.6753833  27.2894083  59.5036993  34.9773833  28.0204083
  60.4056993  34.0463833  27.5734083  59.8956993  34.6273833  27.4394083
  59.5596993  43.0833833  34.8004083  58.9856993  43.4993833  35.3094083
  60.2926993  43.5483833  34.8954083  59.5836993  43.2133833  34.8894083
  71.5936993  37.8563833  24.3654083  71.6616993  37.0063833  24.5464083
  70.7706993  37.9423833  24.0874083  71.4816993  37.7433833  24.3514083
  61.3456993  46.3503833  23.5754083  61.2006993  46.5063833  22.7294083
  62.2116993  46.4293833  23.6534083  61.4526993  46.3853833  23.4624083
  65.5126993  38.7473833  23.3034083  65.6126993  38.8863833  22.4484083
  66.3306993  38.6873833  23.5994083  65.6476993  38.7583833  23.2204083
  74.6726993  46.8113833  20.7834083  75.3096993  46.6773833  21.3644083
  74.3316993  46.0173833  20.6664083  74.7166993  46.6743833  20.8514083
  74.8676993  39.2293833  37.5164083  75.5016993  39.0593833  38.0904083
  75.2846993  39.6323833  36.8644083  75.0226993  39.2643833  37.5054083
  70.7476993  43.0763833  23.1054083  70.4966993  42.9483833  23.9314083
  70.4306993  42.3813833  22.6844083  70.6636993  42.9553833  23.1654083
  75.4926993  33.7933833  38.2544083  75.2966993  34.4373833  38.8094083
  74.7706993  33.3033833  38.2464083  75.3576993  33.8163833  38.3354083
  75.3916993  34.7343833  31.2254083  74.5586993  34.9843833  31.1534083
  75.3356993  33.8943833  31.4544083  75.2606993  34.6473833  31.2484083
  64.6516993  31.7223833  36.4194083  64.8856993  31.1463833  35.8064083
  63.8096993  31.5413833  36.5604083  64.5616993  31.6103833  36.3494083
  72.2786993  39.3403833  38.8714083  73.1496993  39.3043833  38.8354083
  72.0596993  39.7603833  38.1394083  72.3756993  39.3963833  38.7584083
  62.0326993  45.1653833  30.0524083  61.9536993  44.3553833  29.7364083
  61.5886993  45.6523833  29.4804083  61.9556993  45.1173833  29.9214083
  67.6336993  41.2843833  22.5354083  68.3506993  40.9373833  22.1794083
  67.5996993  42.0843833  22.1874083  67.7346993  41.3513833  22.4314083
  59.6046993  47.4093833  33.6334083  60.0976993  47.3533833  34.3514083
  59.7926993  46.6763833  33.1984083  59.7056993  47.2923833  33.6754083
  69.0426993  29.9253833   6.7741673  68.7976993  30.4133833   6.0941673
  69.9056993  29.8523833   6.6741673  69.1336993  29.9863833   6.6591673
  68.8516993  36.8413833  11.4451673  68.3276993  37.4373833  11.8081673
  69.2486993  36.4733833  12.1291673  68.8326993  36.8753833  11.6001673
  58.7206993  40.9813833   6.9011673  58.2796993  41.0993833   7.6441673
  58.4376993  40.2063833   6.6161673  58.6136993  40.8843833   6.9691673
  74.9956993  44.2823833   4.4161673  75.6966993  43.7633833   4.4121673
  74.4086993  43.8373833   3.9471673  75.0126993  44.1393833   4.3461673
  58.4636993  34.7733833   3.4081673  57.6856993  34.9353833   3.0481673
  58.5026993  33.9023833   3.4301673  58.3546993  34.6683833   3.3581673
  61.6026993  40.0363833   2.0801673  61.2106993  39.6653833   1.3941673
  61.5226993  39.4383833   2.7091673  61.5326993  39.8933833   2.0711673
  71.5226993  37.9083833   8.1211673  71.6026993  37.9123833   7.2521673
  70.9386993  37.2763833   8.2701673  71.4476993  37.8153833   8.0151673
  61.2296993  41.6773833   5.9801673  61.8376993  41.5073833   6.5831673
  60.4786993  41.5373833   6.4011673  61.2086993  41.6313833   6.1311673
  65.5116993  31.0123833   5.9291673  65.4416993  31.6893833   5.3831673
  66.2526993  30.6243833   5.6801673  65.6106993  31.0553833   5.8111673
  60.1206993  44.7683833   2.0571673  60.5876993  44.8523833   1.3251673
  60.5756993  44.1903833   2.5261673  60.2566993  44.6953833   2.0181673
  58.6606993  43.7163833  13.1561673  58.7896993  43.4363833  13.9721673
  58.0506993  43.1753833  12.8471673  58.5896993  43.5953833  13.2311673
  65.2346993  41.2413833  18.2231673  64.9986993  41.2383833  19.0631673
  64.4866993  41.0933833  17.7991673  65.0886993  41.2183833  18.2841673
  60.1066993  38.2373833   7.3581673  59.6446993  37.8453833   6.7311673
  60.8066993  37.7243833   7.4501673  60.1416993  38.1043833   7.2791673
  64.6146993  33.8473833  12.7051673  65.2926993  33.8653833  12.1561673
  64.5696993  33.0113833  12.9501673  64.7076993  33.7263833  12.6601673
  65.2166993  44.4333833  15.4861673  65.3546993  45.1933833  15.0791673
  66.0076993  44.0683833  15.5131673  65.3536993  44.4923833  15.4301673
  62.1076993  36.3373833   7.3811673  62.9246993  36.1503833   7.6241673
  61.6306993  35.7233833   7.7771673  62.1576993  36.2193833   7.4761673
  66.3116993  42.3183833   9.9911673  66.6596993  41.5193833  10.0211673
  66.9766993  42.8223833   9.7361673  66.4616993  42.2743833   9.9581673
  66.3686993  41.7673833   6.2021673  66.6996993  41.1233833   6.6881673
  66.6086993  41.5563833   5.3911673  66.4526993  41.6413833   6.1541673
  68.3366993  35.8983833  17.5411673  67.4886993  35.7993833  17.3631673
  68.3656993  36.6433833  17.9951673  68.2156993  35.9943833  17.5821673
  62.7046993  31.4313833   6.6471673  62.4086993  31.9323833   5.9971673
  63.5716993  31.5093833   6.5901673  62.7886993  31.5173833   6.5431673
  72.8946993  28.8583833  16.6551673  72.7366993  29.6273833  16.2731673
  72.1226993  28.6383833  16.9991673  72.7566993  28.9393833  16.6501673
  65.6836993  30.5733833   8.8701673  65.7566993  31.4333833   8.9991673
  65.6456993  30.4983833   8.0021673  65.6886993  30.6893833   8.7611673
  58.5626993  35.9983833  10.3711673  58.3066993  36.8293833  10.2961673
  57.8986993  35.6153833  10.7881673  58.4266993  36.0643833  10.4221673
  58.4726993  45.7083833   8.2711673  57.8806993  46.2663833   7.9581673
  58.8986993  45.4393833   7.5591673  58.4486993  45.7503833   8.1201673
  64.3126993  43.5523833   5.7511673  63.7336993  43.2773833   6.3431673
  64.9366993  42.9433833   5.7761673  64.3196993  43.4223833   5.8421673
  70.4556993  45.8403833   3.2731673  71.1826993  46.3123833   3.3751673
  70.6846993  45.0463833   3.5531673  70.5976993  45.7933833   3.3301673
  68.6236993  46.2323833   5.2631673  68.8376993  46.7593833   5.9251673
  69.3906993  46.0583833   4.8841673  68.7686993  46.2843833   5.3051673
  61.5916993  30.8153833  10.8621673  61.0706993  30.1873833  10.5541673
  62.1826993  30.3783833  11.3331673  61.6026993  30.6573833  10.8861673
  64.8976993  32.9483833  20.1601673  65.0146993  32.4943833  19.4241673
  65.1856993  33.7463833  19.9571673  64.9576993  32.9993833  20.0211673
  60.0176993  44.3783833   6.2021673  60.6736993  43.8033833   6.2171673
  60.4066993  45.1273833   5.9811673  60.1726993  44.4033833   6.1721673
  75.7506993  33.4723833   7.4641673  75.4046993  34.1503833   7.8901673
  75.1146993  32.8743833   7.4801673  75.6056993  33.4843833   7.5291673
  71.0626993  46.2423833  13.5681673  71.8066993  46.6983833  13.5581673
  70.9416993  46.0283833  12.7311673  71.1546993  46.2783833  13.4431673
  60.6306993  32.5453833  19.1441673  59.8526993  32.1553833  19.0721673
  61.1216993  32.1333833  18.5531673  60.5876993  32.4263833  19.0461673
  60.8356993  42.8653833   9.7021673  61.2586993  42.5093833   9.0281673
  61.1596993  42.4433833  10.3941673  60.9456993  42.7503833   9.7051673
  64.0666993  45.7173833   8.9981673  64.9106993  45.8213833   8.8031673
  63.7696993  46.5353833   9.0661673  64.1476993  45.8533833   8.9791673
  67.2796993  30.1883833  18.3121673  67.4576993  29.3793833  18.0371673
  67.1366993  30.6293833  17.5731673  67.2846993  30.1343833  18.1621673
  67.8736993  35.1143833   7.0851673  68.1606993  34.8823833   6.2951673
  68.6056993  35.1933833   7.5541673  68.0236993  35.0913833   7.0381673
  68.5956993  35.4533833   2.2061673  68.8766993  36.2413833   2.4551673
  67.8196993  35.6183833   1.8431673  68.5226993  35.5943833   2.1891673
  72.6366993  47.4273833   3.6731673  73.3016993  47.2793833   3.1281673
  72.9966993  47.3443833   4.4631673  72.7886993  47.3933833   3.7091673
  63.0646993  46.9363833  14.7381673  63.3566993  46.8693833  15.5581673
  62.4386993  46.3313833  14.6931673  63.0156993  46.8373833  14.8531673
  57.9786993  33.0933833  16.7301673  57.9746993  33.6803833  17.3761673
  58.5726993  33.4053833  16.1731673  58.0656993  33.2263833  16.7431673
  70.3166993  43.4273833  17.2721673  70.2826993  43.8093833  18.0561673
  71.1706993  43.3853833  17.1011673  70.4376993  43.4773833  17.3631673
  67.4546993  43.6243833   2.0221673  67.2736993  44.1693833   2.6791673
  68.2206993  43.9143833   1.7211673  67.5406993  43.7483833   2.0751673
  70.9616993  31.5203833   3.0761673  71.5016993  30.8383833   3.1521673
  71.0236993  31.9183833   3.8501673  71.0506993  31.4783833   3.2021673
  58.9156993  32.6883833   5.6451673  58.8016993  31.8243833   5.6761673
  58.4406993  32.9823833   6.3151673  58.8286993  32.6043833   5.7481673
  61.0576993  45.0983833  13.8601673  60.3596993  44.5903833  13.9861673
  61.3176993  44.8933833  13.0521673  60.9926993  44.9933833  13.7591673
  68.2196993  33.8963833   4.3901673  67.7116993  33.2343833   4.1361673
  68.2716993  34.4003833   3.6801673  68.1526993  33.8733833   4.2481673
  68.7686993  46.5913833  14.7701673  69.5366993  46.5113833  14.3641673
  68.1856993  46.4703833  14.1321673  68.7956993  46.5613833  14.6161673
  68.2196993  30.8373833   4.2811673  67.7646993  30.4353833   3.6551673
  68.9926993  30.9923833   3.9061673  68.2666993  30.8013833   4.1331673
  75.0456993  47.1943833   7.6711673  74.5906993  47.9113833   7.8721673
  74.4316993  46.6233833   7.4291673  74.8876993  47.2163833   7.6651673
  66.8176993  33.2043833   8.8031673  66.8916993  33.7723833   8.1451673
  66.9386993  33.6963833   9.5131673  66.8456993  33.3613833   8.8111673
  72.0426993  43.0393833   7.2151673  72.7436993  42.5573833   7.4041673
  71.3826993  42.4703833   7.2601673  72.0486993  42.8843833   7.2491673
  62.4186993  43.9493833  16.4271673  63.2596993  44.0123833  16.2051673
  62.3816993  44.3463833  17.2031673  62.5376993  44.0173833  16.5091673
  61.4256993  29.0273833   7.1511673  61.9616993  29.7153833   7.1411673
  61.4286993  28.7533833   6.3231673  61.5046993  29.0883833   7.0271673
  64.3816993  39.4603833  11.1761673  64.5536993  39.2503833  12.0051673
  63.7266993  38.9263833  10.9601673  64.3106993  39.3503833  11.2671673
  70.6096993  33.3743833  14.6911673  70.5146993  33.6933833  15.4971673
  70.0166993  32.7353833  14.6531673  70.5076993  33.3263833  14.8051673
  65.1316993  39.3983833  13.7661673  65.1846993  40.2453833  13.9681673
  64.8466993  39.0283833  14.5031673  65.0976993  39.4683833  13.9041673
  71.3086993  40.0933833  12.8961673  70.7946993  39.6813833  13.4671673
  71.1826993  40.9373833  13.0771673  71.2146993  40.1573833  13.0071673
  71.8656993  29.3183833   7.5271673  71.9146993  29.0003833   8.3381673
  72.1886993  28.6743833   7.0341673  71.9206993  29.1763833   7.5741673
  57.9526993  43.7693833  19.9771673  58.7086993  44.1183833  20.2351673
  58.1296993  42.9163833  19.9201673  58.0906993  43.6943833  20.0071673
  74.3296993  33.5543833  15.8351673  75.1016993  33.3293833  16.1721673
  73.8546993  33.7713833  16.5351673  74.3736993  33.5533833  15.9881673
  61.8736993  32.8373833   8.8051673  62.1456993  32.4073833   8.0971673
  61.6976993  32.2013833   9.3761673  61.8876993  32.6803833   8.7851673
  74.5616993  40.5323833   3.0231673  74.6806993  40.2453833   3.8381673
  75.3686993  40.5533833   2.6931673  74.6976993  40.4933833   3.0951673
  61.6976993  40.2643833   8.3541673  62.5486993  40.1843833   8.1811673
  61.3406993  39.5823833   7.9421673  61.7706993  40.1513833   8.2671673
  60.4646993  46.9893833   9.5911673  59.7916993  46.4913833   9.3461673
  60.8676993  47.1743833   8.8401673  60.4246993  46.9433833   9.4441673
  60.0146993  33.9393833  11.8871673  60.8576993  34.1593833  11.8441673
  59.6256993  34.5123833  11.3561673  60.0816993  34.0563833  11.8021673
  72.4566993  37.0693833   2.6081673  72.2366993  37.8003833   2.1861673
  72.0086993  37.1203833   3.3551673  72.3576993  37.1843833   2.6561673
  64.0656993  40.2713833   6.5891673  64.7786993  40.7663833   6.6791673
  64.2876993  39.7043833   5.9631673  64.2036993  40.2603833   6.5101673
  58.2216993  41.9143833   9.9091673  57.5546993  42.4023833  10.1851673
  58.9016993  42.4593833   9.9381673  58.2236993  42.0663833   9.9541673
  65.8686993  35.6243833  20.0051673  65.3846993  36.2013833  20.4471673
  65.8406993  35.9193833  19.1841673  65.7926993  35.7533833  19.9491673
  58.2876993  38.5983833   5.0121673  58.1026993  37.7593833   5.1641673
  58.9466993  38.5623833   4.4421673  58.3576993  38.4693833   4.9501673
  74.6456993  31.4883833   4.3401673  75.3916993  31.0813833   4.5391673
  74.9086993  32.2033833   3.9151673  74.7946993  31.5343833   4.3071673
  68.5886993  43.9743833   8.9161673  68.0656993  44.6083833   8.6231673
  68.8986993  43.6103833   8.1871673  68.5566993  44.0143833   8.7651673
  58.4596993  42.7623833   4.5871673  59.0116993  43.3313833   4.9511673
  58.2276993  42.2473833   5.2521673  58.5066993  42.7703833   4.7391673
  62.6636993  41.7623833  11.6761673  63.1306993  42.0513833  12.3541673
  63.2356993  41.2843833  11.2221673  62.8176993  41.7343833  11.7091673
  71.0996993  33.7763833   9.4131673  71.4436993  33.9283833  10.2001673
  70.6466993  33.0383833   9.5261673  71.0836993  33.6893833   9.5461673
  58.2896993  41.2113833   2.2151673  59.0456993  40.7793833   2.2731673
  58.3046993  41.7433833   2.9061673  58.4036993  41.2263833   2.3261673
  59.2296993  39.4323833  10.2201673  59.6606993  39.3033833   9.4731673
  59.0246993  40.2803833  10.1941673  59.2626993  39.5383833  10.1061673
  65.5756993  32.9963833   3.8701673  65.5736993  32.8793833   3.0051673
  65.3946993  33.8443833   3.9621673  65.5486993  33.1043833   3.7561673
  74.6296993  45.4233833  15.3671673  73.9586993  45.9373833  15.5851673
  74.6926993  45.5233833  14.5031673  74.5396993  45.5143833  15.2721673
  63.3136993  42.9483833   8.5021673  63.4396993  43.7913833   8.6891673
  63.9816993  42.5493833   8.8981673  63.4316993  43.0143833   8.5881673
  61.4436993  36.4313833  18.3641673  60.9076993  35.9253833  18.8321673
  61.4636993  36.0413833  17.5841673  61.3666993  36.2983833  18.3181673
  61.9286993  35.8283833   3.5041673  61.8006993  35.3803833   4.2421673
  61.3466993  35.4863833   2.9521673  61.8236993  35.7113833   3.5321673
  62.0956993  37.6583833  10.1031673  61.3146993  37.5993833   9.7201673
  62.1676993  36.9063833  10.5401673  61.9906993  37.5393833  10.1111673
  62.5256993  37.3953833  13.5711673  62.5506993  36.7203833  13.0201673
  61.8796993  37.8913833  13.2591673  62.4346993  37.3683833  13.4441673
  72.4206993  35.1083833  11.9671673  71.7586993  35.4363833  12.4301673
  72.6076993  35.7423833  11.3981673  72.3506993  35.2503833  11.9511673
  66.6256993  46.1723833  12.9631673  66.3486993  45.5313833  12.4401673
  66.4176993  46.8983833  12.5251673  66.5546993  46.1853833  12.8211673
  69.0656993  31.0143833  15.3961673  69.2146993  30.1893833  15.1531673
  69.4446993  31.0693833  16.1801673  69.1436993  30.9003833  15.4761673
  70.6136993  33.0773833   5.4781673  71.1036993  33.7943833   5.4011673
  69.8236993  33.3383833   5.2151673  70.5696993  33.2213833   5.4281673
  60.3246993  38.7503833  19.1301673  60.2876993  39.2513833  18.4161673
  60.6556993  37.9983833  18.8351673  60.3676993  38.7123833  18.9811673
  71.9276993  40.9553833  17.3881673  72.4116993  41.6733833  17.4861673
  72.3216993  40.5283833  16.7371673  72.0576993  40.9983833  17.3061673
  66.2236993  43.8003833  18.5651673  66.5776993  43.6223833  19.3421673
  65.7876993  43.0713833  18.3661673  66.2116993  43.6663833  18.6511673
  67.1956993  34.5473833  11.2031673  67.6756993  35.2463833  11.4111673
  67.5686993  33.9003833  11.6541673  67.3216993  34.5553833  11.3001673
  69.3846993  37.7163833   3.4771673  69.3766993  38.4383833   2.9871673
  68.7456993  37.8513833   4.0541673  69.2896993  37.8433833   3.4901673
  74.3566993  41.5863833   7.4581673  74.7126993  41.2363833   8.1731673
  74.3486993  40.9253833   6.8881673  74.4086993  41.4363833   7.4791673
  70.4016993  44.6523833  11.3021673  69.7986993  44.3563833  10.7451673
  70.9466993  45.1043833  10.7931673  70.3926993  44.6753833  11.1441673
  70.4146993  41.5033833  10.7021673  69.6176993  41.7273833  10.9761673
  70.6726993  40.9093833  11.2871673  70.3346993  41.4483833  10.8291673
  64.3066993  46.3153833   5.1501673  64.1596993  45.5393833   5.5211673
  64.9956993  46.1683833   4.6351673  64.3866993  46.1783833   5.1291673
  63.9776993  30.0583833   3.1381673  64.0746993  29.9513833   3.9991673
  63.2696993  30.5643833   3.0731673  63.8876993  30.1173833   3.2561673
  66.5986993  45.8313833   3.5521673  67.2206993  45.9943833   4.1421673
  66.6346993  46.5223833   3.0201673  66.6956993  45.9573833   3.5611673
  73.6746993  39.5013833  15.5481673  73.7296993  39.6263833  14.6861673
  74.4276993  39.8213833  15.8501673  73.7936993  39.5663833  15.4651673
  69.8656993  44.8503833  19.8251673  70.0296993  45.1333833  20.6341673
  70.1286993  45.5113833  19.3201673  69.9286993  44.9903833  19.8701673
  74.7066993  29.7993833  18.5351673  74.0696993  29.3993833  18.0931673
  74.7326993  29.3683833  19.2931673  74.6166993  29.6773833  18.5811673
  61.0996993  38.3653833   4.3811673  61.4236993  37.5863833   4.1591673
  61.7456993  38.7333833   4.8361673  61.2426993  38.3043833   4.4151673
  69.4056993  39.3073833  15.1481673  69.2506993  39.9173833  15.7521673
  69.9396993  38.7493833  15.5541673  69.4616993  39.3153833  15.2971673
  58.0966993  30.0263833   5.3491673  58.2256993  29.3183833   4.8571673
  57.7296993  29.7083833   6.0741673  58.0616993  29.8743833   5.3841673
  67.7896993  37.7073833   5.8061673  67.8486993  38.3573833   6.3851673
  67.6006993  37.0113833   6.2971673  67.7706993  37.7003833   5.9641673
  73.0156993  42.0363833  11.6751673  72.5366993  42.3343833  11.0091673
  72.6596993  41.2603833  11.8531673  72.8926993  41.9653833  11.6031673
  62.2856993  32.2243833   2.3181673  61.7746993  32.2773833   1.6121673
  63.0696993  32.4643833   2.0221673  62.3256993  32.2673833   2.1701673
  67.0126993  39.7543833  10.2371673  66.1656993  39.5603833  10.3181673
  67.3366993  39.5893833  11.0301673  66.9346993  39.7013833  10.3661673
  60.8606993  39.4473833  12.5531673  61.5826993  39.9353833  12.5161673
  60.5906993  39.4173833  11.7241673  60.9276993  39.5153833  12.4251673
  64.0906993  34.6183833   9.2881673  64.9366993  34.4283833   9.3861673
  63.7206993  33.8413833   9.1501673  64.1606993  34.4753833   9.2821673
  58.9116993  35.9563833   5.9431673  59.4006993  35.6643833   6.6041673
  59.0406993  35.3633833   5.3161673  59.0026993  35.8253833   5.9481673
  73.9466993  38.9783833  12.7941673  73.9396993  38.2023833  13.1921673
  73.1056993  39.2123833  12.7871673  73.8216993  38.8983833  12.8521673
  60.2556993  40.4993833  16.8311673  59.8346993  39.9813833  16.2701673
  59.9036993  41.2853833  16.6881673  60.1416993  40.5393833  16.7271673
  64.8916993  35.8513833   4.1391673  65.1636993  36.6773833   4.2061673
  64.0286993  35.9263833   4.0431673  64.8046993  35.9843833   4.1341673
  72.8646993  32.9733833  18.7711673  72.3396993  33.4323833  19.2951673
  72.5036993  32.1783833  18.7651673  72.7336993  32.9233833  18.8471673
  58.3716993  31.8213833  10.6751673  58.4156993  32.1653833   9.8741673
  59.1266993  32.0583833  11.0421673  58.4896993  31.9073833  10.6111673
  71.3566993  36.5423833  18.8471673  71.4296993  36.6463833  19.7101673
  70.7226993  37.1003833  18.6261673  71.2736993  36.6403833  18.9421673
  73.6246993  36.8613833  17.2121673  73.9436993  37.6473833  17.4151673
  73.2546993  36.5913833  17.9551673  73.6176993  36.9373833  17.3521673
  72.9386993  43.2853833   2.7421673  73.2726993  42.4793833   2.7771673
  72.1836993  43.2133833   3.1721673  72.8766993  43.1553833   2.8111673
  73.4206993  35.1193833   8.4011673  72.6756993  34.7963833   8.7191673
  73.4226993  35.9453833   8.6811673  73.3106993  35.1933833   8.4891673
  70.3126993  41.1603833   2.1451673  70.9966993  40.6463833   1.9761673
  69.8956993  41.2063833   1.3801673  70.3516993  41.0913833   2.0071673
  64.9946993  42.3103833  13.4491673  64.6966993  42.9023833  14.0161673
  65.0496993  42.7523833  12.7001673  64.9586993  42.4633833  13.4221673
  62.9736993  41.2603833  16.8471673  62.1676993  40.9703833  17.0141673
  62.8846993  42.1283833  16.8531673  62.8416993  41.3453833  16.8721673
  72.3326993  31.4493833  15.8621673  73.0766993  31.9013833  15.7991673
  71.7666993  31.9193833  15.3931673  72.3596993  31.5863833  15.7841673
  67.5106993  38.7333833  12.9401673  67.9866993  39.1073833  13.5681673
  66.6876993  38.8673833  13.1991673  67.4596993  38.8083833  13.0711673
  64.2206993  34.3363833  15.6811673  64.3816993  33.5923833  16.1081673
  64.1756993  34.0873833  14.8461673  64.2376993  34.1893833  15.6211673
  66.7746993  46.1263833   8.1681673  67.3206993  46.8053833   8.2221673
  66.4246993  46.2083833   7.3731673  66.8036993  46.2393833   8.0581673
  73.6176993  29.4293833  13.5321673  73.3376993  30.2543833  13.4881673
  74.3336993  29.4823833  14.0281673  73.6826993  29.5593833  13.5991673
  65.9726993  30.1443833  15.5611673  66.6776993  30.4643833  15.1591673
  66.2136993  29.3373833  15.7881673  66.1116993  30.0723833  15.5351673
  64.9576993  44.3543833  11.5571673  64.3336993  44.9363833  11.3751673
  65.2056993  44.0683833  10.7711673  64.9016993  44.3983833  11.4141673
  69.2666993  40.9883833  18.5461673  70.0236993  41.2743833  18.2201673
  68.7196993  41.0403833  17.8681673  69.2976993  41.0383833  18.3971673
  73.1756993  43.5383833  17.0501673  73.5216993  43.8083833  17.8041673
  73.4696993  44.1203833  16.4701673  73.2706993  43.6643833  17.0761673
  75.0386993  35.6843833   2.3891673  75.4166993  36.3613833   1.9891673
  74.1966993  35.9083833   2.4201673  74.9696993  35.8173833   2.3341673
  62.4816993  35.1973833  11.6221673  62.9216993  35.0943833  10.8761673
  63.0266993  34.8843833  12.2271673  62.6266993  35.1363833  11.6011673
  70.4976993  34.2993833  17.2141673  69.8496993  34.7693833  17.5621673
  71.0626993  34.2103833  17.8731673  70.4856993  34.3553833  17.3631673
  70.1856993  35.8363833  13.5121673  70.4876993  36.2563833  14.2151673
  70.2216993  34.9963833  13.7441673  70.2356993  35.7743833  13.6501673
  67.6106993  46.0033833  17.4371673  68.0886993  45.4033833  17.0211673
  67.2596993  45.5603833  18.1021673  67.6296993  45.8493833  17.4741673
  72.7336993  35.2833833   5.7641673  72.9406993  35.0823833   6.5881673
  73.4896993  35.5513833   5.4221673  72.8756993  35.2933833   5.8351673
  66.0286993  30.1823833  11.6691673  65.2026993  30.0333833  11.9061673
  65.9886993  30.2173833  10.7981673  65.9006993  30.1653833  11.5751673
  73.7556993  31.3663833   7.2381673  73.0416993  30.8953833   7.4091673
  73.5936993  31.7073833   6.4521673  73.6266993  31.3473833   7.1471673
  74.1986993  39.3103833   5.6181673  74.6746993  38.5813833   5.5701673
  73.3776993  39.0243833   5.5421673  74.1476993  39.1603833   5.5991673
  67.6696993  41.2223833  16.4571673  66.8746993  41.1583833  16.8081673
  67.7406993  42.0693833  16.2621673  67.5626993  41.3373833  16.4801673
  58.5936993  30.5803833  17.7041673  58.4536993  31.3753833  17.3731673
  57.8076993  30.3373833  17.9931673  58.4566993  30.6623833  17.6981673
  63.4996993  47.4293833  11.7741673  63.5106993  47.4883833  12.6441673
  63.0746993  46.6823833  11.6241673  63.4386993  47.3273833  11.8801673
  61.6576993  33.3243833   4.9291673  61.7836993  32.9953833   4.1311673
  60.8456993  33.0753833   5.1281673  61.5566993  33.2393833   4.8411673
  70.4146993  40.4773833   7.9731673  70.4906993  40.8183833   8.7721673
  70.5836993  39.6303833   8.0941673  70.4506993  40.4023833   8.1091673
  67.9366993  39.7513833   7.5381673  67.6386993  39.4363833   8.2951673
  68.6316993  40.2243833   7.7731673  67.9956993  39.7743833   7.6851673
  68.1586993  43.8693833  15.5651673  68.8456993  43.7553833  16.0901673
  68.2926993  44.6603833  15.2211673  68.2796993  43.9693833  15.5921673
  70.8476993  37.1433833  15.9521673  70.5926993  36.4243833  16.3741673
  71.6686993  37.2593833  16.2221673  70.9316993  37.0543833  16.0541673
  60.2636993  46.9273833  17.2161673  59.6096993  46.3583833  17.3141673
  59.8886993  47.7003833  17.3671673  60.1116993  46.9573833  17.2531673
  68.7816993  38.3333833  19.1391673  69.1046993  39.0193833  18.7071673
  68.0776993  38.6563833  19.5411673  68.7246993  38.4823833  19.1341673
  71.8656993  46.7073833  10.0681673  71.4146993  47.3503833  10.4471673
  72.5736993  46.6283833  10.5731673  71.9036993  46.7903833  10.1991673
  68.5666993  41.7973833  12.9981673  67.8726993  42.1993833  13.3411673
  69.2436993  42.2303833  13.3371673  68.5636993  41.9203833  13.0991673
  73.9436993  44.3903833  19.5781673  74.7196993  44.0003833  19.6611673
  73.4746993  44.0543833  20.2331673  73.9886993  44.2833833  19.6871673
  61.6346993  35.3353833  15.3451673  62.0096993  35.9543833  14.8581673
  62.3086993  34.8613833  15.6301673  61.7896993  35.3573833  15.3151673
  59.4096993  33.7833833  14.6201673  59.4866993  33.6143833  13.7671673
  60.1556993  34.1893833  14.8171673  59.5306993  33.8183833  14.5231673
  74.9686993  36.4233833   5.0601673  75.0716993  36.3653833   4.1961673
  75.7096993  36.0913833   5.3781673  75.0936993  36.3663833   4.9791673
  61.9636993  31.1933833  17.0311673  61.8826993  30.3493833  17.2371673
  61.6496993  31.2373833  16.2181673  61.9056993  31.0753833  16.9411673
  68.8886993  43.3883833   6.1671673  68.6836993  44.2213833   6.0081673
  68.1136993  43.0063833   6.2891673  68.7436993  43.4553833   6.1621673
  74.0706993  36.5693833  14.4161673  74.0686993  35.7063833  14.5401673
  74.1376993  36.8933833  15.2231673  74.0806993  36.4893833  14.5531673
  58.8066993  39.0093833  14.8441673  59.1266993  39.2283833  14.0631673
  58.7066993  38.1443833  14.7891673  58.8386993  38.9143833  14.7211673
  69.9496993  31.3693833  18.1981673  70.0416993  32.0813833  18.6921673
  69.3126993  30.9243833  18.5951673  69.8686993  31.4083833  18.3301673
  68.9436993  31.5593833   9.0521673  68.2436993  32.0773833   8.9961673
  68.9816993  31.1793833   8.2681673  68.8456993  31.5803833   8.9281673
  64.2506993  43.6503833   2.5761673  64.6916993  43.7303833   3.3241673
  63.4456993  43.4343833   2.8341673  64.1966993  43.6303833   2.7251673
  72.5416993  32.0753833  11.8521673  73.3966993  32.1743833  11.9971673
  72.1726993  32.6283833  12.4171673  72.6136993  32.1723833  11.9571673
  63.5696993  38.3013833  16.2291673  63.1736993  39.0753833  16.3041673
  63.1636993  37.9283833  15.5531673  63.4516993  38.3603833  16.1401673
  72.8456993  37.3553833  10.3431673  73.5116993  37.8963833  10.5031673
  72.5006993  37.6663833   9.6041673  72.8926993  37.4813833  10.2581673
  73.1586993  45.4213833   6.1501673  72.9846993  44.7673833   6.7001673
  73.8716993  45.1503833   5.7271673  73.2386993  45.2843833   6.1691673
  61.5796993  42.7203833   3.1771673  61.3356993  42.4133833   3.9571673
  61.5466993  42.0173833   2.6611673  61.5386993  42.5713833   3.2161673
  64.3986993  40.9653833   1.9201673  63.5806993  40.6973833   2.0601673
  64.3706993  41.8173833   2.1051673  64.2736993  41.0523833   1.9681673
  63.9986993  31.2783833  13.6791673  63.1346993  31.3623833  13.7591673
  64.2186993  30.7643833  14.3481673  63.9036993  31.2153833  13.7901673
  68.1016993  32.0263833  12.0531673  67.3646993  31.5723833  12.1661673
  68.6726993  31.6243833  12.5761673  68.0766993  31.8993833  12.1471673
  70.8336993  42.8743833  13.8411673  71.0396993  43.1753833  14.6331673
  70.7726993  43.5963833  13.3561673  70.8546993  43.0253833  13.8861673
  70.3676993  47.0883833  18.0871673  69.6146993  47.0703833  17.6461673
  70.5356993  47.9403833  18.1711673  70.2816993  47.2113833  18.0341673
  65.6046993  36.3553833  17.2571673  65.2826993  35.7793833  16.6871673
  65.2456993  37.1103833  17.0111673  65.5046993  36.3813833  17.1371673
  75.6456993  41.5133833  13.2991673  75.6136993  40.6513833  13.1641673
  74.9526993  41.8153833  12.8651673  75.5386993  41.4303833  13.2151673
  64.0396993  46.7113833  17.5051673  64.0806993  46.8373833  18.3681673
  64.6906993  46.1513833  17.3491673  64.1416993  46.6473833  17.6101673
  73.7506993  44.7733833  12.0961673  74.2776993  44.6903833  11.4051673
  73.3596993  43.9953833  12.1501673  73.7706993  44.6463833  12.0021673
  61.2186993  31.3613833  14.3271673  60.8756993  30.5943833  14.0931673
  60.5236993  31.8853833  14.3911673  61.0656993  31.3253833  14.3021673
  70.2646993  30.2173833  11.3041673  70.9346993  30.7613833  11.4311673
  69.7616993  30.6413833  10.7311673  70.2896993  30.3603833  11.2381673
  61.6326993  45.0943833  18.8651673  62.2276993  45.5253833  19.3371673
  61.2686993  45.7183833  18.3761673  61.6666993  45.2503833  18.8621673
  69.6236993  36.0253833   8.7971673  70.1746993  35.4183833   9.0971673
  69.1986993  36.2883833   9.5121673  69.6426993  35.9743833   8.9461673
  59.8716993  34.6753833   8.2831673  59.5036993  34.9773833   9.0141673
  60.4056993  34.0463833   8.5671673  59.8956993  34.6273833   8.4331673
  59.5596993  43.0833833  15.7941673  58.9856993  43.4993833  16.3031673
  60.2926993  43.5483833  15.8891673  59.5836993  43.2133833  15.8831673
  71.5936993  37.8563833   5.3591673  71.6616993  37.0063833   5.5401673
  70.7706993  37.9423833   5.0811673  71.4816993  37.7433833   5.3451673
  61.3456993  46.3503833   4.5691673  61.2006993  46.5063833   3.7231673
  62.2116993  46.4293833   4.6471673  61.4526993  46.3853833   4.4561673
  65.5126993  38.7473833   4.2971673  65.6126993  38.8863833   3.4421673
  66.3306993  38.6873833   4.5931673  65.6476993  38.7583833   4.2141673
  74.6726993  46.8113833   1.7771673  75.3096993  46.6773833   2.3581673
  74.3316993  46.0173833   1.6601673  74.7166993  46.6743833   1.8451673
  74.8676993  39.2293833  18.5101673  75.5016993  39.0593833  19.0841673
  75.2846993  39.6323833  17.8581673  75.0226993  39.2643833  18.4991673
  70.7476993  43.0763833   4.0991673  70.4966993  42.9483833   4.9251673
  70.4306993  42.3813833   3.6781673  70.6636993  42.9553833   4.1591673
  75.4926993  33.7933833  19.2481673  75.2966993  34.4373833  19.8031673
  74.7706993  33.3033833  19.2401673  75.3576993  33.8163833  19.3291673
  75.3916993  34.7343833  12.2191673  74.5586993  34.9843833  12.1471673
  75.3356993  33.8943833  12.4481673  75.2606993  34.6473833  12.2421673
  64.6516993  31.7223833  17.4131673  64.8856993  31.1463833  16.8001673
  63.8096993  31.5413833  17.5541673  64.5616993  31.6103833  17.3431673
  72.2786993  39.3403833  19.8651673  73.1496993  39.3043833  19.8291673
  72.0596993  39.7603833  19.1331673  72.3756993  39.3963833  19.7521673
  62.0326993  45.1653833  11.0461673  61.9536993  44.3553833  10.7301673
  61.5886993  45.6523833  10.4741673  61.9556993  45.1173833  10.9151673
  67.6336993  41.2843833   3.5291673  68.3506993  40.9373833   3.1731673
  67.5996993  42.0843833   3.1811673  67.7346993  41.3513833   3.4251673
  59.6046993  47.4093833  14.6271673  60.0976993  47.3533833  15.3451673
  59.7926993  46.6763833  14.1921673  59.7056993  47.2923833  14.6691673
  69.0426993  11.4472753  63.7928903  68.7976993  11.9352753  63.1128903
  69.9056993  11.3742753  63.6928903  69.1336993  11.5082753  63.6778903
  68.8516993  18.3632753  68.4638903  68.3276993  18.9592753  68.8268903
  69.2486993  17.9952753  69.1478903  68.8326993  18.3972753  68.6188903
  58.7206993  22.5032753  63.9198903  58.2796993  22.6212753  64.6628903
  58.4376993  21.7282753  63.6348903  58.6136993  22.4062753  63.9878903
  74.9956993  25.8042753  61.4348903  75.6966993  25.2852753  61.4308903
  74.4086993  25.3592753  60.9658903  75.0126993  25.6612753  61.3648903
  58.4636993  16.2952753  60.4268903  57.6856993  16.4572753  60.0668903
  58.5026993  15.4242753  60.4488903  58.3546993  16.1902753  60.3768903
  61.6026993  21.5582753  59.0988903  61.2106993  21.1872753  58.4128903
  61.5226993  20.9602753  59.7278903  61.5326993  21.4152753  59.0898903
  71.5226993  19.4302753  65.1398903  71.6026993  19.4342753  64.2708903
  70.9386993  18.7982753  65.2888903  71.4476993  19.3372753  65.0338903
  61.2296993  23.1992753  62.9988903  61.8376993  23.0292753  63.6018903
  60.4786993  23.0592753  63.4198903  61.2086993  23.1532753  63.1498903
  65.5116993  12.5342753  62.9478903  65.4416993  13.2112753  62.4018903
  66.2526993  12.1462753  62.6988903  65.6106993  12.5772753  62.8298903
  60.1206993  26.2902753  59.0758903  60.5876993  26.3742753  58.3438903
  60.5756993  25.7122753  59.5448903  60.2566993  26.2172753  59.0368903
  58.6606993  25.2382753  70.1748903  58.7896993  24.9582753  70.9908903
  58.0506993  24.6972753  69.8658903  58.5896993  25.1172753  70.2498903
  65.2346993  22.7632753  75.2418903  64.9986993  22.7602753  76.0818903
  64.4866993  22.6152753  74.8178903  65.0886993  22.7402753  75.3028903
  60.1066993  19.7592753  64.3768903  59.6446993  19.3672753  63.7498903
  60.8066993  19.2462753  64.4688903  60.1416993  19.6262753  64.2978903
  64.6146993  15.3692753  69.7238903  65.2926993  15.3872753  69.1748903
  64.5696993  14.5332753  69.9688903  64.7076993  15.2482753  69.6788903
  65.2166993  25.9552753  72.5048903  65.3546993  26.7152753  72.0978903
  66.0076993  25.5902753  72.5318903  65.3536993  26.0142753  72.4488903
  62.1076993  17.8592753  64.3998903  62.9246993  17.6722753  64.6428903
  61.6306993  17.2452753  64.7958903  62.1576993  17.7412753  64.4948903
  66.3116993  23.8402753  67.0098903  66.6596993  23.0412753  67.0398903
  66.9766993  24.3442753  66.7548903  66.4616993  23.7962753  66.9768903
  66.3686993  23.2892753  63.2208903  66.6996993  22.6452753  63.7068903
  66.6086993  23.0782753  62.4098903  66.4526993  23.1632753  63.1728903
  68.3366993  17.4202753  74.5598903  67.4886993  17.3212753  74.3818903
  68.3656993  18.1652753  75.0138903  68.2156993  17.5162753  74.6008903
  62.7046993  12.9532753  63.6658903  62.4086993  13.4542753  63.0158903
  63.5716993  13.0312753  63.6088903  62.7886993  13.0392753  63.5618903
  72.8946993  10.3802753  73.6738903  72.7366993  11.1492753  73.2918903
  72.1226993  10.1602753  74.0178903  72.7566993  10.4612753  73.6688903
  65.6836993  12.0952753  65.8888903  65.7566993  12.9552753  66.0178903
  65.6456993  12.0202753  65.0208903  65.6886993  12.2112753  65.7798903
  70.3566993  15.0212753  58.1878903  69.9066993  15.7022753  58.4948903
  70.4706993  14.5172753  58.8908903  70.3076993  15.0472753  58.3368903
  58.5626993  17.5202753  67.3898903  58.3066993  18.3512753  67.3148903
  57.8986993  17.1372753  67.8068903  58.4266993  17.5862753  67.4408903
  58.4726993  27.2302753  65.2898903  57.8806993  27.7882753  64.9768903
  58.8986993  26.9612753  64.5778903  58.4486993  27.2722753  65.1388903
  64.3126993  25.0742753  62.7698903  63.7336993  24.7992753  63.3618903
  64.9366993  24.4652753  62.7948903  64.3196993  24.9442753  62.8608903
  70.4556993  27.3622753  60.2918903  71.1826993  27.8342753  60.3938903
  70.6846993  26.5682753  60.5718903  70.5976993  27.3152753  60.3488903
  68.6236993  27.7542753  62.2818903  68.8376993  28.2812753  62.9438903
  69.3906993  27.5802753  61.9028903  68.7686993  27.8062753  62.3238903
  61.5916993  12.3372753  67.8808903  61.0706993  11.7092753  67.5728903
  62.1826993  11.9002753  68.3518903  61.6026993  12.1792753  67.9048903
  60.0176993  25.9002753  63.2208903  60.6736993  25.3252753  63.2358903
  60.4066993  26.6492753  62.9998903  60.1726993  25.9252753  63.1908903
  75.7506993  14.9942753  64.4828903  75.4046993  15.6722753  64.9088903
  75.1146993  14.3962753  64.4988903  75.6056993  15.0062753  64.5478903
  71.0626993  27.7642753  70.5868903  71.8066993  28.2202753  70.5768903
  70.9416993  27.5502753  69.7498903  71.1546993  27.8002753  70.4618903
  60.6306993  14.0672753  76.1628903  59.8526993  13.6772753  76.0908903
  61.1216993  13.6552753  75.5718903  60.5876993  13.9482753  76.0648903
  60.8356993  24.3872753  66.7208903  61.2586993  24.0312753  66.0468903
  61.1596993  23.9652753  67.4128903  60.9456993  24.2722753  66.7238903
  64.0666993  27.2392753  66.0168903  64.9106993  27.3432753  65.8218903
  63.7696993  28.0572753  66.0848903  64.1476993  27.3752753  65.9978903
  67.2796993  11.7102753  75.3308903  67.4576993  10.9012753  75.0558903
  67.1366993  12.1512753  74.5918903  67.2846993  11.6562753  75.1808903
  67.8736993  16.6362753  64.1038903  68.1606993  16.4042753  63.3138903
  68.6056993  16.7152753  64.5728903  68.0236993  16.6132753  64.0568903
  68.5956993  16.9752753  59.2248903  68.8766993  17.7632753  59.4738903
  67.8196993  17.1402753  58.8618903  68.5226993  17.1162753  59.2078903
  72.6366993  28.9492753  60.6918903  73.3016993  28.8012753  60.1468903
  72.9966993  28.8662753  61.4818903  72.7886993  28.9152753  60.7278903
  63.0646993  28.4582753  71.7568903  63.3566993  28.3912753  72.5768903
  62.4386993  27.8532753  71.7118903  63.0156993  28.3592753  71.8718903
  57.9786993  14.6152753  73.7488903  57.9746993  15.2022753  74.3948903
  58.5726993  14.9272753  73.1918903  58.0656993  14.7482753  73.7618903
  70.3166993  24.9492753  74.2908903  70.2826993  25.3312753  75.0748903
  71.1706993  24.9072753  74.1198903  70.4376993  24.9992753  74.3818903
  67.4546993  25.1462753  59.0408903  67.2736993  25.6912753  59.6978903
  68.2206993  25.4362753  58.7398903  67.5406993  25.2702753  59.0938903
  70.9616993  13.0422753  60.0948903  71.5016993  12.3602753  60.1708903
  71.0236993  13.4402753  60.8688903  71.0506993  13.0002753  60.2208903
  58.9156993  14.2102753  62.6638903  58.8016993  13.3462753  62.6948903
  58.4406993  14.5042753  63.3338903  58.8286993  14.1262753  62.7668903
  61.0576993  26.6202753  70.8788903  60.3596993  26.1122753  71.0048903
  61.3176993  26.4152753  70.0708903  60.9926993  26.5152753  70.7778903
  68.2196993  15.4182753  61.4088903  67.7116993  14.7562753  61.1548903
  68.2716993  15.9222753  60.6988903  68.1526993  15.3952753  61.2668903
  68.7686993  28.1132753  71.7888903  69.5366993  28.0332753  71.3828903
  68.1856993  27.9922753  71.1508903  68.7956993  28.0832753  71.6348903
  68.2196993  12.3592753  61.2998903  67.7646993  11.9572753  60.6738903
  68.9926993  12.5142753  60.9248903  68.2666993  12.3232753  61.1518903
  75.0456993  28.7162753  64.6898903  74.5906993  29.4332753  64.8908903
  74.4316993  28.1452753  64.4478903  74.8876993  28.7382753  64.6838903
  66.8176993  14.7262753  65.8218903  66.8916993  15.2942753  65.1638903
  66.9386993  15.2182753  66.5318903  66.8456993  14.8832753  65.8298903
  72.0426993  24.5612753  64.2338903  72.7436993  24.0792753  64.4228903
  71.3826993  23.9922753  64.2788903  72.0486993  24.4062753  64.2678903
  62.4186993  25.4712753  73.4458903  63.2596993  25.5342753  73.2238903
  62.3816993  25.8682753  74.2218903  62.5376993  25.5392753  73.5278903
  61.4256993  10.5492753  64.1698903  61.9616993  11.2372753  64.1598903
  61.4286993  10.2752753  63.3418903  61.5046993  10.6102753  64.0458903
  64.3816993  20.9822753  68.1948903  64.5536993  20.7722753  69.0238903
  63.7266993  20.4482753  67.9788903  64.3106993  20.8722753  68.2858903
  70.6096993  14.8962753  71.7098903  70.5146993  15.2152753  72.5158903
  70.0166993  14.2572753  71.6718903  70.5076993  14.8482753  71.8238903
  65.1316993  20.9202753  70.7848903  65.1846993  21.7672753  70.9868903
  64.8466993  20.5502753  71.5218903  65.0976993  20.9902753  70.9228903
  71.3086993  21.6152753  69.9148903  70.7946993  21.2032753  70.4858903
  71.1826993  22.4592753  70.0958903  71.2146993  21.6792753  70.0258903
  71.8656993  10.8402753  64.5458903  71.9146993  10.5222753  65.3568903
  72.1886993  10.1962753  64.0528903  71.9206993  10.6982753  64.5928903
  74.3296993  15.0762753  72.8538903  75.1016993  14.8512753  73.1908903
  73.8546993  15.2932753  73.5538903  74.3736993  15.0752753  73.0068903
  61.8736993  14.3592753  65.8238903  62.1456993  13.9292753  65.1158903
  61.6976993  13.7232753  66.3948903  61.8876993  14.2022753  65.8038903
  74.5616993  22.0542753  60.0418903  74.6806993  21.7672753  60.8568903
  75.3686993  22.0752753  59.7118903  74.6976993  22.0152753  60.1138903
  61.6976993  21.7862753  65.3728903  62.5486993  21.7062753  65.1998903
  61.3406993  21.1042753  64.9608903  61.7706993  21.6732753  65.2858903
  60.4646993  28.5112753  66.6098903  59.7916993  28.0132753  66.3648903
  60.8676993  28.6962753  65.8588903  60.4246993  28.4652753  66.4628903
  60.0146993  15.4612753  68.9058903  60.8576993  15.6812753  68.8628903
  59.6256993  16.0342753  68.3748903  60.0816993  15.5782753  68.8208903
  72.4566993  18.5912753  59.6268903  72.2366993  19.3222753  59.2048903
  72.0086993  18.6422753  60.3738903  72.3576993  18.7062753  59.6748903
  64.0656993  21.7932753  63.6078903  64.7786993  22.2882753  63.6978903
  64.2876993  21.2262753  62.9818903  64.2036993  21.7822753  63.5288903
  58.2216993  23.4362753  66.9278903  57.5546993  23.9242753  67.2038903
  58.9016993  23.9812753  66.9568903  58.2236993  23.5882753  66.9728903
  58.2876993  20.1202753  62.0308903  58.1026993  19.2812753  62.1828903
  58.9466993  20.0842753  61.4608903  58.3576993  19.9912753  61.9688903
  74.6456993  13.0102753  61.3588903  75.3916993  12.6032753  61.5578903
  74.9086993  13.7252753  60.9338903  74.7946993  13.0562753  61.3258903
  68.5886993  25.4962753  65.9348903  68.0656993  26.1302753  65.6418903
  68.8986993  25.1322753  65.2058903  68.5566993  25.5362753  65.7838903
  58.4596993  24.2842753  61.6058903  59.0116993  24.8532753  61.9698903
  58.2276993  23.7692753  62.2708903  58.5066993  24.2922753  61.7578903
  62.6636993  23.2842753  68.6948903  63.1306993  23.5732753  69.3728903
  63.2356993  22.8062753  68.2408903  62.8176993  23.2562753  68.7278903
  71.0996993  15.2982753  66.4318903  71.4436993  15.4502753  67.2188903
  70.6466993  14.5602753  66.5448903  71.0836993  15.2112753  66.5648903
  58.2896993  22.7332753  59.2338903  59.0456993  22.3012753  59.2918903
  58.3046993  23.2652753  59.9248903  58.4036993  22.7482753  59.3448903
  59.2296993  20.9542753  67.2388903  59.6606993  20.8252753  66.4918903
  59.0246993  21.8022753  67.2128903  59.2626993  21.0602753  67.1248903
  65.5756993  14.5182753  60.8888903  65.5736993  14.4012753  60.0238903
  65.3946993  15.3662753  60.9808903  65.5486993  14.6262753  60.7748903
  74.6296993  26.9452753  72.3858903  73.9586993  27.4592753  72.6038903
  74.6926993  27.0452753  71.5218903  74.5396993  27.0362753  72.2908903
  63.3136993  24.4702753  65.5208903  63.4396993  25.3132753  65.7078903
  63.9816993  24.0712753  65.9168903  63.4316993  24.5362753  65.6068903
  61.4436993  17.9532753  75.3828903  60.9076993  17.4472753  75.8508903
  61.4636993  17.5632753  74.6028903  61.3666993  17.8202753  75.3368903
  61.9286993  17.3502753  60.5228903  61.8006993  16.9022753  61.2608903
  61.3466993  17.0082753  59.9708903  61.8236993  17.2332753  60.5508903
  62.0956993  19.1802753  67.1218903  61.3146993  19.1212753  66.7388903
  62.1676993  18.4282753  67.5588903  61.9906993  19.0612753  67.1298903
  62.5256993  18.9172753  70.5898903  62.5506993  18.2422753  70.0388903
  61.8796993  19.4132753  70.2778903  62.4346993  18.8902753  70.4628903
  72.4206993  16.6302753  68.9858903  71.7586993  16.9582753  69.4488903
  72.6076993  17.2642753  68.4168903  72.3506993  16.7722753  68.9698903
  66.6256993  27.6942753  69.9818903  66.3486993  27.0532753  69.4588903
  66.4176993  28.4202753  69.5438903  66.5546993  27.7072753  69.8398903
  69.0656993  12.5362753  72.4148903  69.2146993  11.7112753  72.1718903
  69.4446993  12.5912753  73.1988903  69.1436993  12.4222753  72.4948903
  70.6136993  14.5992753  62.4968903  71.1036993  15.3162753  62.4198903
  69.8236993  14.8602753  62.2338903  70.5696993  14.7432753  62.4468903
  60.3246993  20.2722753  76.1488903  60.2876993  20.7732753  75.4348903
  60.6556993  19.5202753  75.8538903  60.3676993  20.2342753  75.9998903
  71.9276993  22.4772753  74.4068903  72.4116993  23.1952753  74.5048903
  72.3216993  22.0502753  73.7558903  72.0576993  22.5202753  74.3248903
  66.2236993  25.3222753  75.5838903  66.5776993  25.1442753  76.3608903
  65.7876993  24.5932753  75.3848903  66.2116993  25.1882753  75.6698903
  67.1956993  16.0692753  68.2218903  67.6756993  16.7682753  68.4298903
  67.5686993  15.4222753  68.6728903  67.3216993  16.0772753  68.3188903
  69.3846993  19.2382753  60.4958903  69.3766993  19.9602753  60.0058903
  68.7456993  19.3732753  61.0728903  69.2896993  19.3652753  60.5088903
  74.3566993  23.1082753  64.4768903  74.7126993  22.7582753  65.1918903
  74.3486993  22.4472753  63.9068903  74.4086993  22.9582753  64.4978903
  70.4016993  26.1742753  68.3208903  69.7986993  25.8782753  67.7638903
  70.9466993  26.6262753  67.8118903  70.3926993  26.1972753  68.1628903
  70.4146993  23.0252753  67.7208903  69.6176993  23.2492753  67.9948903
  70.6726993  22.4312753  68.3058903  70.3346993  22.9702753  67.8478903
  64.3066993  27.8372753  62.1688903  64.1596993  27.0612753  62.5398903
  64.9956993  27.6902753  61.6538903  64.3866993  27.7002753  62.1478903
  63.9776993  11.5802753  60.1568903  64.0746993  11.4732753  61.0178903
  63.2696993  12.0862753  60.0918903  63.8876993  11.6392753  60.2748903
  66.5986993  27.3532753  60.5708903  67.2206993  27.5162753  61.1608903
  66.6346993  28.0442753  60.0388903  66.6956993  27.4792753  60.5798903
  73.6746993  21.0232753  72.5668903  73.7296993  21.1482753  71.7048903
  74.4276993  21.3432753  72.8688903  73.7936993  21.0882753  72.4838903
  74.7066993  11.3212753  75.5538903  74.0696993  10.9212753  75.1118903
  74.7326993  10.8902753  76.3118903  74.6166993  11.1992753  75.5998903
  61.0996993  19.8872753  61.3998903  61.4236993  19.1082753  61.1778903
  61.7456993  20.2552753  61.8548903  61.2426993  19.8262753  61.4338903
  69.4056993  20.8292753  72.1668903  69.2506993  21.4392753  72.7708903
  69.9396993  20.2712753  72.5728903  69.4616993  20.8372753  72.3158903
  58.0966993  11.5482753  62.3678903  58.2256993  10.8402753  61.8758903
  57.7296993  11.2302753  63.0928903  58.0616993  11.3962753  62.4028903
  67.7896993  19.2292753  62.8248903  67.8486993  19.8792753  63.4038903
  67.6006993  18.5332753  63.3158903  67.7706993  19.2222753  62.9828903
  73.0156993  23.5582753  68.6938903  72.5366993  23.8562753  68.0278903
  72.6596993  22.7822753  68.8718903  72.8926993  23.4872753  68.6218903
  62.2856993  13.7462753  59.3368903  61.7746993  13.7992753  58.6308903
  63.0696993  13.9862753  59.0408903  62.3256993  13.7892753  59.1888903
  67.0126993  21.2762753  67.2558903  66.1656993  21.0822753  67.3368903
  67.3366993  21.1112753  68.0488903  66.9346993  21.2232753  67.3848903
  63.7646993  28.0062753  58.1418903  64.2036993  27.3092753  58.4298903
  63.9716993  28.6302753  58.7148903  63.8606993  27.9952753  58.2688903
  60.8606993  20.9692753  69.5718903  61.5826993  21.4572753  69.5348903
  60.5906993  20.9392753  68.7428903  60.9276993  21.0372753  69.4438903
  64.0906993  16.1402753  66.3068903  64.9366993  15.9502753  66.4048903
  63.7206993  15.3632753  66.1688903  64.1606993  15.9972753  66.3008903
  58.9116993  17.4782753  62.9618903  59.4006993  17.1862753  63.6228903
  59.0406993  16.8852753  62.3348903  59.0026993  17.3472753  62.9668903
  73.9466993  20.5002753  69.8128903  73.9396993  19.7242753  70.2108903
  73.1056993  20.7342753  69.8058903  73.8216993  20.4202753  69.8708903
  63.4366993  18.9122753  58.4478903  62.8266993  18.5072753  58.9218903
  63.0506993  19.0302753  57.6748903  63.2896993  18.8692753  58.4038903
  60.2556993  22.0212753  73.8498903  59.8346993  21.5032753  73.2888903
  59.9036993  22.8072753  73.7068903  60.1416993  22.0612753  73.7458903
  64.8916993  17.3732753  61.1578903  65.1636993  18.1992753  61.2248903
  64.0286993  17.4482753  61.0618903  64.8046993  17.5062753  61.1528903
  72.8646993  14.4952753  75.7898903  72.3396993  14.9542753  76.3138903
  72.5036993  13.7002753  75.7838903  72.7336993  14.4452753  75.8658903
  58.3716993  13.3432753  67.6938903  58.4156993  13.6872753  66.8928903
  59.1266993  13.5802753  68.0608903  58.4896993  13.4292753  67.6298903
  71.3566993  18.0642753  75.8658903  71.4296993  18.1682753  76.7288903
  70.7226993  18.6222753  75.6448903  71.2736993  18.1622753  75.9608903
  73.6246993  18.3832753  74.2308903  73.9436993  19.1692753  74.4338903
  73.2546993  18.1132753  74.9738903  73.6176993  18.4592753  74.3708903
  72.9386993  24.8072753  59.7608903  73.2726993  24.0012753  59.7958903
  72.1836993  24.7352753  60.1908903  72.8766993  24.6772753  59.8298903
  73.4206993  16.6412753  65.4198903  72.6756993  16.3182753  65.7378903
  73.4226993  17.4672753  65.6998903  73.3106993  16.7152753  65.5078903
  70.3126993  22.6822753  59.1638903  70.9966993  22.1682753  58.9948903
  69.8956993  22.7282753  58.3988903  70.3516993  22.6132753  59.0258903
  64.9946993  23.8322753  70.4678903  64.6966993  24.4242753  71.0348903
  65.0496993  24.2742753  69.7188903  64.9586993  23.9852753  70.4408903
  62.9736993  22.7822753  73.8658903  62.1676993  22.4922753  74.0328903
  62.8846993  23.6502753  73.8718903  62.8416993  22.8672753  73.8908903
  72.3326993  12.9712753  72.8808903  73.0766993  13.4232753  72.8178903
  71.7666993  13.4412753  72.4118903  72.3596993  13.1082753  72.8028903
  67.5106993  20.2552753  69.9588903  67.9866993  20.6292753  70.5868903
  66.6876993  20.3892753  70.2178903  67.4596993  20.3302753  70.0898903
  64.2206993  15.8582753  72.6998903  64.3816993  15.1142753  73.1268903
  64.1756993  15.6092753  71.8648903  64.2376993  15.7112753  72.6398903
  66.7746993  27.6482753  65.1868903  67.3206993  28.3272753  65.2408903
  66.4246993  27.7302753  64.3918903  66.8036993  27.7612753  65.0768903
  73.6176993  10.9512753  70.5508903  73.3376993  11.7762753  70.5068903
  74.3336993  11.0042753  71.0468903  73.6826993  11.0812753  70.6178903
  65.9726993  11.6662753  72.5798903  66.6776993  11.9862753  72.1778903
  66.2136993  10.8592753  72.8068903  66.1116993  11.5942753  72.5538903
  64.9576993  25.8762753  68.5758903  64.3336993  26.4582753  68.3938903
  65.2056993  25.5902753  67.7898903  64.9016993  25.9202753  68.4328903
  69.2666993  22.5102753  75.5648903  70.0236993  22.7962753  75.2388903
  68.7196993  22.5622753  74.8868903  69.2976993  22.5602753  75.4158903
  73.1756993  25.0602753  74.0688903  73.5216993  25.3302753  74.8228903
  73.4696993  25.6422753  73.4888903  73.2706993  25.1862753  74.0948903
  75.0386993  17.2062753  59.4078903  75.4166993  17.8832753  59.0078903
  74.1966993  17.4302753  59.4388903  74.9696993  17.3392753  59.3528903
  66.5516993  20.6522753  58.4908903  65.7466993  20.4752753  58.2058903
  66.5186993  21.5032753  58.6828903  66.4276993  20.7512753  58.4778903
  62.4816993  16.7192753  68.6408903  62.9216993  16.6162753  67.8948903
  63.0266993  16.4062753  69.2458903  62.6266993  16.6582753  68.6198903
  70.4976993  15.8212753  74.2328903  69.8496993  16.2912753  74.5808903
  71.0626993  15.7322753  74.8918903  70.4856993  15.8772753  74.3818903
  70.1856993  17.3582753  70.5308903  70.4876993  17.7782753  71.2338903
  70.2216993  16.5182753  70.7628903  70.2356993  17.2962753  70.6688903
  67.6106993  27.5252753  74.4558903  68.0886993  26.9252753  74.0398903
  67.2596993  27.0822753  75.1208903  67.6296993  27.3712753  74.4928903
  72.7336993  16.8052753  62.7828903  72.9406993  16.6042753  63.6068903
  73.4896993  17.0732753  62.4408903  72.8756993  16.8152753  62.8538903
  66.0286993  11.7042753  68.6878903  65.2026993  11.5552753  68.9248903
  65.9886993  11.7392753  67.8168903  65.9006993  11.6872753  68.5938903
  73.7556993  12.8882753  64.2568903  73.0416993  12.4172753  64.4278903
  73.5936993  13.2292753  63.4708903  73.6266993  12.8692753  64.1658903
  74.1986993  20.8322753  62.6368903  74.6746993  20.1032753  62.5888903
  73.3776993  20.5462753  62.5608903  74.1476993  20.6822753  62.6178903
  67.6696993  22.7442753  73.4758903  66.8746993  22.6802753  73.8268903
  67.7406993  23.5912753  73.2808903  67.5626993  22.8592753  73.4988903
  58.5936993  12.1022753  74.7228903  58.4536993  12.8972753  74.3918903
  57.8076993  11.8592753  75.0118903  58.4566993  12.1842753  74.7168903
  63.4996993  28.9512753  68.7928903  63.5106993  29.0102753  69.6628903
  63.0746993  28.2042753  68.6428903  63.4386993  28.8492753  68.8988903
  61.6576993  14.8462753  61.9478903  61.7836993  14.5172753  61.1498903
  60.8456993  14.5972753  62.1468903  61.5566993  14.7612753  61.8598903
  70.4146993  21.9992753  64.9918903  70.4906993  22.3402753  65.7908903
  70.5836993  21.1522753  65.1128903  70.4506993  21.9242753  65.1278903
  67.9366993  21.2732753  64.5568903  67.6386993  20.9582753  65.3138903
  68.6316993  21.7462753  64.7918903  67.9956993  21.2962753  64.7038903
  68.1586993  25.3912753  72.5838903  68.8456993  25.2772753  73.1088903
  68.2926993  26.1822753  72.2398903  68.2796993  25.4912753  72.6108903
  70.8476993  18.6652753  72.9708903  70.5926993  17.9462753  73.3928903
  71.6686993  18.7812753  73.2408903  70.9316993  18.5762753  73.0728903
  60.2636993  28.4492753  74.2348903  59.6096993  27.8802753  74.3328903
  59.8886993  29.2222753  74.3858903  60.1116993  28.4792753  74.2718903
  68.7816993  19.8552753  76.1578903  69.1046993  20.5412753  75.7258903
  68.0776993  20.1782753  76.5598903  68.7246993  20.0042753  76.1528903
  71.8656993  28.2292753  67.0868903  71.4146993  28.8722753  67.4658903
  72.5736993  28.1502753  67.5918903  71.9036993  28.3122753  67.2178903
  68.5666993  23.3192753  70.0168903  67.8726993  23.7212753  70.3598903
  69.2436993  23.7522753  70.3558903  68.5636993  23.4422753  70.1178903
  61.6346993  16.8572753  72.3638903  62.0096993  17.4762753  71.8768903
  62.3086993  16.3832753  72.6488903  61.7896993  16.8792753  72.3338903
  59.4096993  15.3052753  71.6388903  59.4866993  15.1362753  70.7858903
  60.1556993  15.7112753  71.8358903  59.5306993  15.3402753  71.5418903
  74.9686993  17.9452753  62.0788903  75.0716993  17.8872753  61.2148903
  75.7096993  17.6132753  62.3968903  75.0936993  17.8882753  61.9978903
  61.9636993  12.7152753  74.0498903  61.8826993  11.8712753  74.2558903
  61.6496993  12.7592753  73.2368903  61.9056993  12.5972753  73.9598903
  68.8886993  24.9102753  63.1858903  68.6836993  25.7432753  63.0268903
  68.1136993  24.5282753  63.3078903  68.7436993  24.9772753  63.1808903
  74.0706993  18.0912753  71.4348903  74.0686993  17.2282753  71.5588903
  74.1376993  18.4152753  72.2418903  74.0806993  18.0112753  71.5718903
  58.8066993  20.5312753  71.8628903  59.1266993  20.7502753  71.0818903
  58.7066993  19.6662753  71.8078903  58.8386993  20.4362753  71.7398903
  60.2626993  16.4672753  58.4808903  59.5906993  16.4812753  59.0368903
  60.3576993  15.6192753  58.2968903  60.1776993  16.3442753  58.5358903
  69.9496993  12.8912753  75.2168903  70.0416993  13.6032753  75.7108903
  69.3126993  12.4462753  75.6138903  69.8686993  12.9302753  75.3488903
  68.9436993  13.0812753  66.0708903  68.2436993  13.5992753  66.0148903
  68.9816993  12.7012753  65.2868903  68.8456993  13.1022753  65.9468903
  64.2506993  25.1722753  59.5948903  64.6916993  25.2522753  60.3428903
  63.4456993  24.9562753  59.8528903  64.1966993  25.1522753  59.7438903
  72.5416993  13.5972753  68.8708903  73.3966993  13.6962753  69.0158903
  72.1726993  14.1502753  69.4358903  72.6136993  13.6942753  68.9758903
  63.5696993  19.8232753  73.2478903  63.1736993  20.5972753  73.3228903
  63.1636993  19.4502753  72.5718903  63.4516993  19.8822753  73.1588903
  72.8456993  18.8772753  67.3618903  73.5116993  19.4182753  67.5218903
  72.5006993  19.1882753  66.6228903  72.8926993  19.0032753  67.2768903
  73.1586993  26.9432753  63.1688903  72.9846993  26.2892753  63.7188903
  73.8716993  26.6722753  62.7458903  73.2386993  26.8062753  63.1878903
  61.5796993  24.2422753  60.1958903  61.3356993  23.9352753  60.9758903
  61.5466993  23.5392753  59.6798903  61.5386993  24.0932753  60.2348903
  64.3986993  22.4872753  58.9388903  63.5806993  22.2192753  59.0788903
  64.3706993  23.3392753  59.1238903  64.2736993  22.5742753  58.9868903
  63.9986993  12.8002753  70.6978903  63.1346993  12.8842753  70.7778903
  64.2186993  12.2862753  71.3668903  63.9036993  12.7372753  70.8088903
  68.1016993  13.5482753  69.0718903  67.3646993  13.0942753  69.1848903
  68.6726993  13.1462753  69.5948903  68.0766993  13.4212753  69.1658903
  70.8336993  24.3962753  70.8598903  71.0396993  24.6972753  71.6518903
  70.7726993  25.1182753  70.3748903  70.8546993  24.5472753  70.9048903
  70.3676993  28.6102753  75.1058903  69.6146993  28.5922753  74.6648903
  70.5356993  29.4622753  75.1898903  70.2816993  28.7332753  75.0528903
  65.6046993  17.8772753  74.2758903  65.2826993  17.3012753  73.7058903
  65.2456993  18.6322753  74.0298903  65.5046993  17.9032753  74.1558903
  66.4006993  11.1292753  58.9028903  66.4786993  11.3762753  58.0698903
  65.6576993  11.5062753  59.1608903  66.3026993  11.2212753  58.8178903
  75.6456993  23.0352753  70.3178903  75.6136993  22.1732753  70.1828903
  74.9526993  23.3372753  69.8838903  75.5386993  22.9522753  70.2338903
  64.0396993  28.2332753  74.5238903  64.0806993  28.3592753  75.3868903
  64.6906993  27.6732753  74.3678903  64.1416993  28.1692753  74.6288903
  73.7506993  26.2952753  69.1148903  74.2776993  26.2122753  68.4238903
  73.3596993  25.5172753  69.1688903  73.7706993  26.1682753  69.0208903
  61.2186993  12.8832753  71.3458903  60.8756993  12.1162753  71.1118903
  60.5236993  13.4072753  71.4098903  61.0656993  12.8472753  71.3208903
  70.2646993  11.7392753  68.3228903  70.9346993  12.2832753  68.4498903
  69.7616993  12.1632753  67.7498903  70.2896993  11.8822753  68.2568903
  61.6326993  26.6162753  75.8838903  62.2276993  27.0472753  76.3558903
  61.2686993  27.2402753  75.3948903  61.6666993  26.7722753  75.8808903
  69.6236993  17.5472753  65.8158903  70.1746993  16.9402753  66.1158903
  69.1986993  17.8102753  66.5308903  69.6426993  17.4962753  65.9648903
  59.8716993  16.1972753  65.3018903  59.5036993  16.4992753  66.0328903
  60.4056993  15.5682753  65.5858903  59.8956993  16.1492753  65.4518903
  59.5596993  24.6052753  72.8128903  58.9856993  25.0212753  73.3218903
  60.2926993  25.0702753  72.9078903  59.5836993  24.7352753  72.9018903
  71.5936993  19.3782753  62.3778903  71.6616993  18.5282753  62.5588903
  70.7706993  19.4642753  62.0998903  71.4816993  19.2652753  62.3638903
  61.3456993  27.8722753  61.5878903  61.2006993  28.0282753  60.7418903
  62.2116993  27.9512753  61.6658903  61.4526993  27.9072753  61.4748903
  65.5126993  20.2692753  61.3158903  65.6126993  20.4082753  60.4608903
  66.3306993  20.2092753  61.6118903  65.6476993  20.2802753  61.2328903
  74.6726993  28.3332753  58.7958903  75.3096993  28.1992753  59.3768903
  74.3316993  27.5392753  58.6788903  74.7166993  28.1962753  58.8638903
  74.8676993  20.7512753  75.5288903  75.5016993  20.5812753  76.1028903
  75.2846993  21.1542753  74.8768903  75.0226993  20.7862753  75.5178903
  70.7476993  24.5982753  61.1178903  70.4966993  24.4702753  61.9438903
  70.4306993  23.9032753  60.6968903  70.6636993  24.4772753  61.1778903
  75.4926993  15.3152753  76.2668903  75.2966993  15.9592753  76.8218903
  74.7706993  14.8252753  76.2588903  75.3576993  15.3382753  76.3478903
  75.3916993  16.2562753  69.2378903  74.5586993  16.5062753  69.1658903
  75.3356993  15.4162753  69.4668903  75.2606993  16.1692753  69.2608903
  64.6516993  13.2442753  74.4318903  64.8856993  12.6682753  73.8188903
  63.8096993  13.0632753  74.5728903  64.5616993  13.1322753  74.3618903
  72.2786993  20.8622753  76.8838903  73.1496993  20.8262753  76.8478903
  72.0596993  21.2822753  76.1518903  72.3756993  20.9182753  76.7708903
  62.0326993  26.6872753  68.0648903  61.9536993  25.8772753  67.7488903
  61.5886993  27.1742753  67.4928903  61.9556993  26.6392753  67.9338903
  67.6336993  22.8062753  60.5478903  68.3506993  22.4592753  60.1918903
  67.5996993  23.6062753  60.1998903  67.7346993  22.8732753  60.4438903
  59.6046993  28.9312753  71.6458903  60.0976993  28.8752753  72.3638903
  59.7926993  28.1982753  71.2108903  59.7056993  28.8142753  71.6878903
  69.0426993  11.4472753  44.7866493  68.7976993  11.9352753  44.1066493
  69.9056993  11.3742753  44.6866493  69.1336993  11.5082753  44.6716493
  68.8516993  18.3632753  49.4576493  68.3276993  18.9592753  49.8206493
  69.2486993  17.9952753  50.1416493  68.8326993  18.3972753  49.6126493
  58.7206993  22.5032753  44.9136493  58.2796993  22.6212753  45.6566493
  58.4376993  21.7282753  44.6286493  58.6136993  22.4062753  44.9816493
  74.9956993  25.8042753  42.4286493  75.6966993  25.2852753  42.4246493
  74.4086993  25.3592753  41.9596493  75.0126993  25.6612753  42.3586493
  58.4636993  16.2952753  41.4206493  57.6856993  16.4572753  41.0606493
  58.5026993  15.4242753  41.4426493  58.3546993  16.1902753  41.3706493
  61.6026993  21.5582753  40.0926493  61.2106993  21.1872753  39.4066493
  61.5226993  20.9602753  40.7216493  61.5326993  21.4152753  40.0836493
  71.5226993  19.4302753  46.1336493  71.6026993  19.4342753  45.2646493
  70.9386993  18.7982753  46.2826493  71.4476993  19.3372753  46.0276493
  61.2296993  23.1992753  43.9926493  61.8376993  23.0292753  44.5956493
  60.4786993  23.0592753  44.4136493  61.2086993  23.1532753  44.1436493
  65.5116993  12.5342753  43.9416493  65.4416993  13.2112753  43.3956493
  66.2526993  12.1462753  43.6926493  65.6106993  12.5772753  43.8236493
  60.1206993  26.2902753  40.0696493  60.5876993  26.3742753  39.3376493
  60.5756993  25.7122753  40.5386493  60.2566993  26.2172753  40.0306493
  58.6606993  25.2382753  51.1686493  58.7896993  24.9582753  51.9846493
  58.0506993  24.6972753  50.8596493  58.5896993  25.1172753  51.2436493
  65.2346993  22.7632753  56.2356493  64.9986993  22.7602753  57.0756493
  64.4866993  22.6152753  55.8116493  65.0886993  22.7402753  56.2966493
  60.1066993  19.7592753  45.3706493  59.6446993  19.3672753  44.7436493
  60.8066993  19.2462753  45.4626493  60.1416993  19.6262753  45.2916493
  64.6146993  15.3692753  50.7176493  65.2926993  15.3872753  50.1686493
  64.5696993  14.5332753  50.9626493  64.7076993  15.2482753  50.6726493
  65.2166993  25.9552753  53.4986493  65.3546993  26.7152753  53.0916493
  66.0076993  25.5902753  53.5256493  65.3536993  26.0142753  53.4426493
  62.1076993  17.8592753  45.3936493  62.9246993  17.6722753  45.6366493
  61.6306993  17.2452753  45.7896493  62.1576993  17.7412753  45.4886493
  66.3116993  23.8402753  48.0036493  66.6596993  23.0412753  48.0336493
  66.9766993  24.3442753  47.7486493  66.4616993  23.7962753  47.9706493
  66.3686993  23.2892753  44.2146493  66.6996993  22.6452753  44.7006493
  66.6086993  23.0782753  43.4036493  66.4526993  23.1632753  44.1666493
  68.3366993  17.4202753  55.5536493  67.4886993  17.3212753  55.3756493
  68.3656993  18.1652753  56.0076493  68.2156993  17.5162753  55.5946493
  62.7046993  12.9532753  44.6596493  62.4086993  13.4542753  44.0096493
  63.5716993  13.0312753  44.6026493  62.7886993  13.0392753  44.5556493
  72.8946993  10.3802753  54.6676493  72.7366993  11.1492753  54.2856493
  72.1226993  10.1602753  55.0116493  72.7566993  10.4612753  54.6626493
  65.6836993  12.0952753  46.8826493  65.7566993  12.9552753  47.0116493
  65.6456993  12.0202753  46.0146493  65.6886993  12.2112753  46.7736493
  70.3566993  15.0212753  39.1816493  69.9066993  15.7022753  39.4886493
  70.4706993  14.5172753  39.8846493  70.3076993  15.0472753  39.3306493
  58.5626993  17.5202753  48.3836493  58.3066993  18.3512753  48.3086493
  57.8986993  17.1372753  48.8006493  58.4266993  17.5862753  48.4346493
  58.4726993  27.2302753  46.2836493  57.8806993  27.7882753  45.9706493
  58.8986993  26.9612753  45.5716493  58.4486993  27.2722753  46.1326493
  64.3126993  25.0742753  43.7636493  63.7336993  24.7992753  44.3556493
  64.9366993  24.4652753  43.7886493  64.3196993  24.9442753  43.8546493
  70.4556993  27.3622753  41.2856493  71.1826993  27.8342753  41.3876493
  70.6846993  26.5682753  41.5656493  70.5976993  27.3152753  41.3426493
  68.6236993  27.7542753  43.2756493  68.8376993  28.2812753  43.9376493
  69.3906993  27.5802753  42.8966493  68.7686993  27.8062753  43.3176493
  61.5916993  12.3372753  48.8746493  61.0706993  11.7092753  48.5666493
  62.1826993  11.9002753  49.3456493  61.6026993  12.1792753  48.8986493
  64.8976993  14.4702753  58.1726493  65.0146993  14.0162753  57.4366493
  65.1856993  15.2682753  57.9696493  64.9576993  14.5212753  58.0336493
  60.0176993  25.9002753  44.2146493  60.6736993  25.3252753  44.2296493
  60.4066993  26.6492753  43.9936493  60.1726993  25.9252753  44.1846493
  75.7506993  14.9942753  45.4766493  75.4046993  15.6722753  45.9026493
  75.1146993  14.3962753  45.4926493  75.6056993  15.0062753  45.5416493
  71.0626993  27.7642753  51.5806493  71.8066993  28.2202753  51.5706493
  70.9416993  27.5502753  50.7436493  71.1546993  27.8002753  51.4556493
  60.6306993  14.0672753  57.1566493  59.8526993  13.6772753  57.0846493
  61.1216993  13.6552753  56.5656493  60.5876993  13.9482753  57.0586493
  60.8356993  24.3872753  47.7146493  61.2586993  24.0312753  47.0406493
  61.1596993  23.9652753  48.4066493  60.9456993  24.2722753  47.7176493
  64.0666993  27.2392753  47.0106493  64.9106993  27.3432753  46.8156493
  63.7696993  28.0572753  47.0786493  64.1476993  27.3752753  46.9916493
  67.2796993  11.7102753  56.3246493  67.4576993  10.9012753  56.0496493
  67.1366993  12.1512753  55.5856493  67.2846993  11.6562753  56.1746493
  67.8736993  16.6362753  45.0976493  68.1606993  16.4042753  44.3076493
  68.6056993  16.7152753  45.5666493  68.0236993  16.6132753  45.0506493
  68.5956993  16.9752753  40.2186493  68.8766993  17.7632753  40.4676493
  67.8196993  17.1402753  39.8556493  68.5226993  17.1162753  40.2016493
  72.6366993  28.9492753  41.6856493  73.3016993  28.8012753  41.1406493
  72.9966993  28.8662753  42.4756493  72.7886993  28.9152753  41.7216493
  63.0646993  28.4582753  52.7506493  63.3566993  28.3912753  53.5706493
  62.4386993  27.8532753  52.7056493  63.0156993  28.3592753  52.8656493
  57.9786993  14.6152753  54.7426493  57.9746993  15.2022753  55.3886493
  58.5726993  14.9272753  54.1856493  58.0656993  14.7482753  54.7556493
  70.3166993  24.9492753  55.2846493  70.2826993  25.3312753  56.0686493
  71.1706993  24.9072753  55.1136493  70.4376993  24.9992753  55.3756493
  67.4546993  25.1462753  40.0346493  67.2736993  25.6912753  40.6916493
  68.2206993  25.4362753  39.7336493  67.5406993  25.2702753  40.0876493
  70.9616993  13.0422753  41.0886493  71.5016993  12.3602753  41.1646493
  71.0236993  13.4402753  41.8626493  71.0506993  13.0002753  41.2146493
  58.9156993  14.2102753  43.6576493  58.8016993  13.3462753  43.6886493
  58.4406993  14.5042753  44.3276493  58.8286993  14.1262753  43.7606493
  61.0576993  26.6202753  51.8726493  60.3596993  26.1122753  51.9986493
  61.3176993  26.4152753  51.0646493  60.9926993  26.5152753  51.7716493
  68.2196993  15.4182753  42.4026493  67.7116993  14.7562753  42.1486493
  68.2716993  15.9222753  41.6926493  68.1526993  15.3952753  42.2606493
  68.7686993  28.1132753  52.7826493  69.5366993  28.0332753  52.3766493
  68.1856993  27.9922753  52.1446493  68.7956993  28.0832753  52.6286493
  68.2196993  12.3592753  42.2936493  67.7646993  11.9572753  41.6676493
  68.9926993  12.5142753  41.9186493  68.2666993  12.3232753  42.1456493
  75.0456993  28.7162753  45.6836493  74.5906993  29.4332753  45.8846493
  74.4316993  28.1452753  45.4416493  74.8876993  28.7382753  45.6776493
  66.8176993  14.7262753  46.8156493  66.8916993  15.2942753  46.1576493
  66.9386993  15.2182753  47.5256493  66.8456993  14.8832753  46.8236493
  72.0426993  24.5612753  45.2276493  72.7436993  24.0792753  45.4166493
  71.3826993  23.9922753  45.2726493  72.0486993  24.4062753  45.2616493
  62.4186993  25.4712753  54.4396493  63.2596993  25.5342753  54.2176493
  62.3816993  25.8682753  55.2156493  62.5376993  25.5392753  54.5216493
  61.4256993  10.5492753  45.1636493  61.9616993  11.2372753  45.1536493
  61.4286993  10.2752753  44.3356493  61.5046993  10.6102753  45.0396493
  64.3816993  20.9822753  49.1886493  64.5536993  20.7722753  50.0176493
  63.7266993  20.4482753  48.9726493  64.3106993  20.8722753  49.2796493
  70.6096993  14.8962753  52.7036493  70.5146993  15.2152753  53.5096493
  70.0166993  14.2572753  52.6656493  70.5076993  14.8482753  52.8176493
  65.1316993  20.9202753  51.7786493  65.1846993  21.7672753  51.9806493
  64.8466993  20.5502753  52.5156493  65.0976993  20.9902753  51.9166493
  71.3086993  21.6152753  50.9086493  70.7946993  21.2032753  51.4796493
  71.1826993  22.4592753  51.0896493  71.2146993  21.6792753  51.0196493
  71.8656993  10.8402753  45.5396493  71.9146993  10.5222753  46.3506493
  72.1886993  10.1962753  45.0466493  71.9206993  10.6982753  45.5866493
  57.9526993  25.2912753  57.9896493  58.7086993  25.6402753  58.2476493
  58.1296993  24.4382753  57.9326493  58.0906993  25.2162753  58.0196493
  74.3296993  15.0762753  53.8476493  75.1016993  14.8512753  54.1846493
  73.8546993  15.2932753  54.5476493  74.3736993  15.0752753  54.0006493
  61.8736993  14.3592753  46.8176493  62.1456993  13.9292753  46.1096493
  61.6976993  13.7232753  47.3886493  61.8876993  14.2022753  46.7976493
  74.5616993  22.0542753  41.0356493  74.6806993  21.7672753  41.8506493
  75.3686993  22.0752753  40.7056493  74.6976993  22.0152753  41.1076493
  61.6976993  21.7862753  46.3666493  62.5486993  21.7062753  46.1936493
  61.3406993  21.1042753  45.9546493  61.7706993  21.6732753  46.2796493
  60.4646993  28.5112753  47.6036493  59.7916993  28.0132753  47.3586493
  60.8676993  28.6962753  46.8526493  60.4246993  28.4652753  47.4566493
  60.0146993  15.4612753  49.8996493  60.8576993  15.6812753  49.8566493
  59.6256993  16.0342753  49.3686493  60.0816993  15.5782753  49.8146493
  72.4566993  18.5912753  40.6206493  72.2366993  19.3222753  40.1986493
  72.0086993  18.6422753  41.3676493  72.3576993  18.7062753  40.6686493
  64.0656993  21.7932753  44.6016493  64.7786993  22.2882753  44.6916493
  64.2876993  21.2262753  43.9756493  64.2036993  21.7822753  44.5226493
  58.2216993  23.4362753  47.9216493  57.5546993  23.9242753  48.1976493
  58.9016993  23.9812753  47.9506493  58.2236993  23.5882753  47.9666493
  65.8686993  17.1462753  58.0176493  65.3846993  17.7232753  58.4596493
  65.8406993  17.4412753  57.1966493  65.7926993  17.2752753  57.9616493
  58.2876993  20.1202753  43.0246493  58.1026993  19.2812753  43.1766493
  58.9466993  20.0842753  42.4546493  58.3576993  19.9912753  42.9626493
  74.6456993  13.0102753  42.3526493  75.3916993  12.6032753  42.5516493
  74.9086993  13.7252753  41.9276493  74.7946993  13.0562753  42.3196493
  68.5886993  25.4962753  46.9286493  68.0656993  26.1302753  46.6356493
  68.8986993  25.1322753  46.1996493  68.5566993  25.5362753  46.7776493
  58.4596993  24.2842753  42.5996493  59.0116993  24.8532753  42.9636493
  58.2276993  23.7692753  43.2646493  58.5066993  24.2922753  42.7516493
  62.6636993  23.2842753  49.6886493  63.1306993  23.5732753  50.3666493
  63.2356993  22.8062753  49.2346493  62.8176993  23.2562753  49.7216493
  71.0996993  15.2982753  47.4256493  71.4436993  15.4502753  48.2126493
  70.6466993  14.5602753  47.5386493  71.0836993  15.2112753  47.5586493
  58.2896993  22.7332753  40.2276493  59.0456993  22.3012753  40.2856493
  58.3046993  23.2652753  40.9186493  58.4036993  22.7482753  40.3386493
  59.2296993  20.9542753  48.2326493  59.6606993  20.8252753  47.4856493
  59.0246993  21.8022753  48.2066493  59.2626993  21.0602753  48.1186493
  65.5756993  14.5182753  41.8826493  65.5736993  14.4012753  41.0176493
  65.3946993  15.3662753  41.9746493  65.5486993  14.6262753  41.7686493
  74.6296993  26.9452753  53.3796493  73.9586993  27.4592753  53.5976493
  74.6926993  27.0452753  52.5156493  74.5396993  27.0362753  53.2846493
  63.3136993  24.4702753  46.5146493  63.4396993  25.3132753  46.7016493
  63.9816993  24.0712753  46.9106493  63.4316993  24.5362753  46.6006493
  61.4436993  17.9532753  56.3766493  60.9076993  17.4472753  56.8446493
  61.4636993  17.5632753  55.5966493  61.3666993  17.8202753  56.3306493
  61.9286993  17.3502753  41.5166493  61.8006993  16.9022753  42.2546493
  61.3466993  17.0082753  40.9646493  61.8236993  17.2332753  41.5446493
  62.0956993  19.1802753  48.1156493  61.3146993  19.1212753  47.7326493
  62.1676993  18.4282753  48.5526493  61.9906993  19.0612753  48.1236493
  62.5256993  18.9172753  51.5836493  62.5506993  18.2422753  51.0326493
  61.8796993  19.4132753  51.2716493  62.4346993  18.8902753  51.4566493
  72.4206993  16.6302753  49.9796493  71.7586993  16.9582753  50.4426493
  72.6076993  17.2642753  49.4106493  72.3506993  16.7722753  49.9636493
  66.6256993  27.6942753  50.9756493  66.3486993  27.0532753  50.4526493
  66.4176993  28.4202753  50.5376493  66.5546993  27.7072753  50.8336493
  69.0656993  12.5362753  53.4086493  69.2146993  11.7112753  53.1656493
  69.4446993  12.5912753  54.1926493  69.1436993  12.4222753  53.4886493
  70.6136993  14.5992753  43.4906493  71.1036993  15.3162753  43.4136493
  69.8236993  14.8602753  43.2276493  70.5696993  14.7432753  43.4406493
  60.3246993  20.2722753  57.1426493  60.2876993  20.7732753  56.4286493
  60.6556993  19.5202753  56.8476493  60.3676993  20.2342753  56.9936493
  71.9276993  22.4772753  55.4006493  72.4116993  23.1952753  55.4986493
  72.3216993  22.0502753  54.7496493  72.0576993  22.5202753  55.3186493
  66.2236993  25.3222753  56.5776493  66.5776993  25.1442753  57.3546493
  65.7876993  24.5932753  56.3786493  66.2116993  25.1882753  56.6636493
  67.1956993  16.0692753  49.2156493  67.6756993  16.7682753  49.4236493
  67.5686993  15.4222753  49.6666493  67.3216993  16.0772753  49.3126493
  69.3846993  19.2382753  41.4896493  69.3766993  19.9602753  40.9996493
  68.7456993  19.3732753  42.0666493  69.2896993  19.3652753  41.5026493
  74.3566993  23.1082753  45.4706493  74.7126993  22.7582753  46.1856493
  74.3486993  22.4472753  44.9006493  74.4086993  22.9582753  45.4916493
  70.4016993  26.1742753  49.3146493  69.7986993  25.8782753  48.7576493
  70.9466993  26.6262753  48.8056493  70.3926993  26.1972753  49.1566493
  70.4146993  23.0252753  48.7146493  69.6176993  23.2492753  48.9886493
  70.6726993  22.4312753  49.2996493  70.3346993  22.9702753  48.8416493
  64.3066993  27.8372753  43.1626493  64.1596993  27.0612753  43.5336493
  64.9956993  27.6902753  42.6476493  64.3866993  27.7002753  43.1416493
  63.9776993  11.5802753  41.1506493  64.0746993  11.4732753  42.0116493
  63.2696993  12.0862753  41.0856493  63.8876993  11.6392753  41.2686493
  66.5986993  27.3532753  41.5646493  67.2206993  27.5162753  42.1546493
  66.6346993  28.0442753  41.0326493  66.6956993  27.4792753  41.5736493
  73.6746993  21.0232753  53.5606493  73.7296993  21.1482753  52.6986493
  74.4276993  21.3432753  53.8626493  73.7936993  21.0882753  53.4776493
  69.8656993  26.3722753  57.8376493  70.0296993  26.6552753  58.6466493
  70.1286993  27.0332753  57.3326493  69.9286993  26.5122753  57.8826493
  74.7066993  11.3212753  56.5476493  74.0696993  10.9212753  56.1056493
  74.7326993  10.8902753  57.3056493  74.6166993  11.1992753  56.5936493
  61.0996993  19.8872753  42.3936493  61.4236993  19.1082753  42.1716493
  61.7456993  20.2552753  42.8486493  61.2426993  19.8262753  42.4276493
  69.4056993  20.8292753  53.1606493  69.2506993  21.4392753  53.7646493
  69.9396993  20.2712753  53.5666493  69.4616993  20.8372753  53.3096493
  58.0966993  11.5482753  43.3616493  58.2256993  10.8402753  42.8696493
  57.7296993  11.2302753  44.0866493  58.0616993  11.3962753  43.3966493
  67.7896993  19.2292753  43.8186493  67.8486993  19.8792753  44.3976493
  67.6006993  18.5332753  44.3096493  67.7706993  19.2222753  43.9766493
  73.0156993  23.5582753  49.6876493  72.5366993  23.8562753  49.0216493
  72.6596993  22.7822753  49.8656493  72.8926993  23.4872753  49.6156493
  62.2856993  13.7462753  40.3306493  61.7746993  13.7992753  39.6246493
  63.0696993  13.9862753  40.0346493  62.3256993  13.7892753  40.1826493
  67.0126993  21.2762753  48.2496493  66.1656993  21.0822753  48.3306493
  67.3366993  21.1112753  49.0426493  66.9346993  21.2232753  48.3786493
  63.7646993  28.0062753  39.1356493  64.2036993  27.3092753  39.4236493
  63.9716993  28.6302753  39.7086493  63.8606993  27.9952753  39.2626493
  60.8606993  20.9692753  50.5656493  61.5826993  21.4572753  50.5286493
  60.5906993  20.9392753  49.7366493  60.9276993  21.0372753  50.4376493
  64.0906993  16.1402753  47.3006493  64.9366993  15.9502753  47.3986493
  63.7206993  15.3632753  47.1626493  64.1606993  15.9972753  47.2946493
  58.9116993  17.4782753  43.9556493  59.4006993  17.1862753  44.6166493
  59.0406993  16.8852753  43.3286493  59.0026993  17.3472753  43.9606493
  73.9466993  20.5002753  50.8066493  73.9396993  19.7242753  51.2046493
  73.1056993  20.7342753  50.7996493  73.8216993  20.4202753  50.8646493
  63.4366993  18.9122753  39.4416493  62.8266993  18.5072753  39.9156493
  63.0506993  19.0302753  38.6686493  63.2896993  18.8692753  39.3976493
  60.2556993  22.0212753  54.8436493  59.8346993  21.5032753  54.2826493
  59.9036993  22.8072753  54.7006493  60.1416993  22.0612753  54.7396493
  64.8916993  17.3732753  42.1516493  65.1636993  18.1992753  42.2186493
  64.0286993  17.4482753  42.0556493  64.8046993  17.5062753  42.1466493
  72.8646993  14.4952753  56.7836493  72.3396993  14.9542753  57.3076493
  72.5036993  13.7002753  56.7776493  72.7336993  14.4452753  56.8596493
  58.3716993  13.3432753  48.6876493  58.4156993  13.6872753  47.8866493
  59.1266993  13.5802753  49.0546493  58.4896993  13.4292753  48.6236493
  71.3566993  18.0642753  56.8596493  71.4296993  18.1682753  57.7226493
  70.7226993  18.6222753  56.6386493  71.2736993  18.1622753  56.9546493
  73.6246993  18.3832753  55.2246493  73.9436993  19.1692753  55.4276493
  73.2546993  18.1132753  55.9676493  73.6176993  18.4592753  55.3646493
  72.9386993  24.8072753  40.7546493  73.2726993  24.0012753  40.7896493
  72.1836993  24.7352753  41.1846493  72.8766993  24.6772753  40.8236493
  73.4206993  16.6412753  46.4136493  72.6756993  16.3182753  46.7316493
  73.4226993  17.4672753  46.6936493  73.3106993  16.7152753  46.5016493
  70.3126993  22.6822753  40.1576493  70.9966993  22.1682753  39.9886493
  69.8956993  22.7282753  39.3926493  70.3516993  22.6132753  40.0196493
  64.9946993  23.8322753  51.4616493  64.6966993  24.4242753  52.0286493
  65.0496993  24.2742753  50.7126493  64.9586993  23.9852753  51.4346493
  62.9736993  22.7822753  54.8596493  62.1676993  22.4922753  55.0266493
  62.8846993  23.6502753  54.8656493  62.8416993  22.8672753  54.8846493
  72.3326993  12.9712753  53.8746493  73.0766993  13.4232753  53.8116493
  71.7666993  13.4412753  53.4056493  72.3596993  13.1082753  53.7966493
  67.5106993  20.2552753  50.9526493  67.9866993  20.6292753  51.5806493
  66.6876993  20.3892753  51.2116493  67.4596993  20.3302753  51.0836493
  64.2206993  15.8582753  53.6936493  64.3816993  15.1142753  54.1206493
  64.1756993  15.6092753  52.8586493  64.2376993  15.7112753  53.6336493
  66.7746993  27.6482753  46.1806493  67.3206993  28.3272753  46.2346493
  66.4246993  27.7302753  45.3856493  66.8036993  27.7612753  46.0706493
  73.6176993  10.9512753  51.5446493  73.3376993  11.7762753  51.5006493
  74.3336993  11.0042753  52.0406493  73.6826993  11.0812753  51.6116493
  65.9726993  11.6662753  53.5736493  66.6776993  11.9862753  53.1716493
  66.2136993  10.8592753  53.8006493  66.1116993  11.5942753  53.5476493
  64.9576993  25.8762753  49.5696493  64.3336993  26.4582753  49.3876493
  65.2056993  25.5902753  48.7836493  64.9016993  25.9202753  49.4266493
  69.2666993  22.5102753  56.5586493  70.0236993  22.7962753  56.2326493
  68.7196993  22.5622753  55.8806493  69.2976993  22.5602753  56.4096493
  73.1756993  25.0602753  55.0626493  73.5216993  25.3302753  55.8166493
  73.4696993  25.6422753  54.4826493  73.2706993  25.1862753  55.0886493
  75.0386993  17.2062753  40.4016493  75.4166993  17.8832753  40.0016493
  74.1966993  17.4302753  40.4326493  74.9696993  17.3392753  40.3466493
  66.5516993  20.6522753  39.4846493  65.7466993  20.4752753  39.1996493
  66.5186993  21.5032753  39.6766493  66.4276993  20.7512753  39.4716493
  62.4816993  16.7192753  49.6346493  62.9216993  16.6162753  48.8886493
  63.0266993  16.4062753  50.2396493  62.6266993  16.6582753  49.6136493
  70.4976993  15.8212753  55.2266493  69.8496993  16.2912753  55.5746493
  71.0626993  15.7322753  55.8856493  70.4856993  15.8772753  55.3756493
  70.1856993  17.3582753  51.5246493  70.4876993  17.7782753  52.2276493
  70.2216993  16.5182753  51.7566493  70.2356993  17.2962753  51.6626493
  67.6106993  27.5252753  55.4496493  68.0886993  26.9252753  55.0336493
  67.2596993  27.0822753  56.1146493  67.6296993  27.3712753  55.4866493
  72.7336993  16.8052753  43.7766493  72.9406993  16.6042753  44.6006493
  73.4896993  17.0732753  43.4346493  72.8756993  16.8152753  43.8476493
  66.0286993  11.7042753  49.6816493  65.2026993  11.5552753  49.9186493
  65.9886993  11.7392753  48.8106493  65.9006993  11.6872753  49.5876493
  73.7556993  12.8882753  45.2506493  73.0416993  12.4172753  45.4216493
  73.5936993  13.2292753  44.4646493  73.6266993  12.8692753  45.1596493
  74.1986993  20.8322753  43.6306493  74.6746993  20.1032753  43.5826493
  73.3776993  20.5462753  43.5546493  74.1476993  20.6822753  43.6116493
  67.6696993  22.7442753  54.4696493  66.8746993  22.6802753  54.8206493
  67.7406993  23.5912753  54.2746493  67.5626993  22.8592753  54.4926493
  58.5936993  12.1022753  55.7166493  58.4536993  12.8972753  55.3856493
  57.8076993  11.8592753  56.0056493  58.4566993  12.1842753  55.7106493
  63.4996993  28.9512753  49.7866493  63.5106993  29.0102753  50.6566493
  63.0746993  28.2042753  49.6366493  63.4386993  28.8492753  49.8926493
  61.6576993  14.8462753  42.9416493  61.7836993  14.5172753  42.1436493
  60.8456993  14.5972753  43.1406493  61.5566993  14.7612753  42.8536493
  70.4146993  21.9992753  45.9856493  70.4906993  22.3402753  46.7846493
  70.5836993  21.1522753  46.1066493  70.4506993  21.9242753  46.1216493
  67.9366993  21.2732753  45.5506493  67.6386993  20.9582753  46.3076493
  68.6316993  21.7462753  45.7856493  67.9956993  21.2962753  45.6976493
  68.1586993  25.3912753  53.5776493  68.8456993  25.2772753  54.1026493
  68.2926993  26.1822753  53.2336493  68.2796993  25.4912753  53.6046493
  70.8476993  18.6652753  53.9646493  70.5926993  17.9462753  54.3866493
  71.6686993  18.7812753  54.2346493  70.9316993  18.5762753  54.0666493
  60.2636993  28.4492753  55.2286493  59.6096993  27.8802753  55.3266493
  59.8886993  29.2222753  55.3796493  60.1116993  28.4792753  55.2656493
  68.7816993  19.8552753  57.1516493  69.1046993  20.5412753  56.7196493
  68.0776993  20.1782753  57.5536493  68.7246993  20.0042753  57.1466493
  71.8656993  28.2292753  48.0806493  71.4146993  28.8722753  48.4596493
  72.5736993  28.1502753  48.5856493  71.9036993  28.3122753  48.2116493
  68.5666993  23.3192753  51.0106493  67.8726993  23.7212753  51.3536493
  69.2436993  23.7522753  51.3496493  68.5636993  23.4422753  51.1116493
  73.9436993  25.9122753  57.5906493  74.7196993  25.5222753  57.6736493
  73.4746993  25.5762753  58.2456493  73.9886993  25.8052753  57.6996493
  61.6346993  16.8572753  53.3576493  62.0096993  17.4762753  52.8706493
  62.3086993  16.3832753  53.6426493  61.7896993  16.8792753  53.3276493
  59.4096993  15.3052753  52.6326493  59.4866993  15.1362753  51.7796493
  60.1556993  15.7112753  52.8296493  59.5306993  15.3402753  52.5356493
  74.9686993  17.9452753  43.0726493  75.0716993  17.8872753  42.2086493
  75.7096993  17.6132753  43.3906493  75.0936993  17.8882753  42.9916493
  61.9636993  12.7152753  55.0436493  61.8826993  11.8712753  55.2496493
  61.6496993  12.7592753  54.2306493  61.9056993  12.5972753  54.9536493
  68.8886993  24.9102753  44.1796493  68.6836993  25.7432753  44.0206493
  68.1136993  24.5282753  44.3016493  68.7436993  24.9772753  44.1746493
  74.0706993  18.0912753  52.4286493  74.0686993  17.2282753  52.5526493
  74.1376993  18.4152753  53.2356493  74.0806993  18.0112753  52.5656493
  58.8066993  20.5312753  52.8566493  59.1266993  20.7502753  52.0756493
  58.7066993  19.6662753  52.8016493  58.8386993  20.4362753  52.7336493
  60.2626993  16.4672753  39.4746493  59.5906993  16.4812753  40.0306493
  60.3576993  15.6192753  39.2906493  60.1776993  16.3442753  39.5296493
  69.9496993  12.8912753  56.2106493  70.0416993  13.6032753  56.7046493
  69.3126993  12.4462753  56.6076493  69.8686993  12.9302753  56.3426493
  68.9436993  13.0812753  47.0646493  68.2436993  13.5992753  47.0086493
  68.9816993  12.7012753  46.2806493  68.8456993  13.1022753  46.9406493
  64.2506993  25.1722753  40.5886493  64.6916993  25.2522753  41.3366493
  63.4456993  24.9562753  40.8466493  64.1966993  25.1522753  40.7376493
  72.5416993  13.5972753  49.8646493  73.3966993  13.6962753  50.0096493
  72.1726993  14.1502753  50.4296493  72.6136993  13.6942753  49.9696493
  63.5696993  19.8232753  54.2416493  63.1736993  20.5972753  54.3166493
  63.1636993  19.4502753  53.5656493  63.4516993  19.8822753  54.1526493
  72.8456993  18.8772753  48.3556493  73.5116993  19.4182753  48.5156493
  72.5006993  19.1882753  47.6166493  72.8926993  19.0032753  48.2706493
  73.1586993  26.9432753  44.1626493  72.9846993  26.2892753  44.7126493
  73.8716993  26.6722753  43.7396493  73.2386993  26.8062753  44.1816493
  61.5796993  24.2422753  41.1896493  61.3356993  23.9352753  41.9696493
  61.5466993  23.5392753  40.6736493  61.5386993  24.0932753  41.2286493
  64.3986993  22.4872753  39.9326493  63.5806993  22.2192753  40.0726493
  64.3706993  23.3392753  40.1176493  64.2736993  22.5742753  39.9806493
  63.9986993  12.8002753  51.6916493  63.1346993  12.8842753  51.7716493
  64.2186993  12.2862753  52.3606493  63.9036993  12.7372753  51.8026493
  68.1016993  13.5482753  50.0656493  67.3646993  13.0942753  50.1786493
  68.6726993  13.1462753  50.5886493  68.0766993  13.4212753  50.1596493
  70.8336993  24.3962753  51.8536493  71.0396993  24.6972753  52.6456493
  70.7726993  25.1182753  51.3686493  70.8546993  24.5472753  51.8986493
  70.3676993  28.6102753  56.0996493  69.6146993  28.5922753  55.6586493
  70.5356993  29.4622753  56.1836493  70.2816993  28.7332753  56.0466493
  65.6046993  17.8772753  55.2696493  65.2826993  17.3012753  54.6996493
  65.2456993  18.6322753  55.0236493  65.5046993  17.9032753  55.1496493
  66.4006993  11.1292753  39.8966493  66.4786993  11.3762753  39.0636493
  65.6576993  11.5062753  40.1546493  66.3026993  11.2212753  39.8116493
  75.6456993  23.0352753  51.3116493  75.6136993  22.1732753  51.1766493
  74.9526993  23.3372753  50.8776493  75.5386993  22.9522753  51.2276493
  64.0396993  28.2332753  55.5176493  64.0806993  28.3592753  56.3806493
  64.6906993  27.6732753  55.3616493  64.1416993  28.1692753  55.6226493
  73.7506993  26.2952753  50.1086493  74.2776993  26.2122753  49.4176493
  73.3596993  25.5172753  50.1626493  73.7706993  26.1682753  50.0146493
  61.2186993  12.8832753  52.3396493  60.8756993  12.1162753  52.1056493
  60.5236993  13.4072753  52.4036493  61.0656993  12.8472753  52.3146493
  70.2646993  11.7392753  49.3166493  70.9346993  12.2832753  49.4436493
  69.7616993  12.1632753  48.7436493  70.2896993  11.8822753  49.2506493
  61.6326993  26.6162753  56.8776493  62.2276993  27.0472753  57.3496493
  61.2686993  27.2402753  56.3886493  61.6666993  26.7722753  56.8746493
  69.6236993  17.5472753  46.8096493  70.1746993  16.9402753  47.1096493
  69.1986993  17.8102753  47.5246493  69.6426993  17.4962753  46.9586493
  59.8716993  16.1972753  46.2956493  59.5036993  16.4992753  47.0266493
  60.4056993  15.5682753  46.5796493  59.8956993  16.1492753  46.4456493
  59.5596993  24.6052753  53.8066493  58.9856993  25.0212753  54.3156493
  60.2926993  25.0702753  53.9016493  59.5836993  24.7352753  53.8956493
  71.5936993  19.3782753  43.3716493  71.6616993  18.5282753  43.5526493
  70.7706993  19.4642753  43.0936493  71.4816993  19.2652753  43.3576493
  61.3456993  27.8722753  42.5816493  61.2006993  28.0282753  41.7356493
  62.2116993  27.9512753  42.6596493  61.4526993  27.9072753  42.4686493
  65.5126993  20.2692753  42.3096493  65.6126993  20.4082753  41.4546493
  66.3306993  20.2092753  42.6056493  65.6476993  20.2802753  42.2266493
  74.6726993  28.3332753  39.7896493  75.3096993  28.1992753  40.3706493
  74.3316993  27.5392753  39.6726493  74.7166993  28.1962753  39.8576493
  74.8676993  20.7512753  56.5226493  75.5016993  20.5812753  57.0966493
  75.2846993  21.1542753  55.8706493  75.0226993  20.7862753  56.5116493
  70.7476993  24.5982753  42.1116493  70.4966993  24.4702753  42.9376493
  70.4306993  23.9032753  41.6906493  70.6636993  24.4772753  42.1716493
  75.4926993  15.3152753  57.2606493  75.2966993  15.9592753  57.8156493
  74.7706993  14.8252753  57.2526493  75.3576993  15.3382753  57.3416493
  75.3916993  16.2562753  50.2316493  74.5586993  16.5062753  50.1596493
  75.3356993  15.4162753  50.4606493  75.2606993  16.1692753  50.2546493
  64.6516993  13.2442753  55.4256493  64.8856993  12.6682753  54.8126493
  63.8096993  13.0632753  55.5666493  64.5616993  13.1322753  55.3556493
  72.2786993  20.8622753  57.8776493  73.1496993  20.8262753  57.8416493
  72.0596993  21.2822753  57.1456493  72.3756993  20.9182753  57.7646493
  62.0326993  26.6872753  49.0586493  61.9536993  25.8772753  48.7426493
  61.5886993  27.1742753  48.4866493  61.9556993  26.6392753  48.9276493
  67.6336993  22.8062753  41.5416493  68.3506993  22.4592753  41.1856493
  67.5996993  23.6062753  41.1936493  67.7346993  22.8732753  41.4376493
  59.6046993  28.9312753  52.6396493  60.0976993  28.8752753  53.3576493
  59.7926993  28.1982753  52.2046493  59.7056993  28.8142753  52.6816493
  69.0426993  11.4472753  25.7804083  68.7976993  11.9352753  25.1004083
  69.9056993  11.3742753  25.6804083  69.1336993  11.5082753  25.6654083
  68.8516993  18.3632753  30.4514083  68.3276993  18.9592753  30.8144083
  69.2486993  17.9952753  31.1354083  68.8326993  18.3972753  30.6064083
  58.7206993  22.5032753  25.9074083  58.2796993  22.6212753  26.6504083
  58.4376993  21.7282753  25.6224083  58.6136993  22.4062753  25.9754083
  74.9956993  25.8042753  23.4224083  75.6966993  25.2852753  23.4184083
  74.4086993  25.3592753  22.9534083  75.0126993  25.6612753  23.3524083
  58.4636993  16.2952753  22.4144083  57.6856993  16.4572753  22.0544083
  58.5026993  15.4242753  22.4364083  58.3546993  16.1902753  22.3644083
  61.6026993  21.5582753  21.0864083  61.2106993  21.1872753  20.4004083
  61.5226993  20.9602753  21.7154083  61.5326993  21.4152753  21.0774083
  71.5226993  19.4302753  27.1274083  71.6026993  19.4342753  26.2584083
  70.9386993  18.7982753  27.2764083  71.4476993  19.3372753  27.0214083
  61.2296993  23.1992753  24.9864083  61.8376993  23.0292753  25.5894083
  60.4786993  23.0592753  25.4074083  61.2086993  23.1532753  25.1374083
  65.5116993  12.5342753  24.9354083  65.4416993  13.2112753  24.3894083
  66.2526993  12.1462753  24.6864083  65.6106993  12.5772753  24.8174083
  60.1206993  26.2902753  21.0634083  60.5876993  26.3742753  20.3314083
  60.5756993  25.7122753  21.5324083  60.2566993  26.2172753  21.0244083
  58.6606993  25.2382753  32.1624083  58.7896993  24.9582753  32.9784083
  58.0506993  24.6972753  31.8534083  58.5896993  25.1172753  32.2374083
  65.2346993  22.7632753  37.2294083  64.9986993  22.7602753  38.0694083
  64.4866993  22.6152753  36.8054083  65.0886993  22.7402753  37.2904083
  60.1066993  19.7592753  26.3644083  59.6446993  19.3672753  25.7374083
  60.8066993  19.2462753  26.4564083  60.1416993  19.6262753  26.2854083
  64.6146993  15.3692753  31.7114083  65.2926993  15.3872753  31.1624083
  64.5696993  14.5332753  31.9564083  64.7076993  15.2482753  31.6664083
  65.2166993  25.9552753  34.4924083  65.3546993  26.7152753  34.0854083
  66.0076993  25.5902753  34.5194083  65.3536993  26.0142753  34.4364083
  62.1076993  17.8592753  26.3874083  62.9246993  17.6722753  26.6304083
  61.6306993  17.2452753  26.7834083  62.1576993  17.7412753  26.4824083
  66.3116993  23.8402753  28.9974083  66.6596993  23.0412753  29.0274083
  66.9766993  24.3442753  28.7424083  66.4616993  23.7962753  28.9644083
  66.3686993  23.2892753  25.2084083  66.6996993  22.6452753  25.6944083
  66.6086993  23.0782753  24.3974083  66.4526993  23.1632753  25.1604083
  68.3366993  17.4202753  36.5474083  67.4886993  17.3212753  36.3694083
  68.3656993  18.1652753  37.0014083  68.2156993  17.5162753  36.5884083
  62.7046993  12.9532753  25.6534083  62.4086993  13.4542753  25.0034083
  63.5716993  13.0312753  25.5964083  62.7886993  13.0392753  25.5494083
  72.8946993  10.3802753  35.6614083  72.7366993  11.1492753  35.2794083
  72.1226993  10.1602753  36.0054083  72.7566993  10.4612753  35.6564083
  65.6836993  12.0952753  27.8764083  65.7566993  12.9552753  28.0054083
  65.6456993  12.0202753  27.0084083  65.6886993  12.2112753  27.7674083
  70.3566993  15.0212753  20.1754083  69.9066993  15.7022753  20.4824083
  70.4706993  14.5172753  20.8784083  70.3076993  15.0472753  20.3244083
  58.5626993  17.5202753  29.3774083  58.3066993  18.3512753  29.3024083
  57.8986993  17.1372753  29.7944083  58.4266993  17.5862753  29.4284083
  58.4726993  27.2302753  27.2774083  57.8806993  27.7882753  26.9644083
  58.8986993  26.9612753  26.5654083  58.4486993  27.2722753  27.1264083
  64.3126993  25.0742753  24.7574083  63.7336993  24.7992753  25.3494083
  64.9366993  24.4652753  24.7824083  64.3196993  24.9442753  24.8484083
  70.4556993  27.3622753  22.2794083  71.1826993  27.8342753  22.3814083
  70.6846993  26.5682753  22.5594083  70.5976993  27.3152753  22.3364083
  68.6236993  27.7542753  24.2694083  68.8376993  28.2812753  24.9314083
  69.3906993  27.5802753  23.8904083  68.7686993  27.8062753  24.3114083
  61.5916993  12.3372753  29.8684083  61.0706993  11.7092753  29.5604083
  62.1826993  11.9002753  30.3394083  61.6026993  12.1792753  29.8924083
  64.8976993  14.4702753  39.1664083  65.0146993  14.0162753  38.4304083
  65.1856993  15.2682753  38.9634083  64.9576993  14.5212753  39.0274083
  60.0176993  25.9002753  25.2084083  60.6736993  25.3252753  25.2234083
  60.4066993  26.6492753  24.9874083  60.1726993  25.9252753  25.1784083
  75.7506993  14.9942753  26.4704083  75.4046993  15.6722753  26.8964083
  75.1146993  14.3962753  26.4864083  75.6056993  15.0062753  26.5354083
  71.0626993  27.7642753  32.5744083  71.8066993  28.2202753  32.5644083
  70.9416993  27.5502753  31.7374083  71.1546993  27.8002753  32.4494083
  60.6306993  14.0672753  38.1504083  59.8526993  13.6772753  38.0784083
  61.1216993  13.6552753  37.5594083  60.5876993  13.9482753  38.0524083
  60.8356993  24.3872753  28.7084083  61.2586993  24.0312753  28.0344083
  61.1596993  23.9652753  29.4004083  60.9456993  24.2722753  28.7114083
  64.0666993  27.2392753  28.0044083  64.9106993  27.3432753  27.8094083
  63.7696993  28.0572753  28.0724083  64.1476993  27.3752753  27.9854083
  67.2796993  11.7102753  37.3184083  67.4576993  10.9012753  37.0434083
  67.1366993  12.1512753  36.5794083  67.2846993  11.6562753  37.1684083
  67.8736993  16.6362753  26.0914083  68.1606993  16.4042753  25.3014083
  68.6056993  16.7152753  26.5604083  68.0236993  16.6132753  26.0444083
  68.5956993  16.9752753  21.2124083  68.8766993  17.7632753  21.4614083
  67.8196993  17.1402753  20.8494083  68.5226993  17.1162753  21.1954083
  72.6366993  28.9492753  22.6794083  73.3016993  28.8012753  22.1344083
  72.9966993  28.8662753  23.4694083  72.7886993  28.9152753  22.7154083
  63.0646993  28.4582753  33.7444083  63.3566993  28.3912753  34.5644083
  62.4386993  27.8532753  33.6994083  63.0156993  28.3592753  33.8594083
  57.9786993  14.6152753  35.7364083  57.9746993  15.2022753  36.3824083
  58.5726993  14.9272753  35.1794083  58.0656993  14.7482753  35.7494083
  70.3166993  24.9492753  36.2784083  70.2826993  25.3312753  37.0624083
  71.1706993  24.9072753  36.1074083  70.4376993  24.9992753  36.3694083
  67.4546993  25.1462753  21.0284083  67.2736993  25.6912753  21.6854083
  68.2206993  25.4362753  20.7274083  67.5406993  25.2702753  21.0814083
  70.9616993  13.0422753  22.0824083  71.5016993  12.3602753  22.1584083
  71.0236993  13.4402753  22.8564083  71.0506993  13.0002753  22.2084083
  58.9156993  14.2102753  24.6514083  58.8016993  13.3462753  24.6824083
  58.4406993  14.5042753  25.3214083  58.8286993  14.1262753  24.7544083
  61.0576993  26.6202753  32.8664083  60.3596993  26.1122753  32.9924083
  61.3176993  26.4152753  32.0584083  60.9926993  26.5152753  32.7654083
  68.2196993  15.4182753  23.3964083  67.7116993  14.7562753  23.1424083
  68.2716993  15.9222753  22.6864083  68.1526993  15.3952753  23.2544083
  68.7686993  28.1132753  33.7764083  69.5366993  28.0332753  33.3704083
  68.1856993  27.9922753  33.1384083  68.7956993  28.0832753  33.6224083
  68.2196993  12.3592753  23.2874083  67.7646993  11.9572753  22.6614083
  68.9926993  12.5142753  22.9124083  68.2666993  12.3232753  23.1394083
  75.0456993  28.7162753  26.6774083  74.5906993  29.4332753  26.8784083
  74.4316993  28.1452753  26.4354083  74.8876993  28.7382753  26.6714083
  66.8176993  14.7262753  27.8094083  66.8916993  15.2942753  27.1514083
  66.9386993  15.2182753  28.5194083  66.8456993  14.8832753  27.8174083
  72.0426993  24.5612753  26.2214083  72.7436993  24.0792753  26.4104083
  71.3826993  23.9922753  26.2664083  72.0486993  24.4062753  26.2554083
  62.4186993  25.4712753  35.4334083  63.2596993  25.5342753  35.2114083
  62.3816993  25.8682753  36.2094083  62.5376993  25.5392753  35.5154083
  61.4256993  10.5492753  26.1574083  61.9616993  11.2372753  26.1474083
  61.4286993  10.2752753  25.3294083  61.5046993  10.6102753  26.0334083
  64.3816993  20.9822753  30.1824083  64.5536993  20.7722753  31.0114083
  63.7266993  20.4482753  29.9664083  64.3106993  20.8722753  30.2734083
  70.6096993  14.8962753  33.6974083  70.5146993  15.2152753  34.5034083
  70.0166993  14.2572753  33.6594083  70.5076993  14.8482753  33.8114083
  65.1316993  20.9202753  32.7724083  65.1846993  21.7672753  32.9744083
  64.8466993  20.5502753  33.5094083  65.0976993  20.9902753  32.9104083
  71.3086993  21.6152753  31.9024083  70.7946993  21.2032753  32.4734083
  71.1826993  22.4592753  32.0834083  71.2146993  21.6792753  32.0134083
  71.8656993  10.8402753  26.5334083  71.9146993  10.5222753  27.3444083
  72.1886993  10.1962753  26.0404083  71.9206993  10.6982753  26.5804083
  57.9526993  25.2912753  38.9834083  58.7086993  25.6402753  39.2414083
  58.1296993  24.4382753  38.9264083  58.0906993  25.2162753  39.0134083
  74.3296993  15.0762753  34.8414083  75.1016993  14.8512753  35.1784083
  73.8546993  15.2932753  35.5414083  74.3736993  15.0752753  34.9944083
  61.8736993  14.3592753  27.8114083  62.1456993  13.9292753  27.1034083
  61.6976993  13.7232753  28.3824083  61.8876993  14.2022753  27.7914083
  74.5616993  22.0542753  22.0294083  74.6806993  21.7672753  22.8444083
  75.3686993  22.0752753  21.6994083  74.6976993  22.0152753  22.1014083
  61.6976993  21.7862753  27.3604083  62.5486993  21.7062753  27.1874083
  61.3406993  21.1042753  26.9484083  61.7706993  21.6732753  27.2734083
  60.4646993  28.5112753  28.5974083  59.7916993  28.0132753  28.3524083
  60.8676993  28.6962753  27.8464083  60.4246993  28.4652753  28.4504083
  60.0146993  15.4612753  30.8934083  60.8576993  15.6812753  30.8504083
  59.6256993  16.0342753  30.3624083  60.0816993  15.5782753  30.8084083
  72.4566993  18.5912753  21.6144083  72.2366993  19.3222753  21.1924083
  72.0086993  18.6422753  22.3614083  72.3576993  18.7062753  21.6624083
  64.0656993  21.7932753  25.5954083  64.7786993  22.2882753  25.6854083
  64.2876993  21.2262753  24.9694083  64.2036993  21.7822753  25.5164083
  58.2216993  23.4362753  28.9154083  57.5546993  23.9242753  29.1914083
  58.9016993  23.9812753  28.9444083  58.2236993  23.5882753  28.9604083
  65.8686993  17.1462753  39.0114083  65.3846993  17.7232753  39.4534083
  65.8406993  17.4412753  38.1904083  65.7926993  17.2752753  38.9554083
  58.2876993  20.1202753  24.0184083  58.1026993  19.2812753  24.1704083
  58.9466993  20.0842753  23.4484083  58.3576993  19.9912753  23.9564083
  74.6456993  13.0102753  23.3464083  75.3916993  12.6032753  23.5454083
  74.9086993  13.7252753  22.9214083  74.7946993  13.0562753  23.3134083
  68.5886993  25.4962753  27.9224083  68.0656993  26.1302753  27.6294083
  68.8986993  25.1322753  27.1934083  68.5566993  25.5362753  27.7714083
  58.4596993  24.2842753  23.5934083  59.0116993  24.8532753  23.9574083
  58.2276993  23.7692753  24.2584083  58.5066993  24.2922753  23.7454083
  62.6636993  23.2842753  30.6824083  63.1306993  23.5732753  31.3604083
  63.2356993  22.8062753  30.2284083  62.8176993  23.2562753  30.7154083
  71.0996993  15.2982753  28.4194083  71.4436993  15.4502753  29.2064083
  70.6466993  14.5602753  28.5324083  71.0836993  15.2112753  28.5524083
  58.2896993  22.7332753  21.2214083  59.0456993  22.3012753  21.2794083
  58.3046993  23.2652753  21.9124083  58.4036993  22.7482753  21.3324083
  59.2296993  20.9542753  29.2264083  59.6606993  20.8252753  28.4794083
  59.0246993  21.8022753  29.2004083  59.2626993  21.0602753  29.1124083
  65.5756993  14.5182753  22.8764083  65.5736993  14.4012753  22.0114083
  65.3946993  15.3662753  22.9684083  65.5486993  14.6262753  22.7624083
  74.6296993  26.9452753  34.3734083  73.9586993  27.4592753  34.5914083
  74.6926993  27.0452753  33.5094083  74.5396993  27.0362753  34.2784083
  63.3136993  24.4702753  27.5084083  63.4396993  25.3132753  27.6954083
  63.9816993  24.0712753  27.9044083  63.4316993  24.5362753  27.5944083
  61.4436993  17.9532753  37.3704083  60.9076993  17.4472753  37.8384083
  61.4636993  17.5632753  36.5904083  61.3666993  17.8202753  37.3244083
  61.9286993  17.3502753  22.5104083  61.8006993  16.9022753  23.2484083
  61.3466993  17.0082753  21.9584083  61.8236993  17.2332753  22.5384083
  62.0956993  19.1802753  29.1094083  61.3146993  19.1212753  28.7264083
  62.1676993  18.4282753  29.5464083  61.9906993  19.0612753  29.1174083
  62.5256993  18.9172753  32.5774083  62.5506993  18.2422753  32.0264083
  61.8796993  19.4132753  32.2654083  62.4346993  18.8902753  32.4504083
  72.4206993  16.6302753  30.9734083  71.7586993  16.9582753  31.4364083
  72.6076993  17.2642753  30.4044083  72.3506993  16.7722753  30.9574083
  66.6256993  27.6942753  31.9694083  66.3486993  27.0532753  31.4464083
  66.4176993  28.4202753  31.5314083  66.5546993  27.7072753  31.8274083
  69.0656993  12.5362753  34.4024083  69.2146993  11.7112753  34.1594083
  69.4446993  12.5912753  35.1864083  69.1436993  12.4222753  34.4824083
  70.6136993  14.5992753  24.4844083  71.1036993  15.3162753  24.4074083
  69.8236993  14.8602753  24.2214083  70.5696993  14.7432753  24.4344083
  60.3246993  20.2722753  38.1364083  60.2876993  20.7732753  37.4224083
  60.6556993  19.5202753  37.8414083  60.3676993  20.2342753  37.9874083
  71.9276993  22.4772753  36.3944083  72.4116993  23.1952753  36.4924083
  72.3216993  22.0502753  35.7434083  72.0576993  22.5202753  36.3124083
  66.2236993  25.3222753  37.5714083  66.5776993  25.1442753  38.3484083
  65.7876993  24.5932753  37.3724083  66.2116993  25.1882753  37.6574083
  67.1956993  16.0692753  30.2094083  67.6756993  16.7682753  30.4174083
  67.5686993  15.4222753  30.6604083  67.3216993  16.0772753  30.3064083
  69.3846993  19.2382753  22.4834083  69.3766993  19.9602753  21.9934083
  68.7456993  19.3732753  23.0604083  69.2896993  19.3652753  22.4964083
  74.3566993  23.1082753  26.4644083  74.7126993  22.7582753  27.1794083
  74.3486993  22.4472753  25.8944083  74.4086993  22.9582753  26.4854083
  70.4016993  26.1742753  30.3084083  69.7986993  25.8782753  29.7514083
  70.9466993  26.6262753  29.7994083  70.3926993  26.1972753  30.1504083
  70.4146993  23.0252753  29.7084083  69.6176993  23.2492753  29.9824083
  70.6726993  22.4312753  30.2934083  70.3346993  22.9702753  29.8354083
  64.3066993  27.8372753  24.1564083  64.1596993  27.0612753  24.5274083
  64.9956993  27.6902753  23.6414083  64.3866993  27.7002753  24.1354083
  63.9776993  11.5802753  22.1444083  64.0746993  11.4732753  23.0054083
  63.2696993  12.0862753  22.0794083  63.8876993  11.6392753  22.2624083
  66.5986993  27.3532753  22.5584083  67.2206993  27.5162753  23.1484083
  66.6346993  28.0442753  22.0264083  66.6956993  27.4792753  22.5674083
  73.6746993  21.0232753  34.5544083  73.7296993  21.1482753  33.6924083
  74.4276993  21.3432753  34.8564083  73.7936993  21.0882753  34.4714083
  69.8656993  26.3722753  38.8314083  70.0296993  26.6552753  39.6404083
  70.1286993  27.0332753  38.3264083  69.9286993  26.5122753  38.8764083
  74.7066993  11.3212753  37.5414083  74.0696993  10.9212753  37.0994083
  74.7326993  10.8902753  38.2994083  74.6166993  11.1992753  37.5874083
  61.0996993  19.8872753  23.3874083  61.4236993  19.1082753  23.1654083
  61.7456993  20.2552753  23.8424083  61.2426993  19.8262753  23.4214083
  69.4056993  20.8292753  34.1544083  69.2506993  21.4392753  34.7584083
  69.9396993  20.2712753  34.5604083  69.4616993  20.8372753  34.3034083
  58.0966993  11.5482753  24.3554083  58.2256993  10.8402753  23.8634083
  57.7296993  11.2302753  25.0804083  58.0616993  11.3962753  24.3904083
  67.7896993  19.2292753  24.8124083  67.8486993  19.8792753  25.3914083
  67.6006993  18.5332753  25.3034083  67.7706993  19.2222753  24.9704083
  73.0156993  23.5582753  30.6814083  72.5366993  23.8562753  30.0154083
  72.6596993  22.7822753  30.8594083  72.8926993  23.4872753  30.6094083
  62.2856993  13.7462753  21.3244083  61.7746993  13.7992753  20.6184083
  63.0696993  13.9862753  21.0284083  62.3256993  13.7892753  21.1764083
  67.0126993  21.2762753  29.2434083  66.1656993  21.0822753  29.3244083
  67.3366993  21.1112753  30.0364083  66.9346993  21.2232753  29.3724083
  63.7646993  28.0062753  20.1294083  64.2036993  27.3092753  20.4174083
  63.9716993  28.6302753  20.7024083  63.8606993  27.9952753  20.2564083
  64.0906993  16.1402753  28.2944083  64.9366993  15.9502753  28.3924083
  63.7206993  15.3632753  28.1564083  64.1606993  15.9972753  28.2884083
  58.9116993  17.4782753  24.9494083  59.4006993  17.1862753  25.6104083
  59.0406993  16.8852753  24.3224083  59.0026993  17.3472753  24.9544083
  73.9466993  20.5002753  31.8004083  73.9396993  19.7242753  32.1984083
  73.1056993  20.7342753  31.7934083  73.8216993  20.4202753  31.8584083
  63.4366993  18.9122753  20.4354083  62.8266993  18.5072753  20.9094083
  63.0506993  19.0302753  19.6624083  63.2896993  18.8692753  20.3914083
  60.2556993  22.0212753  35.8374083  59.8346993  21.5032753  35.2764083
  59.9036993  22.8072753  35.6944083  60.1416993  22.0612753  35.7334083
  64.8916993  17.3732753  23.1454083  65.1636993  18.1992753  23.2124083
  64.0286993  17.4482753  23.0494083  64.8046993  17.5062753  23.1404083
  72.8646993  14.4952753  37.7774083  72.3396993  14.9542753  38.3014083
  72.5036993  13.7002753  37.7714083  72.7336993  14.4452753  37.8534083
  58.3716993  13.3432753  29.6814083  58.4156993  13.6872753  28.8804083
  59.1266993  13.5802753  30.0484083  58.4896993  13.4292753  29.6174083
  71.3566993  18.0642753  37.8534083  71.4296993  18.1682753  38.7164083
  70.7226993  18.6222753  37.6324083  71.2736993  18.1622753  37.9484083
  73.6246993  18.3832753  36.2184083  73.9436993  19.1692753  36.4214083
  73.2546993  18.1132753  36.9614083  73.6176993  18.4592753  36.3584083
  72.9386993  24.8072753  21.7484083  73.2726993  24.0012753  21.7834083
  72.1836993  24.7352753  22.1784083  72.8766993  24.6772753  21.8174083
  73.4206993  16.6412753  27.4074083  72.6756993  16.3182753  27.7254083
  73.4226993  17.4672753  27.6874083  73.3106993  16.7152753  27.4954083
  70.3126993  22.6822753  21.1514083  70.9966993  22.1682753  20.9824083
  69.8956993  22.7282753  20.3864083  70.3516993  22.6132753  21.0134083
  64.9946993  23.8322753  32.4554083  64.6966993  24.4242753  33.0224083
  65.0496993  24.2742753  31.7064083  64.9586993  23.9852753  32.4284083
  62.9736993  22.7822753  35.8534083  62.1676993  22.4922753  36.0204083
  62.8846993  23.6502753  35.8594083  62.8416993  22.8672753  35.8784083
  72.3326993  12.9712753  34.8684083  73.0766993  13.4232753  34.8054083
  71.7666993  13.4412753  34.3994083  72.3596993  13.1082753  34.7904083
  67.5106993  20.2552753  31.9464083  67.9866993  20.6292753  32.5744083
  66.6876993  20.3892753  32.2054083  67.4596993  20.3302753  32.0774083
  64.2206993  15.8582753  34.6874083  64.3816993  15.1142753  35.1144083
  64.1756993  15.6092753  33.8524083  64.2376993  15.7112753  34.6274083
  66.7746993  27.6482753  27.1744083  67.3206993  28.3272753  27.2284083
  66.4246993  27.7302753  26.3794083  66.8036993  27.7612753  27.0644083
  73.6176993  10.9512753  32.5384083  73.3376993  11.7762753  32.4944083
  74.3336993  11.0042753  33.0344083  73.6826993  11.0812753  32.6054083
  65.9726993  11.6662753  34.5674083  66.6776993  11.9862753  34.1654083
  66.2136993  10.8592753  34.7944083  66.1116993  11.5942753  34.5414083
  64.9576993  25.8762753  30.5634083  64.3336993  26.4582753  30.3814083
  65.2056993  25.5902753  29.7774083  64.9016993  25.9202753  30.4204083
  69.2666993  22.5102753  37.5524083  70.0236993  22.7962753  37.2264083
  68.7196993  22.5622753  36.8744083  69.2976993  22.5602753  37.4034083
  73.1756993  25.0602753  36.0564083  73.5216993  25.3302753  36.8104083
  73.4696993  25.6422753  35.4764083  73.2706993  25.1862753  36.0824083
  75.0386993  17.2062753  21.3954083  75.4166993  17.8832753  20.9954083
  74.1966993  17.4302753  21.4264083  74.9696993  17.3392753  21.3404083
  66.5516993  20.6522753  20.4784083  65.7466993  20.4752753  20.1934083
  66.5186993  21.5032753  20.6704083  66.4276993  20.7512753  20.4654083
  62.4816993  16.7192753  30.6284083  62.9216993  16.6162753  29.8824083
  63.0266993  16.4062753  31.2334083  62.6266993  16.6582753  30.6074083
  70.4976993  15.8212753  36.2204083  69.8496993  16.2912753  36.5684083
  71.0626993  15.7322753  36.8794083  70.4856993  15.8772753  36.3694083
  70.1856993  17.3582753  32.5184083  70.4876993  17.7782753  33.2214083
  70.2216993  16.5182753  32.7504083  70.2356993  17.2962753  32.6564083
  67.6106993  27.5252753  36.4434083  68.0886993  26.9252753  36.0274083
  67.2596993  27.0822753  37.1084083  67.6296993  27.3712753  36.4804083
  72.7336993  16.8052753  24.7704083  72.9406993  16.6042753  25.5944083
  73.4896993  17.0732753  24.4284083  72.8756993  16.8152753  24.8414083
  66.0286993  11.7042753  30.6754083  65.2026993  11.5552753  30.9124083
  65.9886993  11.7392753  29.8044083  65.9006993  11.6872753  30.5814083
  73.7556993  12.8882753  26.2444083  73.0416993  12.4172753  26.4154083
  73.5936993  13.2292753  25.4584083  73.6266993  12.8692753  26.1534083
  74.1986993  20.8322753  24.6244083  74.6746993  20.1032753  24.5764083
  73.3776993  20.5462753  24.5484083  74.1476993  20.6822753  24.6054083
  67.6696993  22.7442753  35.4634083  66.8746993  22.6802753  35.8144083
  67.7406993  23.5912753  35.2684083  67.5626993  22.8592753  35.4864083
  58.5936993  12.1022753  36.7104083  58.4536993  12.8972753  36.3794083
  57.8076993  11.8592753  36.9994083  58.4566993  12.1842753  36.7044083
  63.4996993  28.9512753  30.7804083  63.5106993  29.0102753  31.6504083
  63.0746993  28.2042753  30.6304083  63.4386993  28.8492753  30.8864083
  61.6576993  14.8462753  23.9354083  61.7836993  14.5172753  23.1374083
  60.8456993  14.5972753  24.1344083  61.5566993  14.7612753  23.8474083
  70.4146993  21.9992753  26.9794083  70.4906993  22.3402753  27.7784083
  70.5836993  21.1522753  27.1004083  70.4506993  21.9242753  27.1154083
  67.9366993  21.2732753  26.5444083  67.6386993  20.9582753  27.3014083
  68.6316993  21.7462753  26.7794083  67.9956993  21.2962753  26.6914083
  68.1586993  25.3912753  34.5714083  68.8456993  25.2772753  35.0964083
  68.2926993  26.1822753  34.2274083  68.2796993  25.4912753  34.5984083
  70.8476993  18.6652753  34.9584083  70.5926993  17.9462753  35.3804083
  71.6686993  18.7812753  35.2284083  70.9316993  18.5762753  35.0604083
  60.2636993  28.4492753  36.2224083  59.6096993  27.8802753  36.3204083
  59.8886993  29.2222753  36.3734083  60.1116993  28.4792753  36.2594083
  68.7816993  19.8552753  38.1454083  69.1046993  20.5412753  37.7134083
  68.0776993  20.1782753  38.5474083  68.7246993  20.0042753  38.1404083
  71.8656993  28.2292753  29.0744083  71.4146993  28.8722753  29.4534083
  72.5736993  28.1502753  29.5794083  71.9036993  28.3122753  29.2054083
  68.5666993  23.3192753  32.0044083  67.8726993  23.7212753  32.3474083
  69.2436993  23.7522753  32.3434083  68.5636993  23.4422753  32.1054083
  73.9436993  25.9122753  38.5844083  74.7196993  25.5222753  38.6674083
  73.4746993  25.5762753  39.2394083  73.9886993  25.8052753  38.6934083
  61.6346993  16.8572753  34.3514083  62.0096993  17.4762753  33.8644083
  62.3086993  16.3832753  34.6364083  61.7896993  16.8792753  34.3214083
  59.4096993  15.3052753  33.6264083  59.4866993  15.1362753  32.7734083
  60.1556993  15.7112753  33.8234083  59.5306993  15.3402753  33.5294083
  74.9686993  17.9452753  24.0664083  75.0716993  17.8872753  23.2024083
  75.7096993  17.6132753  24.3844083  75.0936993  17.8882753  23.9854083
  61.9636993  12.7152753  36.0374083  61.8826993  11.8712753  36.2434083
  61.6496993  12.7592753  35.2244083  61.9056993  12.5972753  35.9474083
  68.8886993  24.9102753  25.1734083  68.6836993  25.7432753  25.0144083
  68.1136993  24.5282753  25.2954083  68.7436993  24.9772753  25.1684083
  74.0706993  18.0912753  33.4224083  74.0686993  17.2282753  33.5464083
  74.1376993  18.4152753  34.2294083  74.0806993  18.0112753  33.5594083
  58.8066993  20.5312753  33.8504083  59.1266993  20.7502753  33.0694083
  58.7066993  19.6662753  33.7954083  58.8386993  20.4362753  33.7274083
  60.2626993  16.4672753  20.4684083  59.5906993  16.4812753  21.0244083
  60.3576993  15.6192753  20.2844083  60.1776993  16.3442753  20.5234083
  69.9496993  12.8912753  37.2044083  70.0416993  13.6032753  37.6984083
  69.3126993  12.4462753  37.6014083  69.8686993  12.9302753  37.3364083
  68.9436993  13.0812753  28.0584083  68.2436993  13.5992753  28.0024083
  68.9816993  12.7012753  27.2744083  68.8456993  13.1022753  27.9344083
  64.2506993  25.1722753  21.5824083  64.6916993  25.2522753  22.3304083
  63.4456993  24.9562753  21.8404083  64.1966993  25.1522753  21.7314083
  72.5416993  13.5972753  30.8584083  73.3966993  13.6962753  31.0034083
  72.1726993  14.1502753  31.4234083  72.6136993  13.6942753  30.9634083
  63.5696993  19.8232753  35.2354083  63.1736993  20.5972753  35.3104083
  63.1636993  19.4502753  34.5594083  63.4516993  19.8822753  35.1464083
  72.8456993  18.8772753  29.3494083  73.5116993  19.4182753  29.5094083
  72.5006993  19.1882753  28.6104083  72.8926993  19.0032753  29.2644083
  73.1586993  26.9432753  25.1564083  72.9846993  26.2892753  25.7064083
  73.8716993  26.6722753  24.7334083  73.2386993  26.8062753  25.1754083
  61.5796993  24.2422753  22.1834083  61.3356993  23.9352753  22.9634083
  61.5466993  23.5392753  21.6674083  61.5386993  24.0932753  22.2224083
  64.3986993  22.4872753  20.9264083  63.5806993  22.2192753  21.0664083
  64.3706993  23.3392753  21.1114083  64.2736993  22.5742753  20.9744083
  63.9986993  12.8002753  32.6854083  63.1346993  12.8842753  32.7654083
  64.2186993  12.2862753  33.3544083  63.9036993  12.7372753  32.7964083
  68.1016993  13.5482753  31.0594083  67.3646993  13.0942753  31.1724083
  68.6726993  13.1462753  31.5824083  68.0766993  13.4212753  31.1534083
  70.8336993  24.3962753  32.8474083  71.0396993  24.6972753  33.6394083
  70.7726993  25.1182753  32.3624083  70.8546993  24.5472753  32.8924083
  70.3676993  28.6102753  37.0934083  69.6146993  28.5922753  36.6524083
  70.5356993  29.4622753  37.1774083  70.2816993  28.7332753  37.0404083
  65.6046993  17.8772753  36.2634083  65.2826993  17.3012753  35.6934083
  65.2456993  18.6322753  36.0174083  65.5046993  17.9032753  36.1434083
  66.4006993  11.1292753  20.8904083  66.4786993  11.3762753  20.0574083
  65.6576993  11.5062753  21.1484083  66.3026993  11.2212753  20.8054083
  75.6456993  23.0352753  32.3054083  75.6136993  22.1732753  32.1704083
  74.9526993  23.3372753  31.8714083  75.5386993  22.9522753  32.2214083
  64.0396993  28.2332753  36.5114083  64.0806993  28.3592753  37.3744083
  64.6906993  27.6732753  36.3554083  64.1416993  28.1692753  36.6164083
  73.7506993  26.2952753  31.1024083  74.2776993  26.2122753  30.4114083
  73.3596993  25.5172753  31.1564083  73.7706993  26.1682753  31.0084083
  61.2186993  12.8832753  33.3334083  60.8756993  12.1162753  33.0994083
  60.5236993  13.4072753  33.3974083  61.0656993  12.8472753  33.3084083
  70.2646993  11.7392753  30.3104083  70.9346993  12.2832753  30.4374083
  69.7616993  12.1632753  29.7374083  70.2896993  11.8822753  30.2444083
  61.6326993  26.6162753  37.8714083  62.2276993  27.0472753  38.3434083
  61.2686993  27.2402753  37.3824083  61.6666993  26.7722753  37.8684083
  69.6236993  17.5472753  27.8034083  70.1746993  16.9402753  28.1034083
  69.1986993  17.8102753  28.5184083  69.6426993  17.4962753  27.9524083
  59.8716993  16.1972753  27.2894083  59.5036993  16.4992753  28.0204083
  60.4056993  15.5682753  27.5734083  59.8956993  16.1492753  27.4394083
  59.5596993  24.6052753  34.8004083  58.9856993  25.0212753  35.3094083
  60.2926993  25.0702753  34.8954083  59.5836993  24.7352753  34.8894083
  71.5936993  19.3782753  24.3654083  71.6616993  18.5282753  24.5464083
  70.7706993  19.4642753  24.0874083  71.4816993  19.2652753  24.3514083
  61.3456993  27.8722753  23.5754083  61.2006993  28.0282753  22.7294083
  62.2116993  27.9512753  23.6534083  61.4526993  27.9072753  23.4624083
  65.5126993  20.2692753  23.3034083  65.6126993  20.4082753  22.4484083
  66.3306993  20.2092753  23.5994083  65.6476993  20.2802753  23.2204083
  74.6726993  28.3332753  20.7834083  75.3096993  28.1992753  21.3644083
  74.3316993  27.5392753  20.6664083  74.7166993  28.1962753  20.8514083
  74.8676993  20.7512753  37.5164083  75.5016993  20.5812753  38.0904083
  75.2846993  21.1542753  36.8644083  75.0226993  20.7862753  37.5054083
  70.7476993  24.5982753  23.1054083  70.4966993  24.4702753  23.9314083
  70.4306993  23.9032753  22.6844083  70.6636993  24.4772753  23.1654083
  75.4926993  15.3152753  38.2544083  75.2966993  15.9592753  38.8094083
  74.7706993  14.8252753  38.2464083  75.3576993  15.3382753  38.3354083
  75.3916993  16.2562753  31.2254083  74.5586993  16.5062753  31.1534083
  75.3356993  15.4162753  31.4544083  75.2606993  16.1692753  31.2484083
  64.6516993  13.2442753  36.4194083  64.8856993  12.6682753  35.8064083
  63.8096993  13.0632753  36.5604083  64.5616993  13.1322753  36.3494083
  72.2786993  20.8622753  38.8714083  73.1496993  20.8262753  38.8354083
  72.0596993  21.2822753  38.1394083  72.3756993  20.9182753  38.7584083
  62.0326993  26.6872753  30.0524083  61.9536993  25.8772753  29.7364083
  61.5886993  27.1742753  29.4804083  61.9556993  26.6392753  29.9214083
  67.6336993  22.8062753  22.5354083  68.3506993  22.4592753  22.1794083
  67.5996993  23.6062753  22.1874083  67.7346993  22.8732753  22.4314083
  59.6046993  28.9312753  33.6334083  60.0976993  28.8752753  34.3514083
  59.7926993  28.1982753  33.1984083  59.7056993  28.8142753  33.6754083
  69.0426993  11.4472753   6.7741673  68.7976993  11.9352753   6.0941673
  69.9056993  11.3742753   6.6741673  69.1336993  11.5082753   6.6591673
  68.8516993  18.3632753  11.4451673  68.3276993  18.9592753  11.8081673
  69.2486993  17.9952753  12.1291673  68.8326993  18.3972753  11.6001673
  58.7206993  22.5032753   6.9011673  58.2796993  22.6212753   7.6441673
  58.4376993  21.7282753   6.6161673  58.6136993  22.4062753   6.9691673
  74.9956993  25.8042753   4.4161673  75.6966993  25.2852753   4.4121673
  74.4086993  25.3592753   3.9471673  75.0126993  25.6612753   4.3461673
  58.4636993  16.2952753   3.4081673  57.6856993  16.4572753   3.0481673
  58.5026993  15.4242753   3.4301673  58.3546993  16.1902753   3.3581673
  61.6026993  21.5582753   2.0801673  61.2106993  21.1872753   1.3941673
  61.5226993  20.9602753   2.7091673  61.5326993  21.4152753   2.0711673
  71.5226993  19.4302753   8.1211673  71.6026993  19.4342753   7.2521673
  70.9386993  18.7982753   8.2701673  71.4476993  19.3372753   8.0151673
  61.2296993  23.1992753   5.9801673  61.8376993  23.0292753   6.5831673
  60.4786993  23.0592753   6.4011673  61.2086993  23.1532753   6.1311673
  65.5116993  12.5342753   5.9291673  65.4416993  13.2112753   5.3831673
  66.2526993  12.1462753   5.6801673  65.6106993  12.5772753   5.8111673
  60.1206993  26.2902753   2.0571673  60.5876993  26.3742753   1.3251673
  60.5756993  25.7122753   2.5261673  60.2566993  26.2172753   2.0181673
  58.6606993  25.2382753  13.1561673  58.7896993  24.9582753  13.9721673
  58.0506993  24.6972753  12.8471673  58.5896993  25.1172753  13.2311673
  65.2346993  22.7632753  18.2231673  64.9986993  22.7602753  19.0631673
  64.4866993  22.6152753  17.7991673  65.0886993  22.7402753  18.2841673
  60.1066993  19.7592753   7.3581673  59.6446993  19.3672753   6.7311673
  60.8066993  19.2462753   7.4501673  60.1416993  19.6262753   7.2791673
  64.6146993  15.3692753  12.7051673  65.2926993  15.3872753  12.1561673
  64.5696993  14.5332753  12.9501673  64.7076993  15.2482753  12.6601673
  65.2166993  25.9552753  15.4861673  65.3546993  26.7152753  15.0791673
  66.0076993  25.5902753  15.5131673  65.3536993  26.0142753  15.4301673
  62.1076993  17.8592753   7.3811673  62.9246993  17.6722753   7.6241673
  61.6306993  17.2452753   7.7771673  62.1576993  17.7412753   7.4761673
  66.3116993  23.8402753   9.9911673  66.6596993  23.0412753  10.0211673
  66.9766993  24.3442753   9.7361673  66.4616993  23.7962753   9.9581673
  66.3686993  23.2892753   6.2021673  66.6996993  22.6452753   6.6881673
  66.6086993  23.0782753   5.3911673  66.4526993  23.1632753   6.1541673
  68.3366993  17.4202753  17.5411673  67.4886993  17.3212753  17.3631673
  68.3656993  18.1652753  17.9951673  68.2156993  17.5162753  17.5821673
  62.7046993  12.9532753   6.6471673  62.4086993  13.4542753   5.9971673
  63.5716993  13.0312753   6.5901673  62.7886993  13.0392753   6.5431673
  72.8946993  10.3802753  16.6551673  72.7366993  11.1492753  16.2731673
  72.1226993  10.1602753  16.9991673  72.7566993  10.4612753  16.6501673
  65.6836993  12.0952753   8.8701673  65.7566993  12.9552753   8.9991673
  65.6456993  12.0202753   8.0021673  65.6886993  12.2112753   8.7611673
  58.5626993  17.5202753  10.3711673  58.3066993  18.3512753  10.2961673
  57.8986993  17.1372753  10.7881673  58.4266993  17.5862753  10.4221673
  58.4726993  27.2302753   8.2711673  57.8806993  27.7882753   7.9581673
  58.8986993  26.9612753   7.5591673  58.4486993  27.2722753   8.1201673
  64.3126993  25.0742753   5.7511673  63.7336993  24.7992753   6.3431673
  64.9366993  24.4652753   5.7761673  64.3196993  24.9442753   5.8421673
  70.4556993  27.3622753   3.2731673  71.1826993  27.8342753   3.3751673
  70.6846993  26.5682753   3.5531673  70.5976993  27.3152753   3.3301673
  68.6236993  27.7542753   5.2631673  68.8376993  28.2812753   5.9251673
  69.3906993  27.5802753   4.8841673  68.7686993  27.8062753   5.3051673
  61.5916993  12.3372753  10.8621673  61.0706993  11.7092753  10.5541673
  62.1826993  11.9002753  11.3331673  61.6026993  12.1792753  10.8861673
  64.8976993  14.4702753  20.1601673  65.0146993  14.0162753  19.4241673
  65.1856993  15.2682753  19.9571673  64.9576993  14.5212753  20.0211673
  60.0176993  25.9002753   6.2021673  60.6736993  25.3252753   6.2171673
  60.4066993  26.6492753   5.9811673  60.1726993  25.9252753   6.1721673
  75.7506993  14.9942753   7.4641673  75.4046993  15.6722753   7.8901673
  75.1146993  14.3962753   7.4801673  75.6056993  15.0062753   7.5291673
  71.0626993  27.7642753  13.5681673  71.8066993  28.2202753  13.5581673
  70.9416993  27.5502753  12.7311673  71.1546993  27.8002753  13.4431673
  60.6306993  14.0672753  19.1441673  59.8526993  13.6772753  19.0721673
  61.1216993  13.6552753  18.5531673  60.5876993  13.9482753  19.0461673
  60.8356993  24.3872753   9.7021673  61.2586993  24.0312753   9.0281673
  61.1596993  23.9652753  10.3941673  60.9456993  24.2722753   9.7051673
  64.0666993  27.2392753   8.9981673  64.9106993  27.3432753   8.8031673
  63.7696993  28.0572753   9.0661673  64.1476993  27.3752753   8.9791673
  67.2796993  11.7102753  18.3121673  67.4576993  10.9012753  18.0371673
  67.1366993  12.1512753  17.5731673  67.2846993  11.6562753  18.1621673
  67.8736993  16.6362753   7.0851673  68.1606993  16.4042753   6.2951673
  68.6056993  16.7152753   7.5541673  68.0236993  16.6132753   7.0381673
  68.5956993  16.9752753   2.2061673  68.8766993  17.7632753   2.4551673
  67.8196993  17.1402753   1.8431673  68.5226993  17.1162753   2.1891673
  72.6366993  28.9492753   3.6731673  73.3016993  28.8012753   3.1281673
  72.9966993  28.8662753   4.4631673  72.7886993  28.9152753   3.7091673
  63.0646993  28.4582753  14.7381673  63.3566993  28.3912753  15.5581673
  62.4386993  27.8532753  14.6931673  63.0156993  28.3592753  14.8531673
  57.9786993  14.6152753  16.7301673  57.9746993  15.2022753  17.3761673
  58.5726993  14.9272753  16.1731673  58.0656993  14.7482753  16.7431673
  70.3166993  24.9492753  17.2721673  70.2826993  25.3312753  18.0561673
  71.1706993  24.9072753  17.1011673  70.4376993  24.9992753  17.3631673
  67.4546993  25.1462753   2.0221673  67.2736993  25.6912753   2.6791673
  68.2206993  25.4362753   1.7211673  67.5406993  25.2702753   2.0751673
  70.9616993  13.0422753   3.0761673  71.5016993  12.3602753   3.1521673
  71.0236993  13.4402753   3.8501673  71.0506993  13.0002753   3.2021673
  58.9156993  14.2102753   5.6451673  58.8016993  13.3462753   5.6761673
  58.4406993  14.5042753   6.3151673  58.8286993  14.1262753   5.7481673
  61.0576993  26.6202753  13.8601673  60.3596993  26.1122753  13.9861673
  61.3176993  26.4152753  13.0521673  60.9926993  26.5152753  13.7591673
  68.2196993  15.4182753   4.3901673  67.7116993  14.7562753   4.1361673
  68.2716993  15.9222753   3.6801673  68.1526993  15.3952753   4.2481673
  68.7686993  28.1132753  14.7701673  69.5366993  28.0332753  14.3641673
  68.1856993  27.9922753  14.1321673  68.7956993  28.0832753  14.6161673
  68.2196993  12.3592753   4.2811673  67.7646993  11.9572753   3.6551673
  68.9926993  12.5142753   3.9061673  68.2666993  12.3232753   4.1331673
  75.0456993  28.7162753   7.6711673  74.5906993  29.4332753   7.8721673
  74.4316993  28.1452753   7.4291673  74.8876993  28.7382753   7.6651673
  66.8176993  14.7262753   8.8031673  66.8916993  15.2942753   8.1451673
  66.9386993  15.2182753   9.5131673  66.8456993  14.8832753   8.8111673
  72.0426993  24.5612753   7.2151673  72.7436993  24.0792753   7.4041673
  71.3826993  23.9922753   7.2601673  72.0486993  24.4062753   7.2491673
  62.4186993  25.4712753  16.4271673  63.2596993  25.5342753  16.2051673
  62.3816993  25.8682753  17.2031673  62.5376993  25.5392753  16.5091673
  61.4256993  10.5492753   7.1511673  61.9616993  11.2372753   7.1411673
  61.4286993  10.2752753   6.3231673  61.5046993  10.6102753   7.0271673
  64.3816993  20.9822753  11.1761673  64.5536993  20.7722753  12.0051673
  63.7266993  20.4482753  10.9601673  64.3106993  20.8722753  11.2671673
  70.6096993  14.8962753  14.6911673  70.5146993  15.2152753  15.4971673
  70.0166993  14.2572753  14.6531673  70.5076993  14.8482753  14.8051673
  65.1316993  20.9202753  13.7661673  65.1846993  21.7672753  13.9681673
  64.8466993  20.5502753  14.5031673  65.0976993  20.9902753  13.9041673
  71.3086993  21.6152753  12.8961673  70.7946993  21.2032753  13.4671673
  71.1826993  22.4592753  13.0771673  71.2146993  21.6792753  13.0071673
  71.8656993  10.8402753   7.5271673  71.9146993  10.5222753   8.3381673
  72.1886993  10.1962753   7.0341673  71.9206993  10.6982753   7.5741673
  57.9526993  25.2912753  19.9771673  58.7086993  25.6402753  20.2351673
  58.1296993  24.4382753  19.9201673  58.0906993  25.2162753  20.0071673
  74.3296993  15.0762753  15.8351673  75.1016993  14.8512753  16.1721673
  73.8546993  15.2932753  16.5351673  74.3736993  15.0752753  15.9881673
  61.8736993  14.3592753   8.8051673  62.1456993  13.9292753   8.0971673
  61.6976993  13.7232753   9.3761673  61.8876993  14.2022753   8.7851673
  74.5616993  22.0542753   3.0231673  74.6806993  21.7672753   3.8381673
  75.3686993  22.0752753   2.6931673  74.6976993  22.0152753   3.0951673
  61.6976993  21.7862753   8.3541673  62.5486993  21.7062753   8.1811673
  61.3406993  21.1042753   7.9421673  61.7706993  21.6732753   8.2671673
  60.4646993  28.5112753   9.5911673  59.7916993  28.0132753   9.3461673
  60.8676993  28.6962753   8.8401673  60.4246993  28.4652753   9.4441673
  60.0146993  15.4612753  11.8871673  60.8576993  15.6812753  11.8441673
  59.6256993  16.0342753  11.3561673  60.0816993  15.5782753  11.8021673
  72.4566993  18.5912753   2.6081673  72.2366993  19.3222753   2.1861673
  72.0086993  18.6422753   3.3551673  72.3576993  18.7062753   2.6561673
  64.0656993  21.7932753   6.5891673  64.7786993  22.2882753   6.6791673
  64.2876993  21.2262753   5.9631673  64.2036993  21.7822753   6.5101673
  58.2216993  23.4362753   9.9091673  57.5546993  23.9242753  10.1851673
  58.9016993  23.9812753   9.9381673  58.2236993  23.5882753   9.9541673
  65.8686993  17.1462753  20.0051673  65.3846993  17.7232753  20.4471673
  65.8406993  17.4412753  19.1841673  65.7926993  17.2752753  19.9491673
  58.2876993  20.1202753   5.0121673  58.1026993  19.2812753   5.1641673
  58.9466993  20.0842753   4.4421673  58.3576993  19.9912753   4.9501673
  74.6456993  13.0102753   4.3401673  75.3916993  12.6032753   4.5391673
  74.9086993  13.7252753   3.9151673  74.7946993  13.0562753   4.3071673
  68.5886993  25.4962753   8.9161673  68.0656993  26.1302753   8.6231673
  68.8986993  25.1322753   8.1871673  68.5566993  25.5362753   8.7651673
  58.4596993  24.2842753   4.5871673  59.0116993  24.8532753   4.9511673
  58.2276993  23.7692753   5.2521673  58.5066993  24.2922753   4.7391673
  62.6636993  23.2842753  11.6761673  63.1306993  23.5732753  12.3541673
  63.2356993  22.8062753  11.2221673  62.8176993  23.2562753  11.7091673
  71.0996993  15.2982753   9.4131673  71.4436993  15.4502753  10.2001673
  70.6466993  14.5602753   9.5261673  71.0836993  15.2112753   9.5461673
  58.2896993  22.7332753   2.2151673  59.0456993  22.3012753   2.2731673
  58.3046993  23.2652753   2.9061673  58.4036993  22.7482753   2.3261673
  59.2296993  20.9542753  10.2201673  59.6606993  20.8252753   9.4731673
  59.0246993  21.8022753  10.1941673  59.2626993  21.0602753  10.1061673
  65.5756993  14.5182753   3.8701673  65.5736993  14.4012753   3.0051673
  65.3946993  15.3662753   3.9621673  65.5486993  14.6262753   3.7561673
  74.6296993  26.9452753  15.3671673  73.9586993  27.4592753  15.5851673
  74.6926993  27.0452753  14.5031673  74.5396993  27.0362753  15.2721673
  63.3136993  24.4702753   8.5021673  63.4396993  25.3132753   8.6891673
  63.9816993  24.0712753   8.8981673  63.4316993  24.5362753   8.5881673
  61.4436993  17.9532753  18.3641673  60.9076993  17.4472753  18.8321673
  61.4636993  17.5632753  17.5841673  61.3666993  17.8202753  18.3181673
  61.9286993  17.3502753   3.5041673  61.8006993  16.9022753   4.2421673
  61.3466993  17.0082753   2.9521673  61.8236993  17.2332753   3.5321673
  62.0956993  19.1802753  10.1031673  61.3146993  19.1212753   9.7201673
  62.1676993  18.4282753  10.5401673  61.9906993  19.0612753  10.1111673
  62.5256993  18.9172753  13.5711673  62.5506993  18.2422753  13.0201673
  61.8796993  19.4132753  13.2591673  62.4346993  18.8902753  13.4441673
  72.4206993  16.6302753  11.9671673  71.7586993  16.9582753  12.4301673
  72.6076993  17.2642753  11.3981673  72.3506993  16.7722753  11.9511673
  66.6256993  27.6942753  12.9631673  66.3486993  27.0532753  12.4401673
  66.4176993  28.4202753  12.5251673  66.5546993  27.7072753  12.8211673
  69.0656993  12.5362753  15.3961673  69.2146993  11.7112753  15.1531673
  69.4446993  12.5912753  16.1801673  69.1436993  12.4222753  15.4761673
  70.6136993  14.5992753   5.4781673  71.1036993  15.3162753   5.4011673
  69.8236993  14.8602753   5.2151673  70.5696993  14.7432753   5.4281673
  60.3246993  20.2722753  19.1301673  60.2876993  20.7732753  18.4161673
  60.6556993  19.5202753  18.8351673  60.3676993  20.2342753  18.9811673
  71.9276993  22.4772753  17.3881673  72.4116993  23.1952753  17.4861673
  72.3216993  22.0502753  16.7371673  72.0576993  22.5202753  17.3061673
  66.2236993  25.3222753  18.5651673  66.5776993  25.1442753  19.3421673
  65.7876993  24.5932753  18.3661673  66.2116993  25.1882753  18.6511673
  67.1956993  16.0692753  11.2031673  67.6756993  16.7682753  11.4111673
  67.5686993  15.4222753  11.6541673  67.3216993  16.0772753  11.3001673
  69.3846993  19.2382753   3.4771673  69.3766993  19.9602753   2.9871673
  68.7456993  19.3732753   4.0541673  69.2896993  19.3652753   3.4901673
  74.3566993  23.1082753   7.4581673  74.7126993  22.7582753   8.1731673
  74.3486993  22.4472753   6.8881673  74.4086993  22.9582753   7.4791673
  70.4016993  26.1742753  11.3021673  69.7986993  25.8782753  10.7451673
  70.9466993  26.6262753  10.7931673  70.3926993  26.1972753  11.1441673
  70.4146993  23.0252753  10.7021673  69.6176993  23.2492753  10.9761673
  70.6726993  22.4312753  11.2871673  70.3346993  22.9702753  10.8291673
  64.3066993  27.8372753   5.1501673  64.1596993  27.0612753   5.5211673
  64.9956993  27.6902753   4.6351673  64.3866993  27.7002753   5.1291673
  63.9776993  11.5802753   3.1381673  64.0746993  11.4732753   3.9991673
  63.2696993  12.0862753   3.0731673  63.8876993  11.6392753   3.2561673
  66.5986993  27.3532753   3.5521673  67.2206993  27.5162753   4.1421673
  66.6346993  28.0442753   3.0201673  66.6956993  27.4792753   3.5611673
  73.6746993  21.0232753  15.5481673  73.7296993  21.1482753  14.6861673
  74.4276993  21.3432753  15.8501673  73.7936993  21.0882753  15.4651673
  69.8656993  26.3722753  19.8251673  70.0296993  26.6552753  20.6341673
  70.1286993  27.0332753  19.3201673  69.9286993  26.5122753  19.8701673
  74.7066993  11.3212753  18.5351673  74.0696993  10.9212753  18.0931673
  74.7326993  10.8902753  19.2931673  74.6166993  11.1992753  18.5811673
  61.0996993  19.8872753   4.3811673  61.4236993  19.1082753   4.1591673
  61.7456993  20.2552753   4.8361673  61.2426993  19.8262753   4.4151673
  69.4056993  20.8292753  15.1481673  69.2506993  21.4392753  15.7521673
  69.9396993  20.2712753  15.5541673  69.4616993  20.8372753  15.2971673
  58.0966993  11.5482753   5.3491673  58.2256993  10.8402753   4.8571673
  57.7296993  11.2302753   6.0741673  58.0616993  11.3962753   5.3841673
  67.7896993  19.2292753   5.8061673  67.8486993  19.8792753   6.3851673
  67.6006993  18.5332753   6.2971673  67.7706993  19.2222753   5.9641673
  73.0156993  23.5582753  11.6751673  72.5366993  23.8562753  11.0091673
  72.6596993  22.7822753  11.8531673  72.8926993  23.4872753  11.6031673
  62.2856993  13.7462753   2.3181673  61.7746993  13.7992753   1.6121673
  63.0696993  13.9862753   2.0221673  62.3256993  13.7892753   2.1701673
  67.0126993  21.2762753  10.2371673  66.1656993  21.0822753  10.3181673
  67.3366993  21.1112753  11.0301673  66.9346993  21.2232753  10.3661673
  60.8606993  20.9692753  12.5531673  61.5826993  21.4572753  12.5161673
  60.5906993  20.9392753  11.7241673  60.9276993  21.0372753  12.4251673
  64.0906993  16.1402753   9.2881673  64.9366993  15.9502753   9.3861673
  63.7206993  15.3632753   9.1501673  64.1606993  15.9972753   9.2821673
  58.9116993  17.4782753   5.9431673  59.4006993  17.1862753   6.6041673
  59.0406993  16.8852753   5.3161673  59.0026993  17.3472753   5.9481673
  73.9466993  20.5002753  12.7941673  73.9396993  19.7242753  13.1921673
  73.1056993  20.7342753  12.7871673  73.8216993  20.4202753  12.8521673
  60.2556993  22.0212753  16.8311673  59.8346993  21.5032753  16.2701673
  59.9036993  22.8072753  16.6881673  60.1416993  22.0612753  16.7271673
  64.8916993  17.3732753   4.1391673  65.1636993  18.1992753   4.2061673
  64.0286993  17.4482753   4.0431673  64.8046993  17.5062753   4.1341673
  72.8646993  14.4952753  18.7711673  72.3396993  14.9542753  19.2951673
  72.5036993  13.7002753  18.7651673  72.7336993  14.4452753  18.8471673
  58.3716993  13.3432753  10.6751673  58.4156993  13.6872753   9.8741673
  59.1266993  13.5802753  11.0421673  58.4896993  13.4292753  10.6111673
  71.3566993  18.0642753  18.8471673  71.4296993  18.1682753  19.7101673
  70.7226993  18.6222753  18.6261673  71.2736993  18.1622753  18.9421673
  73.6246993  18.3832753  17.2121673  73.9436993  19.1692753  17.4151673
  73.2546993  18.1132753  17.9551673  73.6176993  18.4592753  17.3521673
  72.9386993  24.8072753   2.7421673  73.2726993  24.0012753   2.7771673
  72.1836993  24.7352753   3.1721673  72.8766993  24.6772753   2.8111673
  73.4206993  16.6412753   8.4011673  72.6756993  16.3182753   8.7191673
  73.4226993  17.4672753   8.6811673  73.3106993  16.7152753   8.4891673
  70.3126993  22.6822753   2.1451673  70.9966993  22.1682753   1.9761673
  69.8956993  22.7282753   1.3801673  70.3516993  22.6132753   2.0071673
  64.9946993  23.8322753  13.4491673  64.6966993  24.4242753  14.0161673
  65.0496993  24.2742753  12.7001673  64.9586993  23.9852753  13.4221673
  62.9736993  22.7822753  16.8471673  62.1676993  22.4922753  17.0141673
  62.8846993  23.6502753  16.8531673  62.8416993  22.8672753  16.8721673
  72.3326993  12.9712753  15.8621673  73.0766993  13.4232753  15.7991673
  71.7666993  13.4412753  15.3931673  72.3596993  13.1082753  15.7841673
  67.5106993  20.2552753  12.9401673  67.9866993  20.6292753  13.5681673
  66.6876993  20.3892753  13.1991673  67.4596993  20.3302753  13.0711673
  64.2206993  15.8582753  15.6811673  64.3816993  15.1142753  16.1081673
  64.1756993  15.6092753  14.8461673  64.2376993  15.7112753  15.6211673
  66.7746993  27.6482753   8.1681673  67.3206993  28.3272753   8.2221673
  66.4246993  27.7302753   7.3731673  66.8036993  27.7612753   8.0581673
  73.6176993  10.9512753  13.5321673  73.3376993  11.7762753  13.4881673
  74.3336993  11.0042753  14.0281673  73.6826993  11.0812753  13.5991673
  65.9726993  11.6662753  15.5611673  66.6776993  11.9862753  15.1591673
  66.2136993  10.8592753  15.7881673  66.1116993  11.5942753  15.5351673
  64.9576993  25.8762753  11.5571673  64.3336993  26.4582753  11.3751673
  65.2056993  25.5902753  10.7711673  64.9016993  25.9202753  11.4141673
  69.2666993  22.5102753  18.5461673  70.0236993  22.7962753  18.2201673
  68.7196993  22.5622753  17.8681673  69.2976993  22.5602753  18.3971673
  73.1756993  25.0602753  17.0501673  73.5216993  25.3302753  17.8041673
  73.4696993  25.6422753  16.4701673  73.2706993  25.1862753  17.0761673
  75.0386993  17.2062753   2.3891673  75.4166993  17.8832753   1.9891673
  74.1966993  17.4302753   2.4201673  74.9696993  17.3392753   2.3341673
  62.4816993  16.7192753  11.6221673  62.9216993  16.6162753  10.8761673
  63.0266993  16.4062753  12.2271673  62.6266993  16.6582753  11.6011673
  70.4976993  15.8212753  17.2141673  69.8496993  16.2912753  17.5621673
  71.0626993  15.7322753  17.8731673  70.4856993  15.8772753  17.3631673
  70.1856993  17.3582753  13.5121673  70.4876993  17.7782753  14.2151673
  70.2216993  16.5182753  13.7441673  70.2356993  17.2962753  13.6501673
  67.6106993  27.5252753  17.4371673  68.0886993  26.9252753  17.0211673
  67.2596993  27.0822753  18.1021673  67.6296993  27.3712753  17.4741673
  72.7336993  16.8052753   5.7641673  72.9406993  16.6042753   6.5881673
  73.4896993  17.0732753   5.4221673  72.8756993  16.8152753   5.8351673
  66.0286993  11.7042753  11.6691673  65.2026993  11.5552753  11.9061673
  65.9886993  11.7392753  10.7981673  65.9006993  11.6872753  11.5751673
  73.7556993  12.8882753   7.2381673  73.0416993  12.4172753   7.4091673
  73.5936993  13.2292753   6.4521673  73.6266993  12.8692753   7.1471673
  74.1986993  20.8322753   5.6181673  74.6746993  20.1032753   5.5701673
  73.3776993  20.5462753   5.5421673  74.1476993  20.6822753   5.5991673
  67.6696993  22.7442753  16.4571673  66.8746993  22.6802753  16.8081673
  67.7406993  23.5912753  16.2621673  67.5626993  22.8592753  16.4801673
  58.5936993  12.1022753  17.7041673  58.4536993  12.8972753  17.3731673
  57.8076993  11.8592753  17.9931673  58.4566993  12.1842753  17.6981673
  63.4996993  28.9512753  11.7741673  63.5106993  29.0102753  12.6441673
  63.0746993  28.2042753  11.6241673  63.4386993  28.8492753  11.8801673
  61.6576993  14.8462753   4.9291673  61.7836993  14.5172753   4.1311673
  60.8456993  14.5972753   5.1281673  61.5566993  14.7612753   4.8411673
  70.4146993  21.9992753   7.9731673  70.4906993  22.3402753   8.7721673
  70.5836993  21.1522753   8.0941673  70.4506993  21.9242753   8.1091673
  67.9366993  21.2732753   7.5381673  67.6386993  20.9582753   8.2951673
  68.6316993  21.7462753   7.7731673  67.9956993  21.2962753   7.6851673
  68.1586993  25.3912753  15.5651673  68.8456993  25.2772753  16.0901673
  68.2926993  26.1822753  15.2211673  68.2796993  25.4912753  15.5921673
  70.8476993  18.6652753  15.9521673  70.5926993  17.9462753  16.3741673
  71.6686993  18.7812753  16.2221673  70.9316993  18.5762753  16.0541673
  60.2636993  28.4492753  17.2161673  59.6096993  27.8802753  17.3141673
  59.8886993  29.2222753  17.3671673  60.1116993  28.4792753  17.2531673
  68.7816993  19.8552753  19.1391673  69.1046993  20.5412753  18.7071673
  68.0776993  20.1782753  19.5411673  68.7246993  20.0042753  19.1341673
  71.8656993  28.2292753  10.0681673  71.4146993  28.8722753  10.4471673
  72.5736993  28.1502753  10.5731673  71.9036993  28.3122753  10.1991673
  68.5666993  23.3192753  12.9981673  67.8726993  23.7212753  13.3411673
  69.2436993  23.7522753  13.3371673  68.5636993  23.4422753  13.0991673
  73.9436993  25.9122753  19.5781673  74.7196993  25.5222753  19.6611673
  73.4746993  25.5762753  20.2331673  73.9886993  25.8052753  19.6871673
  61.6346993  16.8572753  15.3451673  62.0096993  17.4762753  14.8581673
  62.3086993  16.3832753  15.6301673  61.7896993  16.8792753  15.3151673
  59.4096993  15.3052753  14.6201673  59.4866993  15.1362753  13.7671673
  60.1556993  15.7112753  14.8171673  59.5306993  15.3402753  14.5231673
  74.9686993  17.9452753   5.0601673  75.0716993  17.8872753   4.1961673
  75.7096993  17.6132753   5.3781673  75.0936993  17.8882753   4.9791673
  61.9636993  12.7152753  17.0311673  61.8826993  11.8712753  17.2371673
  61.6496993  12.7592753  16.2181673  61.9056993  12.5972753  16.9411673
  68.8886993  24.9102753   6.1671673  68.6836993  25.7432753   6.0081673
  68.1136993  24.5282753   6.2891673  68.7436993  24.9772753   6.1621673
  74.0706993  18.0912753  14.4161673  74.0686993  17.2282753  14.5401673
  74.1376993  18.4152753  15.2231673  74.0806993  18.0112753  14.5531673
  58.8066993  20.5312753  14.8441673  59.1266993  20.7502753  14.0631673
  58.7066993  19.6662753  14.7891673  58.8386993  20.4362753  14.7211673
  69.9496993  12.8912753  18.1981673  70.0416993  13.6032753  18.6921673
  69.3126993  12.4462753  18.5951673  69.8686993  12.9302753  18.3301673
  68.9436993  13.0812753   9.0521673  68.2436993  13.5992753   8.9961673
  68.9816993  12.7012753   8.2681673  68.8456993  13.1022753   8.9281673
  64.2506993  25.1722753   2.5761673  64.6916993  25.2522753   3.3241673
  63.4456993  24.9562753   2.8341673  64.1966993  25.1522753   2.7251673
  72.5416993  13.5972753  11.8521673  73.3966993  13.6962753  11.9971673
  72.1726993  14.1502753  12.4171673  72.6136993  13.6942753  11.9571673
  63.5696993  19.8232753  16.2291673  63.1736993  20.5972753  16.3041673
  63.1636993  19.4502753  15.5531673  63.4516993  19.8822753  16.1401673
  72.8456993  18.8772753  10.3431673  73.5116993  19.4182753  10.5031673
  72.5006993  19.1882753   9.6041673  72.8926993  19.0032753  10.2581673
  73.1586993  26.9432753   6.1501673  72.9846993  26.2892753   6.7001673
  73.8716993  26.6722753   5.7271673  73.2386993  26.8062753   6.1691673
  61.5796993  24.2422753   3.1771673  61.3356993  23.9352753   3.9571673
  61.5466993  23.5392753   2.6611673  61.5386993  24.0932753   3.2161673
  64.3986993  22.4872753   1.9201673  63.5806993  22.2192753   2.0601673
  64.3706993  23.3392753   2.1051673  64.2736993  22.5742753   1.9681673
  63.9986993  12.8002753  13.6791673  63.1346993  12.8842753  13.7591673
  64.2186993  12.2862753  14.3481673  63.9036993  12.7372753  13.7901673
  68.1016993  13.5482753  12.0531673  67.3646993  13.0942753  12.1661673
  68.6726993  13.1462753  12.5761673  68.0766993  13.4212753  12.1471673
  70.8336993  24.3962753  13.8411673  71.0396993  24.6972753  14.6331673
  70.7726993  25.1182753  13.3561673  70.8546993  24.5472753  13.8861673
  70.3676993  28.6102753  18.0871673  69.6146993  28.5922753  17.6461673
  70.5356993  29.4622753  18.1711673  70.2816993  28.7332753  18.0341673
  65.6046993  17.8772753  17.2571673  65.2826993  17.3012753  16.6871673
  65.2456993  18.6322753  17.0111673  65.5046993  17.9032753  17.1371673
  75.6456993  23.0352753  13.2991673  75.6136993  22.1732753  13.1641673
  74.9526993  23.3372753  12.8651673  75.5386993  22.9522753  13.2151673
  64.0396993  28.2332753  17.5051673  64.0806993  28.3592753  18.3681673
  64.6906993  27.6732753  17.3491673  64.1416993  28.1692753  17.6101673
  73.7506993  26.2952753  12.0961673  74.2776993  26.2122753  11.4051673
  73.3596993  25.5172753  12.1501673  73.7706993  26.1682753  12.0021673
  61.2186993  12.8832753  14.3271673  60.8756993  12.1162753  14.0931673
  60.5236993  13.4072753  14.3911673  61.0656993  12.8472753  14.3021673
  70.2646993  11.7392753  11.3041673  70.9346993  12.2832753  11.4311673
  69.7616993  12.1632753  10.7311673  70.2896993  11.8822753  11.2381673
  61.6326993  26.6162753  18.8651673  62.2276993  27.0472753  19.3371673
  61.2686993  27.2402753  18.3761673  61.6666993  26.7722753  18.8621673
  69.6236993  17.5472753   8.7971673  70.1746993  16.9402753   9.0971673
  69.1986993  17.8102753   9.5121673  69.6426993  17.4962753   8.9461673
  59.8716993  16.1972753   8.2831673  59.5036993  16.4992753   9.0141673
  60.4056993  15.5682753   8.5671673  59.8956993  16.1492753   8.4331673
  59.5596993  24.6052753  15.7941673  58.9856993  25.0212753  16.3031673
  60.2926993  25.0702753  15.8891673  59.5836993  24.7352753  15.8831673
  71.5936993  19.3782753   5.3591673  71.6616993  18.5282753   5.5401673
  70.7706993  19.4642753   5.0811673  71.4816993  19.2652753   5.3451673
  61.3456993  27.8722753   4.5691673  61.2006993  28.0282753   3.7231673
  62.2116993  27.9512753   4.6471673  61.4526993  27.9072753   4.4561673
  65.5126993  20.2692753   4.2971673  65.6126993  20.4082753   3.4421673
  66.3306993  20.2092753   4.5931673  65.6476993  20.2802753   4.2141673
  74.6726993  28.3332753   1.7771673  75.3096993  28.1992753   2.3581673
  74.3316993  27.5392753   1.6601673  74.7166993  28.1962753   1.8451673
  74.8676993  20.7512753  18.5101673  75.5016993  20.5812753  19.0841673
  75.2846993  21.1542753  17.8581673  75.0226993  20.7862753  18.4991673
  70.7476993  24.5982753   4.0991673  70.4966993  24.4702753   4.9251673
  70.4306993  23.9032753   3.6781673  70.6636993  24.4772753   4.1591673
  75.4926993  15.3152753  19.2481673  75.2966993  15.9592753  19.8031673
  74.7706993  14.8252753  19.2401673  75.3576993  15.3382753  19.3291673
  75.3916993  16.2562753  12.2191673  74.5586993  16.5062753  12.1471673
  75.3356993  15.4162753  12.4481673  75.2606993  16.1692753  12.2421673
  64.6516993  13.2442753  17.4131673  64.8856993  12.6682753  16.8001673
  63.8096993  13.0632753  17.5541673  64.5616993  13.1322753  17.3431673
  72.2786993  20.8622753  19.8651673  73.1496993  20.8262753  19.8291673
  72.0596993  21.2822753  19.1331673  72.3756993  20.9182753  19.7521673
  62.0326993  26.6872753  11.0461673  61.9536993  25.8772753  10.7301673
  61.5886993  27.1742753  10.4741673  61.9556993  26.6392753  10.9151673
  67.6336993  22.8062753   3.5291673  68.3506993  22.4592753   3.1731673
  67.5996993  23.6062753   3.1811673  67.7346993  22.8732753   3.4251673
  59.6046993  28.9312753  14.6271673  60.0976993  28.8752753  15.3451673
  59.7926993  28.1982753  14.1921673  59.7056993  28.8142753  14.6691673
  58.7206993   4.0251673  63.9198903  58.2796993   4.1431673  64.6628903
  58.4376993   3.2501673  63.6348903  58.6136993   3.9281673  63.9878903
  74.9956993   7.3261673  61.4348903  75.6966993   6.8071673  61.4308903
  74.4086993   6.8811673  60.9658903  75.0126993   7.1831673  61.3648903
  61.6026993   3.0801673  59.0988903  61.2106993   2.7091673  58.4128903
  61.5226993   2.4821673  59.7278903  61.5326993   2.9371673  59.0898903
  61.2296993   4.7211673  62.9988903  61.8376993   4.5511673  63.6018903
  60.4786993   4.5811673  63.4198903  61.2086993   4.6751673  63.1498903
  60.1206993   7.8121673  59.0758903  60.5876993   7.8961673  58.3438903
  60.5756993   7.2341673  59.5448903  60.2566993   7.7391673  59.0368903
  58.6606993   6.7601673  70.1748903  58.7896993   6.4801673  70.9908903
  58.0506993   6.2191673  69.8658903  58.5896993   6.6391673  70.2498903
  65.2346993   4.2851673  75.2418903  64.9986993   4.2821673  76.0818903
  64.4866993   4.1371673  74.8178903  65.0886993   4.2621673  75.3028903
  65.2166993   7.4771673  72.5048903  65.3546993   8.2371673  72.0978903
  66.0076993   7.1121673  72.5318903  65.3536993   7.5361673  72.4488903
  66.3116993   5.3621673  67.0098903  66.6596993   4.5631673  67.0398903
  66.9766993   5.8661673  66.7548903  66.4616993   5.3181673  66.9768903
  66.3686993   4.8111673  63.2208903  66.6996993   4.1671673  63.7068903
  66.6086993   4.6001673  62.4098903  66.4526993   4.6851673  63.1728903
  58.4726993   8.7521673  65.2898903  57.8806993   9.3101673  64.9768903
  58.8986993   8.4831673  64.5778903  58.4486993   8.7941673  65.1388903
  64.3126993   6.5961673  62.7698903  63.7336993   6.3211673  63.3618903
  64.9366993   5.9871673  62.7948903  64.3196993   6.4661673  62.8608903
  70.4556993   8.8841673  60.2918903  71.1826993   9.3561673  60.3938903
  70.6846993   8.0901673  60.5718903  70.5976993   8.8371673  60.3488903
  68.6236993   9.2761673  62.2818903  68.8376993   9.8031673  62.9438903
  69.3906993   9.1021673  61.9028903  68.7686993   9.3281673  62.3238903
  60.0176993   7.4221673  63.2208903  60.6736993   6.8471673  63.2358903
  60.4066993   8.1711673  62.9998903  60.1726993   7.4471673  63.1908903
  71.0626993   9.2861673  70.5868903  71.8066993   9.7421673  70.5768903
  70.9416993   9.0721673  69.7498903  71.1546993   9.3221673  70.4618903
  60.8356993   5.9091673  66.7208903  61.2586993   5.5531673  66.0468903
  61.1596993   5.4871673  67.4128903  60.9456993   5.7941673  66.7238903
  64.0666993   8.7611673  66.0168903  64.9106993   8.8651673  65.8218903
  63.7696993   9.5791673  66.0848903  64.1476993   8.8971673  65.9978903
  72.6366993  10.4711673  60.6918903  73.3016993  10.3231673  60.1468903
  72.9966993  10.3881673  61.4818903  72.7886993  10.4371673  60.7278903
  63.0646993   9.9801673  71.7568903  63.3566993   9.9131673  72.5768903
  62.4386993   9.3751673  71.7118903  63.0156993   9.8811673  71.8718903
  70.3166993   6.4711673  74.2908903  70.2826993   6.8531673  75.0748903
  71.1706993   6.4291673  74.1198903  70.4376993   6.5211673  74.3818903
  67.4546993   6.6681673  59.0408903  67.2736993   7.2131673  59.6978903
  68.2206993   6.9581673  58.7398903  67.5406993   6.7921673  59.0938903
  61.0576993   8.1421673  70.8788903  60.3596993   7.6341673  71.0048903
  61.3176993   7.9371673  70.0708903  60.9926993   8.0371673  70.7778903
  68.7686993   9.6351673  71.7888903  69.5366993   9.5551673  71.3828903
  68.1856993   9.5141673  71.1508903  68.7956993   9.6051673  71.6348903
  75.0456993  10.2381673  64.6898903  74.5906993  10.9551673  64.8908903
  74.4316993   9.6671673  64.4478903  74.8876993  10.2601673  64.6838903
  72.0426993   6.0831673  64.2338903  72.7436993   5.6011673  64.4228903
  71.3826993   5.5141673  64.2788903  72.0486993   5.9281673  64.2678903
  62.4186993   6.9931673  73.4458903  63.2596993   7.0561673  73.2238903
  62.3816993   7.3901673  74.2218903  62.5376993   7.0611673  73.5278903
  64.3816993   2.5041673  68.1948903  64.5536993   2.2941673  69.0238903
  63.7266993   1.9701673  67.9788903  64.3106993   2.3941673  68.2858903
  65.1316993   2.4421673  70.7848903  65.1846993   3.2891673  70.9868903
  64.8466993   2.0721673  71.5218903  65.0976993   2.5121673  70.9228903
  71.3086993   3.1371673  69.9148903  70.7946993   2.7251673  70.4858903
  71.1826993   3.9811673  70.0958903  71.2146993   3.2011673  70.0258903
  74.5616993   3.5761673  60.0418903  74.6806993   3.2891673  60.8568903
  75.3686993   3.5971673  59.7118903  74.6976993   3.5371673  60.1138903
  61.6976993   3.3081673  65.3728903  62.5486993   3.2281673  65.1998903
  61.3406993   2.6261673  64.9608903  61.7706993   3.1951673  65.2858903
  60.4646993  10.0331673  66.6098903  59.7916993   9.5351673  66.3648903
  60.8676993  10.2181673  65.8588903  60.4246993   9.9871673  66.4628903
  64.0656993   3.3151673  63.6078903  64.7786993   3.8101673  63.6978903
  64.2876993   2.7481673  62.9818903  64.2036993   3.3041673  63.5288903
  58.2216993   4.9581673  66.9278903  57.5546993   5.4461673  67.2038903
  58.9016993   5.5031673  66.9568903  58.2236993   5.1101673  66.9728903
  68.5886993   7.0181673  65.9348903  68.0656993   7.6521673  65.6418903
  68.8986993   6.6541673  65.2058903  68.5566993   7.0581673  65.7838903
  58.4596993   5.8061673  61.6058903  59.0116993   6.3751673  61.9698903
  58.2276993   5.2911673  62.2708903  58.5066993   5.8141673  61.7578903
  62.6636993   4.8061673  68.6948903  63.1306993   5.0951673  69.3728903
  63.2356993   4.3281673  68.2408903  62.8176993   4.7781673  68.7278903
  58.2896993   4.2551673  59.2338903  59.0456993   3.8231673  59.2918903
  58.3046993   4.7871673  59.9248903  58.4036993   4.2701673  59.3448903
  59.2296993   2.4761673  67.2388903  59.6606993   2.3471673  66.4918903
  59.0246993   3.3241673  67.2128903  59.2626993   2.5821673  67.1248903
  74.6296993   8.4671673  72.3858903  73.9586993   8.9811673  72.6038903
  74.6926993   8.5671673  71.5218903  74.5396993   8.5581673  72.2908903
  63.3136993   5.9921673  65.5208903  63.4396993   6.8351673  65.7078903
  63.9816993   5.5931673  65.9168903  63.4316993   6.0581673  65.6068903
  66.6256993   9.2161673  69.9818903  66.3486993   8.5751673  69.4588903
  66.4176993   9.9421673  69.5438903  66.5546993   9.2291673  69.8398903
  71.9276993   3.9991673  74.4068903  72.4116993   4.7171673  74.5048903
  72.3216993   3.5721673  73.7558903  72.0576993   4.0421673  74.3248903
  66.2236993   6.8441673  75.5838903  66.5776993   6.6661673  76.3608903
  65.7876993   6.1151673  75.3848903  66.2116993   6.7101673  75.6698903
  74.3566993   4.6301673  64.4768903  74.7126993   4.2801673  65.1918903
  74.3486993   3.9691673  63.9068903  74.4086993   4.4801673  64.4978903
  70.4016993   7.6961673  68.3208903  69.7986993   7.4001673  67.7638903
  70.9466993   8.1481673  67.8118903  70.3926993   7.7191673  68.1628903
  70.4146993   4.5471673  67.7208903  69.6176993   4.7711673  67.9948903
  70.6726993   3.9531673  68.3058903  70.3346993   4.4921673  67.8478903
  64.3066993   9.3591673  62.1688903  64.1596993   8.5831673  62.5398903
  64.9956993   9.2121673  61.6538903  64.3866993   9.2221673  62.1478903
  66.5986993   8.8751673  60.5708903  67.2206993   9.0381673  61.1608903
  66.6346993   9.5661673  60.0388903  66.6956993   9.0011673  60.5798903
  73.6746993   2.5451673  72.5668903  73.7296993   2.6701673  71.7048903
  74.4276993   2.8651673  72.8688903  73.7936993   2.6101673  72.4838903
  69.4056993   2.3511673  72.1668903  69.2506993   2.9611673  72.7708903
  69.9396993   1.7931673  72.5728903  69.4616993   2.3591673  72.3158903
  73.0156993   5.0801673  68.6938903  72.5366993   5.3781673  68.0278903
  72.6596993   4.3041673  68.8718903  72.8926993   5.0091673  68.6218903
  67.0126993   2.7981673  67.2558903  66.1656993   2.6041673  67.3368903
  67.3366993   2.6331673  68.0488903  66.9346993   2.7451673  67.3848903
  63.7646993   9.5281673  58.1418903  64.2036993   8.8311673  58.4298903
  63.9716993  10.1521673  58.7148903  63.8606993   9.5171673  58.2688903
  60.8606993   2.4911673  69.5718903  61.5826993   2.9791673  69.5348903
  60.5906993   2.4611673  68.7428903  60.9276993   2.5591673  69.4438903
  60.2556993   3.5431673  73.8498903  59.8346993   3.0251673  73.2888903
  59.9036993   4.3291673  73.7068903  60.1416993   3.5831673  73.7458903
  72.9386993   6.3291673  59.7608903  73.2726993   5.5231673  59.7958903
  72.1836993   6.2571673  60.1908903  72.8766993   6.1991673  59.8298903
  70.3126993   4.2041673  59.1638903  70.9966993   3.6901673  58.9948903
  69.8956993   4.2501673  58.3988903  70.3516993   4.1351673  59.0258903
  64.9946993   5.3541673  70.4678903  64.6966993   5.9461673  71.0348903
  65.0496993   5.7961673  69.7188903  64.9586993   5.5071673  70.4408903
  62.9736993   4.3041673  73.8658903  62.1676993   4.0141673  74.0328903
  62.8846993   5.1721673  73.8718903  62.8416993   4.3891673  73.8908903
  67.5106993   1.7771673  69.9588903  67.9866993   2.1511673  70.5868903
  66.6876993   1.9111673  70.2178903  67.4596993   1.8521673  70.0898903
  66.7746993   9.1701673  65.1868903  67.3206993   9.8491673  65.2408903
  66.4246993   9.2521673  64.3918903  66.8036993   9.2831673  65.0768903
  64.9576993   7.3981673  68.5758903  64.3336993   7.9801673  68.3938903
  65.2056993   7.1121673  67.7898903  64.9016993   7.4421673  68.4328903
  69.2666993   4.0321673  75.5648903  70.0236993   4.3181673  75.2388903
  68.7196993   4.0841673  74.8868903  69.2976993   4.0821673  75.4158903
  73.1756993   6.5821673  74.0688903  73.5216993   6.8521673  74.8228903
  73.4696993   7.1641673  73.4888903  73.2706993   6.7081673  74.0948903
  66.5516993   2.1741673  58.4908903  65.7466993   1.9971673  58.2058903
  66.5186993   3.0251673  58.6828903  66.4276993   2.2731673  58.4778903
  67.6106993   9.0471673  74.4558903  68.0886993   8.4471673  74.0398903
  67.2596993   8.6041673  75.1208903  67.6296993   8.8931673  74.4928903
  74.1986993   2.3541673  62.6368903  74.6746993   1.6251673  62.5888903
  73.3776993   2.0681673  62.5608903  74.1476993   2.2041673  62.6178903
  67.6696993   4.2661673  73.4758903  66.8746993   4.2021673  73.8268903
  67.7406993   5.1131673  73.2808903  67.5626993   4.3811673  73.4988903
  63.4996993  10.4731673  68.7928903  63.5106993  10.5321673  69.6628903
  63.0746993   9.7261673  68.6428903  63.4386993  10.3711673  68.8988903
  70.4146993   3.5211673  64.9918903  70.4906993   3.8621673  65.7908903
  70.5836993   2.6741673  65.1128903  70.4506993   3.4461673  65.1278903
  67.9366993   2.7951673  64.5568903  67.6386993   2.4801673  65.3138903
  68.6316993   3.2681673  64.7918903  67.9956993   2.8181673  64.7038903
  68.1586993   6.9131673  72.5838903  68.8456993   6.7991673  73.1088903
  68.2926993   7.7041673  72.2398903  68.2796993   7.0131673  72.6108903
  60.2636993   9.9711673  74.2348903  59.6096993   9.4021673  74.3328903
  59.8886993  10.7441673  74.3858903  60.1116993  10.0011673  74.2718903
  71.8656993   9.7511673  67.0868903  71.4146993  10.3941673  67.4658903
  72.5736993   9.6721673  67.5918903  71.9036993   9.8341673  67.2178903
  68.5666993   4.8411673  70.0168903  67.8726993   5.2431673  70.3598903
  69.2436993   5.2741673  70.3558903  68.5636993   4.9641673  70.1178903
  68.8886993   6.4321673  63.1858903  68.6836993   7.2651673  63.0268903
  68.1136993   6.0501673  63.3078903  68.7436993   6.4991673  63.1808903
  64.2506993   6.6941673  59.5948903  64.6916993   6.7741673  60.3428903
  63.4456993   6.4781673  59.8528903  64.1966993   6.6741673  59.7438903
  73.1586993   8.4651673  63.1688903  72.9846993   7.8111673  63.7188903
  73.8716993   8.1941673  62.7458903  73.2386993   8.3281673  63.1878903
  61.5796993   5.7641673  60.1958903  61.3356993   5.4571673  60.9758903
  61.5466993   5.0611673  59.6798903  61.5386993   5.6151673  60.2348903
  64.3986993   4.0091673  58.9388903  63.5806993   3.7411673  59.0788903
  64.3706993   4.8611673  59.1238903  64.2736993   4.0961673  58.9868903
  70.8336993   5.9181673  70.8598903  71.0396993   6.2191673  71.6518903
  70.7726993   6.6401673  70.3748903  70.8546993   6.0691673  70.9048903
  70.3676993  10.1321673  75.1058903  69.6146993  10.1141673  74.6648903
  70.5356993  10.9841673  75.1898903  70.2816993  10.2551673  75.0528903
  75.6456993   4.5571673  70.3178903  75.6136993   3.6951673  70.1828903
  74.9526993   4.8591673  69.8838903  75.5386993   4.4741673  70.2338903
  64.0396993   9.7551673  74.5238903  64.0806993   9.8811673  75.3868903
  64.6906993   9.1951673  74.3678903  64.1416993   9.6911673  74.6288903
  73.7506993   7.8171673  69.1148903  74.2776993   7.7341673  68.4238903
  73.3596993   7.0391673  69.1688903  73.7706993   7.6901673  69.0208903
  61.6326993   8.1381673  75.8838903  62.2276993   8.5691673  76.3558903
  61.2686993   8.7621673  75.3948903  61.6666993   8.2941673  75.8808903
  59.5596993   6.1271673  72.8128903  58.9856993   6.5431673  73.3218903
  60.2926993   6.5921673  72.9078903  59.5836993   6.2571673  72.9018903
  61.3456993   9.3941673  61.5878903  61.2006993   9.5501673  60.7418903
  62.2116993   9.4731673  61.6658903  61.4526993   9.4291673  61.4748903
  65.5126993   1.7911673  61.3158903  65.6126993   1.9301673  60.4608903
  66.3306993   1.7311673  61.6118903  65.6476993   1.8021673  61.2328903
  74.6726993   9.8551673  58.7958903  75.3096993   9.7211673  59.3768903
  74.3316993   9.0611673  58.6788903  74.7166993   9.7181673  58.8638903
  74.8676993   2.2731673  75.5288903  75.5016993   2.1031673  76.1028903
  75.2846993   2.6761673  74.8768903  75.0226993   2.3081673  75.5178903
  70.7476993   6.1201673  61.1178903  70.4966993   5.9921673  61.9438903
  70.4306993   5.4251673  60.6968903  70.6636993   5.9991673  61.1778903
  72.2786993   2.3841673  76.8838903  73.1496993   2.3481673  76.8478903
  72.0596993   2.8041673  76.1518903  72.3756993   2.4401673  76.7708903
  62.0326993   8.2091673  68.0648903  61.9536993   7.3991673  67.7488903
  61.5886993   8.6961673  67.4928903  61.9556993   8.1611673  67.9338903
  67.6336993   4.3281673  60.5478903  68.3506993   3.9811673  60.1918903
  67.5996993   5.1281673  60.1998903  67.7346993   4.3951673  60.4438903
  59.6046993  10.4531673  71.6458903  60.0976993  10.3971673  72.3638903
  59.7926993   9.7201673  71.2108903  59.7056993  10.3361673  71.6878903
  58.7206993   4.0251673  44.9136493  58.2796993   4.1431673  45.6566493
  58.4376993   3.2501673  44.6286493  58.6136993   3.9281673  44.9816493
  74.9956993   7.3261673  42.4286493  75.6966993   6.8071673  42.4246493
  74.4086993   6.8811673  41.9596493  75.0126993   7.1831673  42.3586493
  61.6026993   3.0801673  40.0926493  61.2106993   2.7091673  39.4066493
  61.5226993   2.4821673  40.7216493  61.5326993   2.9371673  40.0836493
  61.2296993   4.7211673  43.9926493  61.8376993   4.5511673  44.5956493
  60.4786993   4.5811673  44.4136493  61.2086993   4.6751673  44.1436493
  60.1206993   7.8121673  40.0696493  60.5876993   7.8961673  39.3376493
  60.5756993   7.2341673  40.5386493  60.2566993   7.7391673  40.0306493
  58.6606993   6.7601673  51.1686493  58.7896993   6.4801673  51.9846493
  58.0506993   6.2191673  50.8596493  58.5896993   6.6391673  51.2436493
  65.2346993   4.2851673  56.2356493  64.9986993   4.2821673  57.0756493
  64.4866993   4.1371673  55.8116493  65.0886993   4.2621673  56.2966493
  65.2166993   7.4771673  53.4986493  65.3546993   8.2371673  53.0916493
  66.0076993   7.1121673  53.5256493  65.3536993   7.5361673  53.4426493
  66.3116993   5.3621673  48.0036493  66.6596993   4.5631673  48.0336493
  66.9766993   5.8661673  47.7486493  66.4616993   5.3181673  47.9706493
  66.3686993   4.8111673  44.2146493  66.6996993   4.1671673  44.7006493
  66.6086993   4.6001673  43.4036493  66.4526993   4.6851673  44.1666493
  58.4726993   8.7521673  46.2836493  57.8806993   9.3101673  45.9706493
  58.8986993   8.4831673  45.5716493  58.4486993   8.7941673  46.1326493
  64.3126993   6.5961673  43.7636493  63.7336993   6.3211673  44.3556493
  64.9366993   5.9871673  43.7886493  64.3196993   6.4661673  43.8546493
  70.4556993   8.8841673  41.2856493  71.1826993   9.3561673  41.3876493
  70.6846993   8.0901673  41.5656493  70.5976993   8.8371673  41.3426493
  68.6236993   9.2761673  43.2756493  68.8376993   9.8031673  43.9376493
  69.3906993   9.1021673  42.8966493  68.7686993   9.3281673  43.3176493
  60.0176993   7.4221673  44.2146493  60.6736993   6.8471673  44.2296493
  60.4066993   8.1711673  43.9936493  60.1726993   7.4471673  44.1846493
  71.0626993   9.2861673  51.5806493  71.8066993   9.7421673  51.5706493
  70.9416993   9.0721673  50.7436493  71.1546993   9.3221673  51.4556493
  60.8356993   5.9091673  47.7146493  61.2586993   5.5531673  47.0406493
  61.1596993   5.4871673  48.4066493  60.9456993   5.7941673  47.7176493
  64.0666993   8.7611673  47.0106493  64.9106993   8.8651673  46.8156493
  63.7696993   9.5791673  47.0786493  64.1476993   8.8971673  46.9916493
  72.6366993  10.4711673  41.6856493  73.3016993  10.3231673  41.1406493
  72.9966993  10.3881673  42.4756493  72.7886993  10.4371673  41.7216493
  63.0646993   9.9801673  52.7506493  63.3566993   9.9131673  53.5706493
  62.4386993   9.3751673  52.7056493  63.0156993   9.8811673  52.8656493
  70.3166993   6.4711673  55.2846493  70.2826993   6.8531673  56.0686493
  71.1706993   6.4291673  55.1136493  70.4376993   6.5211673  55.3756493
  67.4546993   6.6681673  40.0346493  67.2736993   7.2131673  40.6916493
  68.2206993   6.9581673  39.7336493  67.5406993   6.7921673  40.0876493
  61.0576993   8.1421673  51.8726493  60.3596993   7.6341673  51.9986493
  61.3176993   7.9371673  51.0646493  60.9926993   8.0371673  51.7716493
  68.7686993   9.6351673  52.7826493  69.5366993   9.5551673  52.3766493
  68.1856993   9.5141673  52.1446493  68.7956993   9.6051673  52.6286493
  75.0456993  10.2381673  45.6836493  74.5906993  10.9551673  45.8846493
  74.4316993   9.6671673  45.4416493  74.8876993  10.2601673  45.6776493
  72.0426993   6.0831673  45.2276493  72.7436993   5.6011673  45.4166493
  71.3826993   5.5141673  45.2726493  72.0486993   5.9281673  45.2616493
  62.4186993   6.9931673  54.4396493  63.2596993   7.0561673  54.2176493
  62.3816993   7.3901673  55.2156493  62.5376993   7.0611673  54.5216493
  64.3816993   2.5041673  49.1886493  64.5536993   2.2941673  50.0176493
  63.7266993   1.9701673  48.9726493  64.3106993   2.3941673  49.2796493
  65.1316993   2.4421673  51.7786493  65.1846993   3.2891673  51.9806493
  64.8466993   2.0721673  52.5156493  65.0976993   2.5121673  51.9166493
  71.3086993   3.1371673  50.9086493  70.7946993   2.7251673  51.4796493
  71.1826993   3.9811673  51.0896493  71.2146993   3.2011673  51.0196493
  57.9526993   6.8131673  57.9896493  58.7086993   7.1621673  58.2476493
  58.1296993   5.9601673  57.9326493  58.0906993   6.7381673  58.0196493
  74.5616993   3.5761673  41.0356493  74.6806993   3.2891673  41.8506493
  75.3686993   3.5971673  40.7056493  74.6976993   3.5371673  41.1076493
  61.6976993   3.3081673  46.3666493  62.5486993   3.2281673  46.1936493
  61.3406993   2.6261673  45.9546493  61.7706993   3.1951673  46.2796493
  60.4646993  10.0331673  47.6036493  59.7916993   9.5351673  47.3586493
  60.8676993  10.2181673  46.8526493  60.4246993   9.9871673  47.4566493
  64.0656993   3.3151673  44.6016493  64.7786993   3.8101673  44.6916493
  64.2876993   2.7481673  43.9756493  64.2036993   3.3041673  44.5226493
  58.2216993   4.9581673  47.9216493  57.5546993   5.4461673  48.1976493
  58.9016993   5.5031673  47.9506493  58.2236993   5.1101673  47.9666493
  68.5886993   7.0181673  46.9286493  68.0656993   7.6521673  46.6356493
  68.8986993   6.6541673  46.1996493  68.5566993   7.0581673  46.7776493
  58.4596993   5.8061673  42.5996493  59.0116993   6.3751673  42.9636493
  58.2276993   5.2911673  43.2646493  58.5066993   5.8141673  42.7516493
  62.6636993   4.8061673  49.6886493  63.1306993   5.0951673  50.3666493
  63.2356993   4.3281673  49.2346493  62.8176993   4.7781673  49.7216493
  58.2896993   4.2551673  40.2276493  59.0456993   3.8231673  40.2856493
  58.3046993   4.7871673  40.9186493  58.4036993   4.2701673  40.3386493
  59.2296993   2.4761673  48.2326493  59.6606993   2.3471673  47.4856493
  59.0246993   3.3241673  48.2066493  59.2626993   2.5821673  48.1186493
  74.6296993   8.4671673  53.3796493  73.9586993   8.9811673  53.5976493
  74.6926993   8.5671673  52.5156493  74.5396993   8.5581673  53.2846493
  63.3136993   5.9921673  46.5146493  63.4396993   6.8351673  46.7016493
  63.9816993   5.5931673  46.9106493  63.4316993   6.0581673  46.6006493
  66.6256993   9.2161673  50.9756493  66.3486993   8.5751673  50.4526493
  66.4176993   9.9421673  50.5376493  66.5546993   9.2291673  50.8336493
  71.9276993   3.9991673  55.4006493  72.4116993   4.7171673  55.4986493
  72.3216993   3.5721673  54.7496493  72.0576993   4.0421673  55.3186493
  66.2236993   6.8441673  56.5776493  66.5776993   6.6661673  57.3546493
  65.7876993   6.1151673  56.3786493  66.2116993   6.7101673  56.6636493
  74.3566993   4.6301673  45.4706493  74.7126993   4.2801673  46.1856493
  74.3486993   3.9691673  44.9006493  74.4086993   4.4801673  45.4916493
  70.4016993   7.6961673  49.3146493  69.7986993   7.4001673  48.7576493
  70.9466993   8.1481673  48.8056493  70.3926993   7.7191673  49.1566493
  70.4146993   4.5471673  48.7146493  69.6176993   4.7711673  48.9886493
  70.6726993   3.9531673  49.2996493  70.3346993   4.4921673  48.8416493
  64.3066993   9.3591673  43.1626493  64.1596993   8.5831673  43.5336493
  64.9956993   9.2121673  42.6476493  64.3866993   9.2221673  43.1416493
  66.5986993   8.8751673  41.5646493  67.2206993   9.0381673  42.1546493
  66.6346993   9.5661673  41.0326493  66.6956993   9.0011673  41.5736493
  73.6746993   2.5451673  53.5606493  73.7296993   2.6701673  52.6986493
  74.4276993   2.8651673  53.8626493  73.7936993   2.6101673  53.4776493
  69.8656993   7.8941673  57.8376493  70.0296993   8.1771673  58.6466493
  70.1286993   8.5551673  57.3326493  69.9286993   8.0341673  57.8826493
  69.4056993   2.3511673  53.1606493  69.2506993   2.9611673  53.7646493
  69.9396993   1.7931673  53.5666493  69.4616993   2.3591673  53.3096493
  73.0156993   5.0801673  49.6876493  72.5366993   5.3781673  49.0216493
  72.6596993   4.3041673  49.8656493  72.8926993   5.0091673  49.6156493
  67.0126993   2.7981673  48.2496493  66.1656993   2.6041673  48.3306493
  67.3366993   2.6331673  49.0426493  66.9346993   2.7451673  48.3786493
  63.7646993   9.5281673  39.1356493  64.2036993   8.8311673  39.4236493
  63.9716993  10.1521673  39.7086493  63.8606993   9.5171673  39.2626493
  60.8606993   2.4911673  50.5656493  61.5826993   2.9791673  50.5286493
  60.5906993   2.4611673  49.7366493  60.9276993   2.5591673  50.4376493
  60.2556993   3.5431673  54.8436493  59.8346993   3.0251673  54.2826493
  59.9036993   4.3291673  54.7006493  60.1416993   3.5831673  54.7396493
  72.9386993   6.3291673  40.7546493  73.2726993   5.5231673  40.7896493
  72.1836993   6.2571673  41.1846493  72.8766993   6.1991673  40.8236493
  70.3126993   4.2041673  40.1576493  70.9966993   3.6901673  39.9886493
  69.8956993   4.2501673  39.3926493  70.3516993   4.1351673  40.0196493
  64.9946993   5.3541673  51.4616493  64.6966993   5.9461673  52.0286493
  65.0496993   5.7961673  50.7126493  64.9586993   5.5071673  51.4346493
  62.9736993   4.3041673  54.8596493  62.1676993   4.0141673  55.0266493
  62.8846993   5.1721673  54.8656493  62.8416993   4.3891673  54.8846493
  67.5106993   1.7771673  50.9526493  67.9866993   2.1511673  51.5806493
  66.6876993   1.9111673  51.2116493  67.4596993   1.8521673  51.0836493
  66.7746993   9.1701673  46.1806493  67.3206993   9.8491673  46.2346493
  66.4246993   9.2521673  45.3856493  66.8036993   9.2831673  46.0706493
  64.9576993   7.3981673  49.5696493  64.3336993   7.9801673  49.3876493
  65.2056993   7.1121673  48.7836493  64.9016993   7.4421673  49.4266493
  69.2666993   4.0321673  56.5586493  70.0236993   4.3181673  56.2326493
  68.7196993   4.0841673  55.8806493  69.2976993   4.0821673  56.4096493
  73.1756993   6.5821673  55.0626493  73.5216993   6.8521673  55.8166493
  73.4696993   7.1641673  54.4826493  73.2706993   6.7081673  55.0886493
  66.5516993   2.1741673  39.4846493  65.7466993   1.9971673  39.1996493
  66.5186993   3.0251673  39.6766493  66.4276993   2.2731673  39.4716493
  67.6106993   9.0471673  55.4496493  68.0886993   8.4471673  55.0336493
  67.2596993   8.6041673  56.1146493  67.6296993   8.8931673  55.4866493
  74.1986993   2.3541673  43.6306493  74.6746993   1.6251673  43.5826493
  73.3776993   2.0681673  43.5546493  74.1476993   2.2041673  43.6116493
  67.6696993   4.2661673  54.4696493  66.8746993   4.2021673  54.8206493
  67.7406993   5.1131673  54.2746493  67.5626993   4.3811673  54.4926493
  63.4996993  10.4731673  49.7866493  63.5106993  10.5321673  50.6566493
  63.0746993   9.7261673  49.6366493  63.4386993  10.3711673  49.8926493
  70.4146993   3.5211673  45.9856493  70.4906993   3.8621673  46.7846493
  70.5836993   2.6741673  46.1066493  70.4506993   3.4461673  46.1216493
  67.9366993   2.7951673  45.5506493  67.6386993   2.4801673  46.3076493
  68.6316993   3.2681673  45.7856493  67.9956993   2.8181673  45.6976493
  68.1586993   6.9131673  53.5776493  68.8456993   6.7991673  54.1026493
  68.2926993   7.7041673  53.2336493  68.2796993   7.0131673  53.6046493
  60.2636993   9.9711673  55.2286493  59.6096993   9.4021673  55.3266493
  59.8886993  10.7441673  55.3796493  60.1116993  10.0011673  55.2656493
  71.8656993   9.7511673  48.0806493  71.4146993  10.3941673  48.4596493
  72.5736993   9.6721673  48.5856493  71.9036993   9.8341673  48.2116493
  68.5666993   4.8411673  51.0106493  67.8726993   5.2431673  51.3536493
  69.2436993   5.2741673  51.3496493  68.5636993   4.9641673  51.1116493
  73.9436993   7.4341673  57.5906493  74.7196993   7.0441673  57.6736493
  73.4746993   7.0981673  58.2456493  73.9886993   7.3271673  57.6996493
  68.8886993   6.4321673  44.1796493  68.6836993   7.2651673  44.0206493
  68.1136993   6.0501673  44.3016493  68.7436993   6.4991673  44.1746493
  64.2506993   6.6941673  40.5886493  64.6916993   6.7741673  41.3366493
  63.4456993   6.4781673  40.8466493  64.1966993   6.6741673  40.7376493
  73.1586993   8.4651673  44.1626493  72.9846993   7.8111673  44.7126493
  73.8716993   8.1941673  43.7396493  73.2386993   8.3281673  44.1816493
  61.5796993   5.7641673  41.1896493  61.3356993   5.4571673  41.9696493
  61.5466993   5.0611673  40.6736493  61.5386993   5.6151673  41.2286493
  64.3986993   4.0091673  39.9326493  63.5806993   3.7411673  40.0726493
  64.3706993   4.8611673  40.1176493  64.2736993   4.0961673  39.9806493
  70.8336993   5.9181673  51.8536493  71.0396993   6.2191673  52.6456493
  70.7726993   6.6401673  51.3686493  70.8546993   6.0691673  51.8986493
  70.3676993  10.1321673  56.0996493  69.6146993  10.1141673  55.6586493
  70.5356993  10.9841673  56.1836493  70.2816993  10.2551673  56.0466493
  75.6456993   4.5571673  51.3116493  75.6136993   3.6951673  51.1766493
  74.9526993   4.8591673  50.8776493  75.5386993   4.4741673  51.2276493
  64.0396993   9.7551673  55.5176493  64.0806993   9.8811673  56.3806493
  64.6906993   9.1951673  55.3616493  64.1416993   9.6911673  55.6226493
  73.7506993   7.8171673  50.1086493  74.2776993   7.7341673  49.4176493
  73.3596993   7.0391673  50.1626493  73.7706993   7.6901673  50.0146493
  61.6326993   8.1381673  56.8776493  62.2276993   8.5691673  57.3496493
  61.2686993   8.7621673  56.3886493  61.6666993   8.2941673  56.8746493
  59.5596993   6.1271673  53.8066493  58.9856993   6.5431673  54.3156493
  60.2926993   6.5921673  53.9016493  59.5836993   6.2571673  53.8956493
  61.3456993   9.3941673  42.5816493  61.2006993   9.5501673  41.7356493
  62.2116993   9.4731673  42.6596493  61.4526993   9.4291673  42.4686493
  65.5126993   1.7911673  42.3096493  65.6126993   1.9301673  41.4546493
  66.3306993   1.7311673  42.6056493  65.6476993   1.8021673  42.2266493
  74.6726993   9.8551673  39.7896493  75.3096993   9.7211673  40.3706493
  74.3316993   9.0611673  39.6726493  74.7166993   9.7181673  39.8576493
  74.8676993   2.2731673  56.5226493  75.5016993   2.1031673  57.0966493
  75.2846993   2.6761673  55.8706493  75.0226993   2.3081673  56.5116493
  70.7476993   6.1201673  42.1116493  70.4966993   5.9921673  42.9376493
  70.4306993   5.4251673  41.6906493  70.6636993   5.9991673  42.1716493
  72.2786993   2.3841673  57.8776493  73.1496993   2.3481673  57.8416493
  72.0596993   2.8041673  57.1456493  72.3756993   2.4401673  57.7646493
  62.0326993   8.2091673  49.0586493  61.9536993   7.3991673  48.7426493
  61.5886993   8.6961673  48.4866493  61.9556993   8.1611673  48.9276493
  67.6336993   4.3281673  41.5416493  68.3506993   3.9811673  41.1856493
  67.5996993   5.1281673  41.1936493  67.7346993   4.3951673  41.4376493
  59.6046993  10.4531673  52.6396493  60.0976993  10.3971673  53.3576493
  59.7926993   9.7201673  52.2046493  59.7056993  10.3361673  52.6816493
  58.7206993   4.0251673  25.9074083  58.2796993   4.1431673  26.6504083
  58.4376993   3.2501673  25.6224083  58.6136993   3.9281673  25.9754083
  74.9956993   7.3261673  23.4224083  75.6966993   6.8071673  23.4184083
  74.4086993   6.8811673  22.9534083  75.0126993   7.1831673  23.3524083
  61.6026993   3.0801673  21.0864083  61.2106993   2.7091673  20.4004083
  61.5226993   2.4821673  21.7154083  61.5326993   2.9371673  21.0774083
  61.2296993   4.7211673  24.9864083  61.8376993   4.5511673  25.5894083
  60.4786993   4.5811673  25.4074083  61.2086993   4.6751673  25.1374083
  60.1206993   7.8121673  21.0634083  60.5876993   7.8961673  20.3314083
  60.5756993   7.2341673  21.5324083  60.2566993   7.7391673  21.0244083
  58.6606993   6.7601673  32.1624083  58.7896993   6.4801673  32.9784083
  58.0506993   6.2191673  31.8534083  58.5896993   6.6391673  32.2374083
  65.2346993   4.2851673  37.2294083  64.9986993   4.2821673  38.0694083
  64.4866993   4.1371673  36.8054083  65.0886993   4.2621673  37.2904083
  65.2166993   7.4771673  34.4924083  65.3546993   8.2371673  34.0854083
  66.0076993   7.1121673  34.5194083  65.3536993   7.5361673  34.4364083
  66.3116993   5.3621673  28.9974083  66.6596993   4.5631673  29.0274083
  66.9766993   5.8661673  28.7424083  66.4616993   5.3181673  28.9644083
  66.3686993   4.8111673  25.2084083  66.6996993   4.1671673  25.6944083
  66.6086993   4.6001673  24.3974083  66.4526993   4.6851673  25.1604083
  58.4726993   8.7521673  27.2774083  57.8806993   9.3101673  26.9644083
  58.8986993   8.4831673  26.5654083  58.4486993   8.7941673  27.1264083
  64.3126993   6.5961673  24.7574083  63.7336993   6.3211673  25.3494083
  64.9366993   5.9871673  24.7824083  64.3196993   6.4661673  24.8484083
  70.4556993   8.8841673  22.2794083  71.1826993   9.3561673  22.3814083
  70.6846993   8.0901673  22.5594083  70.5976993   8.8371673  22.3364083
  68.6236993   9.2761673  24.2694083  68.8376993   9.8031673  24.9314083
  69.3906993   9.1021673  23.8904083  68.7686993   9.3281673  24.3114083
  60.0176993   7.4221673  25.2084083  60.6736993   6.8471673  25.2234083
  60.4066993   8.1711673  24.9874083  60.1726993   7.4471673  25.1784083
  71.0626993   9.2861673  32.5744083  71.8066993   9.7421673  32.5644083
  70.9416993   9.0721673  31.7374083  71.1546993   9.3221673  32.4494083
  60.8356993   5.9091673  28.7084083  61.2586993   5.5531673  28.0344083
  61.1596993   5.4871673  29.4004083  60.9456993   5.7941673  28.7114083
  64.0666993   8.7611673  28.0044083  64.9106993   8.8651673  27.8094083
  63.7696993   9.5791673  28.0724083  64.1476993   8.8971673  27.9854083
  72.6366993  10.4711673  22.6794083  73.3016993  10.3231673  22.1344083
  72.9966993  10.3881673  23.4694083  72.7886993  10.4371673  22.7154083
  63.0646993   9.9801673  33.7444083  63.3566993   9.9131673  34.5644083
  62.4386993   9.3751673  33.6994083  63.0156993   9.8811673  33.8594083
  70.3166993   6.4711673  36.2784083  70.2826993   6.8531673  37.0624083
  71.1706993   6.4291673  36.1074083  70.4376993   6.5211673  36.3694083
  67.4546993   6.6681673  21.0284083  67.2736993   7.2131673  21.6854083
  68.2206993   6.9581673  20.7274083  67.5406993   6.7921673  21.0814083
  61.0576993   8.1421673  32.8664083  60.3596993   7.6341673  32.9924083
  61.3176993   7.9371673  32.0584083  60.9926993   8.0371673  32.7654083
  68.7686993   9.6351673  33.7764083  69.5366993   9.5551673  33.3704083
  68.1856993   9.5141673  33.1384083  68.7956993   9.6051673  33.6224083
  75.0456993  10.2381673  26.6774083  74.5906993  10.9551673  26.8784083
  74.4316993   9.6671673  26.4354083  74.8876993  10.2601673  26.6714083
  72.0426993   6.0831673  26.2214083  72.7436993   5.6011673  26.4104083
  71.3826993   5.5141673  26.2664083  72.0486993   5.9281673  26.2554083
  62.4186993   6.9931673  35.4334083  63.2596993   7.0561673  35.2114083
  62.3816993   7.3901673  36.2094083  62.5376993   7.0611673  35.5154083
  64.3816993   2.5041673  30.1824083  64.5536993   2.2941673  31.0114083
  63.7266993   1.9701673  29.9664083  64.3106993   2.3941673  30.2734083
  65.1316993   2.4421673  32.7724083  65.1846993   3.2891673  32.9744083
  64.8466993   2.0721673  33.5094083  65.0976993   2.5121673  32.9104083
  71.3086993   3.1371673  31.9024083  70.7946993   2.7251673  32.4734083
  71.1826993   3.9811673  32.0834083  71.2146993   3.2011673  32.0134083
  57.9526993   6.8131673  38.9834083  58.7086993   7.1621673  39.2414083
  58.1296993   5.9601673  38.9264083  58.0906993   6.7381673  39.0134083
  74.5616993   3.5761673  22.0294083  74.6806993   3.2891673  22.8444083
  75.3686993   3.5971673  21.6994083  74.6976993   3.5371673  22.1014083
  61.6976993   3.3081673  27.3604083  62.5486993   3.2281673  27.1874083
  61.3406993   2.6261673  26.9484083  61.7706993   3.1951673  27.2734083
  60.4646993  10.0331673  28.5974083  59.7916993   9.5351673  28.3524083
  60.8676993  10.2181673  27.8464083  60.4246993   9.9871673  28.4504083
  64.0656993   3.3151673  25.5954083  64.7786993   3.8101673  25.6854083
  64.2876993   2.7481673  24.9694083  64.2036993   3.3041673  25.5164083
  58.2216993   4.9581673  28.9154083  57.5546993   5.4461673  29.1914083
  58.9016993   5.5031673  28.9444083  58.2236993   5.1101673  28.9604083
  68.5886993   7.0181673  27.9224083  68.0656993   7.6521673  27.6294083
  68.8986993   6.6541673  27.1934083  68.5566993   7.0581673  27.7714083
  58.4596993   5.8061673  23.5934083  59.0116993   6.3751673  23.9574083
  58.2276993   5.2911673  24.2584083  58.5066993   5.8141673  23.7454083
  62.6636993   4.8061673  30.6824083  63.1306993   5.0951673  31.3604083
  63.2356993   4.3281673  30.2284083  62.8176993   4.7781673  30.7154083
  58.2896993   4.2551673  21.2214083  59.0456993   3.8231673  21.2794083
  58.3046993   4.7871673  21.9124083  58.4036993   4.2701673  21.3324083
  59.2296993   2.4761673  29.2264083  59.6606993   2.3471673  28.4794083
  59.0246993   3.3241673  29.2004083  59.2626993   2.5821673  29.1124083
  74.6296993   8.4671673  34.3734083  73.9586993   8.9811673  34.5914083
  74.6926993   8.5671673  33.5094083  74.5396993   8.5581673  34.2784083
  63.3136993   5.9921673  27.5084083  63.4396993   6.8351673  27.6954083
  63.9816993   5.5931673  27.9044083  63.4316993   6.0581673  27.5944083
  66.6256993   9.2161673  31.9694083  66.3486993   8.5751673  31.4464083
  66.4176993   9.9421673  31.5314083  66.5546993   9.2291673  31.8274083
  71.9276993   3.9991673  36.3944083  72.4116993   4.7171673  36.4924083
  72.3216993   3.5721673  35.7434083  72.0576993   4.0421673  36.3124083
  66.2236993   6.8441673  37.5714083  66.5776993   6.6661673  38.3484083
  65.7876993   6.1151673  37.3724083  66.2116993   6.7101673  37.6574083
  74.3566993   4.6301673  26.4644083  74.7126993   4.2801673  27.1794083
  74.3486993   3.9691673  25.8944083  74.4086993   4.4801673  26.4854083
  70.4016993   7.6961673  30.3084083  69.7986993   7.4001673  29.7514083
  70.9466993   8.1481673  29.7994083  70.3926993   7.7191673  30.1504083
  70.4146993   4.5471673  29.7084083  69.6176993   4.7711673  29.9824083
  70.6726993   3.9531673  30.2934083  70.3346993   4.4921673  29.8354083
  64.3066993   9.3591673  24.1564083  64.1596993   8.5831673  24.5274083
  64.9956993   9.2121673  23.6414083  64.3866993   9.2221673  24.1354083
  66.5986993   8.8751673  22.5584083  67.2206993   9.0381673  23.1484083
  66.6346993   9.5661673  22.0264083  66.6956993   9.0011673  22.5674083
  73.6746993   2.5451673  34.5544083  73.7296993   2.6701673  33.6924083
  74.4276993   2.8651673  34.8564083  73.7936993   2.6101673  34.4714083
  69.8656993   7.8941673  38.8314083  70.0296993   8.1771673  39.6404083
  70.1286993   8.5551673  38.3264083  69.9286993   8.0341673  38.8764083
  69.4056993   2.3511673  34.1544083  69.2506993   2.9611673  34.7584083
  69.9396993   1.7931673  34.5604083  69.4616993   2.3591673  34.3034083
  73.0156993   5.0801673  30.6814083  72.5366993   5.3781673  30.0154083
  72.6596993   4.3041673  30.8594083  72.8926993   5.0091673  30.6094083
  67.0126993   2.7981673  29.2434083  66.1656993   2.6041673  29.3244083
  67.3366993   2.6331673  30.0364083  66.9346993   2.7451673  29.3724083
  63.7646993   9.5281673  20.1294083  64.2036993   8.8311673  20.4174083
  63.9716993  10.1521673  20.7024083  63.8606993   9.5171673  20.2564083
  60.8606993   2.4911673  31.5594083  61.5826993   2.9791673  31.5224083
  60.5906993   2.4611673  30.7304083  60.9276993   2.5591673  31.4314083
  60.2556993   3.5431673  35.8374083  59.8346993   3.0251673  35.2764083
  59.9036993   4.3291673  35.6944083  60.1416993   3.5831673  35.7334083
  72.9386993   6.3291673  21.7484083  73.2726993   5.5231673  21.7834083
  72.1836993   6.2571673  22.1784083  72.8766993   6.1991673  21.8174083
  70.3126993   4.2041673  21.1514083  70.9966993   3.6901673  20.9824083
  69.8956993   4.2501673  20.3864083  70.3516993   4.1351673  21.0134083
  64.9946993   5.3541673  32.4554083  64.6966993   5.9461673  33.0224083
  65.0496993   5.7961673  31.7064083  64.9586993   5.5071673  32.4284083
  62.9736993   4.3041673  35.8534083  62.1676993   4.0141673  36.0204083
  62.8846993   5.1721673  35.8594083  62.8416993   4.3891673  35.8784083
  67.5106993   1.7771673  31.9464083  67.9866993   2.1511673  32.5744083
  66.6876993   1.9111673  32.2054083  67.4596993   1.8521673  32.0774083
  66.7746993   9.1701673  27.1744083  67.3206993   9.8491673  27.2284083
  66.4246993   9.2521673  26.3794083  66.8036993   9.2831673  27.0644083
  64.9576993   7.3981673  30.5634083  64.3336993   7.9801673  30.3814083
  65.2056993   7.1121673  29.7774083  64.9016993   7.4421673  30.4204083
  69.2666993   4.0321673  37.5524083  70.0236993   4.3181673  37.2264083
  68.7196993   4.0841673  36.8744083  69.2976993   4.0821673  37.4034083
  73.1756993   6.5821673  36.0564083  73.5216993   6.8521673  36.8104083
  73.4696993   7.1641673  35.4764083  73.2706993   6.7081673  36.0824083
  66.5516993   2.1741673  20.4784083  65.7466993   1.9971673  20.1934083
  66.5186993   3.0251673  20.6704083  66.4276993   2.2731673  20.4654083
  67.6106993   9.0471673  36.4434083  68.0886993   8.4471673  36.0274083
  67.2596993   8.6041673  37.1084083  67.6296993   8.8931673  36.4804083
  74.1986993   2.3541673  24.6244083  74.6746993   1.6251673  24.5764083
  73.3776993   2.0681673  24.5484083  74.1476993   2.2041673  24.6054083
  67.6696993   4.2661673  35.4634083  66.8746993   4.2021673  35.8144083
  67.7406993   5.1131673  35.2684083  67.5626993   4.3811673  35.4864083
  63.4996993  10.4731673  30.7804083  63.5106993  10.5321673  31.6504083
  63.0746993   9.7261673  30.6304083  63.4386993  10.3711673  30.8864083
  70.4146993   3.5211673  26.9794083  70.4906993   3.8621673  27.7784083
  70.5836993   2.6741673  27.1004083  70.4506993   3.4461673  27.1154083
  67.9366993   2.7951673  26.5444083  67.6386993   2.4801673  27.3014083
  68.6316993   3.2681673  26.7794083  67.9956993   2.8181673  26.6914083
  68.1586993   6.9131673  34.5714083  68.8456993   6.7991673  35.0964083
  68.2926993   7.7041673  34.2274083  68.2796993   7.0131673  34.5984083
  60.2636993   9.9711673  36.2224083  59.6096993   9.4021673  36.3204083
  59.8886993  10.7441673  36.3734083  60.1116993  10.0011673  36.2594083
  71.8656993   9.7511673  29.0744083  71.4146993  10.3941673  29.4534083
  72.5736993   9.6721673  29.5794083  71.9036993   9.8341673  29.2054083
  68.5666993   4.8411673  32.0044083  67.8726993   5.2431673  32.3474083
  69.2436993   5.2741673  32.3434083  68.5636993   4.9641673  32.1054083
  73.9436993   7.4341673  38.5844083  74.7196993   7.0441673  38.6674083
  73.4746993   7.0981673  39.2394083  73.9886993   7.3271673  38.6934083
  68.8886993   6.4321673  25.1734083  68.6836993   7.2651673  25.0144083
  68.1136993   6.0501673  25.2954083  68.7436993   6.4991673  25.1684083
  64.2506993   6.6941673  21.5824083  64.6916993   6.7741673  22.3304083
  63.4456993   6.4781673  21.8404083  64.1966993   6.6741673  21.7314083
  73.1586993   8.4651673  25.1564083  72.9846993   7.8111673  25.7064083
  73.8716993   8.1941673  24.7334083  73.2386993   8.3281673  25.1754083
  61.5796993   5.7641673  22.1834083  61.3356993   5.4571673  22.9634083
  61.5466993   5.0611673  21.6674083  61.5386993   5.6151673  22.2224083
  64.3986993   4.0091673  20.9264083  63.5806993   3.7411673  21.0664083
  64.3706993   4.8611673  21.1114083  64.2736993   4.0961673  20.9744083
  70.8336993   5.9181673  32.8474083  71.0396993   6.2191673  33.6394083
  70.7726993   6.6401673  32.3624083  70.8546993   6.0691673  32.8924083
  70.3676993  10.1321673  37.0934083  69.6146993  10.1141673  36.6524083
  70.5356993  10.9841673  37.1774083  70.2816993  10.2551673  37.0404083
  75.6456993   4.5571673  32.3054083  75.6136993   3.6951673  32.1704083
  74.9526993   4.8591673  31.8714083  75.5386993   4.4741673  32.2214083
  64.0396993   9.7551673  36.5114083  64.0806993   9.8811673  37.3744083
  64.6906993   9.1951673  36.3554083  64.1416993   9.6911673  36.6164083
  73.7506993   7.8171673  31.1024083  74.2776993   7.7341673  30.4114083
  73.3596993   7.0391673  31.1564083  73.7706993   7.6901673  31.0084083
  61.6326993   8.1381673  37.8714083  62.2276993   8.5691673  38.3434083
  61.2686993   8.7621673  37.3824083  61.6666993   8.2941673  37.8684083
  59.5596993   6.1271673  34.8004083  58.9856993   6.5431673  35.3094083
  60.2926993   6.5921673  34.8954083  59.5836993   6.2571673  34.8894083
  61.3456993   9.3941673  23.5754083  61.2006993   9.5501673  22.7294083
  62.2116993   9.4731673  23.6534083  61.4526993   9.4291673  23.4624083
  65.5126993   1.7911673  23.3034083  65.6126993   1.9301673  22.4484083
  66.3306993   1.7311673  23.5994083  65.6476993   1.8021673  23.2204083
  74.6726993   9.8551673  20.7834083  75.3096993   9.7211673  21.3644083
  74.3316993   9.0611673  20.6664083  74.7166993   9.7181673  20.8514083
  74.8676993   2.2731673  37.5164083  75.5016993   2.1031673  38.0904083
  75.2846993   2.6761673  36.8644083  75.0226993   2.3081673  37.5054083
  70.7476993   6.1201673  23.1054083  70.4966993   5.9921673  23.9314083
  70.4306993   5.4251673  22.6844083  70.6636993   5.9991673  23.1654083
  72.2786993   2.3841673  38.8714083  73.1496993   2.3481673  38.8354083
  72.0596993   2.8041673  38.1394083  72.3756993   2.4401673  38.7584083
  62.0326993   8.2091673  30.0524083  61.9536993   7.3991673  29.7364083
  61.5886993   8.6961673  29.4804083  61.9556993   8.1611673  29.9214083
  67.6336993   4.3281673  22.5354083  68.3506993   3.9811673  22.1794083
  67.5996993   5.1281673  22.1874083  67.7346993   4.3951673  22.4314083
  59.6046993  10.4531673  33.6334083  60.0976993  10.3971673  34.3514083
  59.7926993   9.7201673  33.1984083  59.7056993  10.3361673  33.6754083
  58.7206993   4.0251673   6.9011673  58.2796993   4.1431673   7.6441673
  58.4376993   3.2501673   6.6161673  58.6136993   3.9281673   6.9691673
  74.9956993   7.3261673   4.4161673  75.6966993   6.8071673   4.4121673
  74.4086993   6.8811673   3.9471673  75.0126993   7.1831673   4.3461673
  61.6026993   3.0801673   2.0801673  61.2106993   2.7091673   1.3941673
  61.5226993   2.4821673   2.7091673  61.5326993   2.9371673   2.0711673
  61.2296993   4.7211673   5.9801673  61.8376993   4.5511673   6.5831673
  60.4786993   4.5811673   6.4011673  61.2086993   4.6751673   6.1311673
  60.1206993   7.8121673   2.0571673  60.5876993   7.8961673   1.3251673
  60.5756993   7.2341673   2.5261673  60.2566993   7.7391673   2.0181673
  58.6606993   6.7601673  13.1561673  58.7896993   6.4801673  13.9721673
  58.0506993   6.2191673  12.8471673  58.5896993   6.6391673  13.2311673
  65.2346993   4.2851673  18.2231673  64.9986993   4.2821673  19.0631673
  64.4866993   4.1371673  17.7991673  65.0886993   4.2621673  18.2841673
  65.2166993   7.4771673  15.4861673  65.3546993   8.2371673  15.0791673
  66.0076993   7.1121673  15.5131673  65.3536993   7.5361673  15.4301673
  66.3116993   5.3621673   9.9911673  66.6596993   4.5631673  10.0211673
  66.9766993   5.8661673   9.7361673  66.4616993   5.3181673   9.9581673
  66.3686993   4.8111673   6.2021673  66.6996993   4.1671673   6.6881673
  66.6086993   4.6001673   5.3911673  66.4526993   4.6851673   6.1541673
  58.4726993   8.7521673   8.2711673  57.8806993   9.3101673   7.9581673
  58.8986993   8.4831673   7.5591673  58.4486993   8.7941673   8.1201673
  64.3126993   6.5961673   5.7511673  63.7336993   6.3211673   6.3431673
  64.9366993   5.9871673   5.7761673  64.3196993   6.4661673   5.8421673
  70.4556993   8.8841673   3.2731673  71.1826993   9.3561673   3.3751673
  70.6846993   8.0901673   3.5531673  70.5976993   8.8371673   3.3301673
  68.6236993   9.2761673   5.2631673  68.8376993   9.8031673   5.9251673
  69.3906993   9.1021673   4.8841673  68.7686993   9.3281673   5.3051673
  60.0176993   7.4221673   6.2021673  60.6736993   6.8471673   6.2171673
  60.4066993   8.1711673   5.9811673  60.1726993   7.4471673   6.1721673
  71.0626993   9.2861673  13.5681673  71.8066993   9.7421673  13.5581673
  70.9416993   9.0721673  12.7311673  71.1546993   9.3221673  13.4431673
  60.8356993   5.9091673   9.7021673  61.2586993   5.5531673   9.0281673
  61.1596993   5.4871673  10.3941673  60.9456993   5.7941673   9.7051673
  64.0666993   8.7611673   8.9981673  64.9106993   8.8651673   8.8031673
  63.7696993   9.5791673   9.0661673  64.1476993   8.8971673   8.9791673
  72.6366993  10.4711673   3.6731673  73.3016993  10.3231673   3.1281673
  72.9966993  10.3881673   4.4631673  72.7886993  10.4371673   3.7091673
  63.0646993   9.9801673  14.7381673  63.3566993   9.9131673  15.5581673
  62.4386993   9.3751673  14.6931673  63.0156993   9.8811673  14.8531673
  70.3166993   6.4711673  17.2721673  70.2826993   6.8531673  18.0561673
  71.1706993   6.4291673  17.1011673  70.4376993   6.5211673  17.3631673
  67.4546993   6.6681673   2.0221673  67.2736993   7.2131673   2.6791673
  68.2206993   6.9581673   1.7211673  67.5406993   6.7921673   2.0751673
  61.0576993   8.1421673  13.8601673  60.3596993   7.6341673  13.9861673
  61.3176993   7.9371673  13.0521673  60.9926993   8.0371673  13.7591673
  68.7686993   9.6351673  14.7701673  69.5366993   9.5551673  14.3641673
  68.1856993   9.5141673  14.1321673  68.7956993   9.6051673  14.6161673
  75.0456993  10.2381673   7.6711673  74.5906993  10.9551673   7.8721673
  74.4316993   9.6671673   7.4291673  74.8876993  10.2601673   7.6651673
  72.0426993   6.0831673   7.2151673  72.7436993   5.6011673   7.4041673
  71.3826993   5.5141673   7.2601673  72.0486993   5.9281673   7.2491673
  62.4186993   6.9931673  16.4271673  63.2596993   7.0561673  16.2051673
  62.3816993   7.3901673  17.2031673  62.5376993   7.0611673  16.5091673
  64.3816993   2.5041673  11.1761673  64.5536993   2.2941673  12.0051673
  63.7266993   1.9701673  10.9601673  64.3106993   2.3941673  11.2671673
  65.1316993   2.4421673  13.7661673  65.1846993   3.2891673  13.9681673
  64.8466993   2.0721673  14.5031673  65.0976993   2.5121673  13.9041673
  71.3086993   3.1371673  12.8961673  70.7946993   2.7251673  13.4671673
  71.1826993   3.9811673  13.0771673  71.2146993   3.2011673  13.0071673
  57.9526993   6.8131673  19.9771673  58.7086993   7.1621673  20.2351673
  58.1296993   5.9601673  19.9201673  58.0906993   6.7381673  20.0071673
  74.5616993   3.5761673   3.0231673  74.6806993   3.2891673   3.8381673
  75.3686993   3.5971673   2.6931673  74.6976993   3.5371673   3.0951673
  61.6976993   3.3081673   8.3541673  62.5486993   3.2281673   8.1811673
  61.3406993   2.6261673   7.9421673  61.7706993   3.1951673   8.2671673
  60.4646993  10.0331673   9.5911673  59.7916993   9.5351673   9.3461673
  60.8676993  10.2181673   8.8401673  60.4246993   9.9871673   9.4441673
  64.0656993   3.3151673   6.5891673  64.7786993   3.8101673   6.6791673
  64.2876993   2.7481673   5.9631673  64.2036993   3.3041673   6.5101673
  58.2216993   4.9581673   9.9091673  57.5546993   5.4461673  10.1851673
  58.9016993   5.5031673   9.9381673  58.2236993   5.1101673   9.9541673
  68.5886993   7.0181673   8.9161673  68.0656993   7.6521673   8.6231673
  68.8986993   6.6541673   8.1871673  68.5566993   7.0581673   8.7651673
  58.4596993   5.8061673   4.5871673  59.0116993   6.3751673   4.9511673
  58.2276993   5.2911673   5.2521673  58.5066993   5.8141673   4.7391673
  62.6636993   4.8061673  11.6761673  63.1306993   5.0951673  12.3541673
  63.2356993   4.3281673  11.2221673  62.8176993   4.7781673  11.7091673
  58.2896993   4.2551673   2.2151673  59.0456993   3.8231673   2.2731673
  58.3046993   4.7871673   2.9061673  58.4036993   4.2701673   2.3261673
  59.2296993   2.4761673  10.2201673  59.6606993   2.3471673   9.4731673
  59.0246993   3.3241673  10.1941673  59.2626993   2.5821673  10.1061673
  74.6296993   8.4671673  15.3671673  73.9586993   8.9811673  15.5851673
  74.6926993   8.5671673  14.5031673  74.5396993   8.5581673  15.2721673
  63.3136993   5.9921673   8.5021673  63.4396993   6.8351673   8.6891673
  63.9816993   5.5931673   8.8981673  63.4316993   6.0581673   8.5881673
  66.6256993   9.2161673  12.9631673  66.3486993   8.5751673  12.4401673
  66.4176993   9.9421673  12.5251673  66.5546993   9.2291673  12.8211673
  71.9276993   3.9991673  17.3881673  72.4116993   4.7171673  17.4861673
  72.3216993   3.5721673  16.7371673  72.0576993   4.0421673  17.3061673
  66.2236993   6.8441673  18.5651673  66.5776993   6.6661673  19.3421673
  65.7876993   6.1151673  18.3661673  66.2116993   6.7101673  18.6511673
  74.3566993   4.6301673   7.4581673  74.7126993   4.2801673   8.1731673
  74.3486993   3.9691673   6.8881673  74.4086993   4.4801673   7.4791673
  70.4016993   7.6961673  11.3021673  69.7986993   7.4001673  10.7451673
  70.9466993   8.1481673  10.7931673  70.3926993   7.7191673  11.1441673
  70.4146993   4.5471673  10.7021673  69.6176993   4.7711673  10.9761673
  70.6726993   3.9531673  11.2871673  70.3346993   4.4921673  10.8291673
  64.3066993   9.3591673   5.1501673  64.1596993   8.5831673   5.5211673
  64.9956993   9.2121673   4.6351673  64.3866993   9.2221673   5.1291673
  66.5986993   8.8751673   3.5521673  67.2206993   9.0381673   4.1421673
  66.6346993   9.5661673   3.0201673  66.6956993   9.0011673   3.5611673
  73.6746993   2.5451673  15.5481673  73.7296993   2.6701673  14.6861673
  74.4276993   2.8651673  15.8501673  73.7936993   2.6101673  15.4651673
  69.8656993   7.8941673  19.8251673  70.0296993   8.1771673  20.6341673
  70.1286993   8.5551673  19.3201673  69.9286993   8.0341673  19.8701673
  69.4056993   2.3511673  15.1481673  69.2506993   2.9611673  15.7521673
  69.9396993   1.7931673  15.5541673  69.4616993   2.3591673  15.2971673
  73.0156993   5.0801673  11.6751673  72.5366993   5.3781673  11.0091673
  72.6596993   4.3041673  11.8531673  72.8926993   5.0091673  11.6031673
  67.0126993   2.7981673  10.2371673  66.1656993   2.6041673  10.3181673
  67.3366993   2.6331673  11.0301673  66.9346993   2.7451673  10.3661673
  60.8606993   2.4911673  12.5531673  61.5826993   2.9791673  12.5161673
  60.5906993   2.4611673  11.7241673  60.9276993   2.5591673  12.4251673
  60.2556993   3.5431673  16.8311673  59.8346993   3.0251673  16.2701673
  59.9036993   4.3291673  16.6881673  60.1416993   3.5831673  16.7271673
  72.9386993   6.3291673   2.7421673  73.2726993   5.5231673   2.7771673
  72.1836993   6.2571673   3.1721673  72.8766993   6.1991673   2.8111673
  70.3126993   4.2041673   2.1451673  70.9966993   3.6901673   1.9761673
  69.8956993   4.2501673   1.3801673  70.3516993   4.1351673   2.0071673
  64.9946993   5.3541673  13.4491673  64.6966993   5.9461673  14.0161673
  65.0496993   5.7961673  12.7001673  64.9586993   5.5071673  13.4221673
  62.9736993   4.3041673  16.8471673  62.1676993   4.0141673  17.0141673
  62.8846993   5.1721673  16.8531673  62.8416993   4.3891673  16.8721673
  67.5106993   1.7771673  12.9401673  67.9866993   2.1511673  13.5681673
  66.6876993   1.9111673  13.1991673  67.4596993   1.8521673  13.0711673
  66.7746993   9.1701673   8.1681673  67.3206993   9.8491673   8.2221673
  66.4246993   9.2521673   7.3731673  66.8036993   9.2831673   8.0581673
  64.9576993   7.3981673  11.5571673  64.3336993   7.9801673  11.3751673
  65.2056993   7.1121673  10.7711673  64.9016993   7.4421673  11.4141673
  69.2666993   4.0321673  18.5461673  70.0236993   4.3181673  18.2201673
  68.7196993   4.0841673  17.8681673  69.2976993   4.0821673  18.3971673
  73.1756993   6.5821673  17.0501673  73.5216993   6.8521673  17.8041673
  73.4696993   7.1641673  16.4701673  73.2706993   6.7081673  17.0761673
  67.6106993   9.0471673  17.4371673  68.0886993   8.4471673  17.0211673
  67.2596993   8.6041673  18.1021673  67.6296993   8.8931673  17.4741673
  74.1986993   2.3541673   5.6181673  74.6746993   1.6251673   5.5701673
  73.3776993   2.0681673   5.5421673  74.1476993   2.2041673   5.5991673
  67.6696993   4.2661673  16.4571673  66.8746993   4.2021673  16.8081673
  67.7406993   5.1131673  16.2621673  67.5626993   4.3811673  16.4801673
  63.4996993  10.4731673  11.7741673  63.5106993  10.5321673  12.6441673
  63.0746993   9.7261673  11.6241673  63.4386993  10.3711673  11.8801673
  70.4146993   3.5211673   7.9731673  70.4906993   3.8621673   8.7721673
  70.5836993   2.6741673   8.0941673  70.4506993   3.4461673   8.1091673
  67.9366993   2.7951673   7.5381673  67.6386993   2.4801673   8.2951673
  68.6316993   3.2681673   7.7731673  67.9956993   2.8181673   7.6851673
  68.1586993   6.9131673  15.5651673  68.8456993   6.7991673  16.0901673
  68.2926993   7.7041673  15.2211673  68.2796993   7.0131673  15.5921673
  60.2636993   9.9711673  17.2161673  59.6096993   9.4021673  17.3141673
  59.8886993  10.7441673  17.3671673  60.1116993  10.0011673  17.2531673
  71.8656993   9.7511673  10.0681673  71.4146993  10.3941673  10.4471673
  72.5736993   9.6721673  10.5731673  71.9036993   9.8341673  10.1991673
  68.5666993   4.8411673  12.9981673  67.8726993   5.2431673  13.3411673
  69.2436993   5.2741673  13.3371673  68.5636993   4.9641673  13.0991673
  73.9436993   7.4341673  19.5781673  74.7196993   7.0441673  19.6611673
  73.4746993   7.0981673  20.2331673  73.9886993   7.3271673  19.6871673
  68.8886993   6.4321673   6.1671673  68.6836993   7.2651673   6.0081673
  68.1136993   6.0501673   6.2891673  68.7436993   6.4991673   6.1621673
  64.2506993   6.6941673   2.5761673  64.6916993   6.7741673   3.3241673
  63.4456993   6.4781673   2.8341673  64.1966993   6.6741673   2.7251673
  73.1586993   8.4651673   6.1501673  72.9846993   7.8111673   6.7001673
  73.8716993   8.1941673   5.7271673  73.2386993   8.3281673   6.1691673
  61.5796993   5.7641673   3.1771673  61.3356993   5.4571673   3.9571673
  61.5466993   5.0611673   2.6611673  61.5386993   5.6151673   3.2161673
  64.3986993   4.0091673   1.9201673  63.5806993   3.7411673   2.0601673
  64.3706993   4.8611673   2.1051673  64.2736993   4.0961673   1.9681673
  70.8336993   5.9181673  13.8411673  71.0396993   6.2191673  14.6331673
  70.7726993   6.6401673  13.3561673  70.8546993   6.0691673  13.8861673
  70.3676993  10.1321673  18.0871673  69.6146993  10.1141673  17.6461673
  70.5356993  10.9841673  18.1711673  70.2816993  10.2551673  18.0341673
  75.6456993   4.5571673  13.2991673  75.6136993   3.6951673  13.1641673
  74.9526993   4.8591673  12.8651673  75.5386993   4.4741673  13.2151673
  64.0396993   9.7551673  17.5051673  64.0806993   9.8811673  18.3681673
  64.6906993   9.1951673  17.3491673  64.1416993   9.6911673  17.6101673
  73.7506993   7.8171673  12.0961673  74.2776993   7.7341673  11.4051673
  73.3596993   7.0391673  12.1501673  73.7706993   7.6901673  12.0021673
  61.6326993   8.1381673  18.8651673  62.2276993   8.5691673  19.3371673
  61.2686993   8.7621673  18.3761673  61.6666993   8.2941673  18.8621673
  59.5596993   6.1271673  15.7941673  58.9856993   6.5431673  16.3031673
  60.2926993   6.5921673  15.8891673  59.5836993   6.2571673  15.8831673
  61.3456993   9.3941673   4.5691673  61.2006993   9.5501673   3.7231673
  62.2116993   9.4731673   4.6471673  61.4526993   9.4291673   4.4561673
  65.5126993   1.7911673   4.2971673  65.6126993   1.9301673   3.4421673
  66.3306993   1.7311673   4.5931673  65.6476993   1.8021673   4.2141673
  74.6726993   9.8551673   1.7771673  75.3096993   9.7211673   2.3581673
  74.3316993   9.0611673   1.6601673  74.7166993   9.7181673   1.8451673
  74.8676993   2.2731673  18.5101673  75.5016993   2.1031673  19.0841673
  75.2846993   2.6761673  17.8581673  75.0226993   2.3081673  18.4991673
  70.7476993   6.1201673   4.0991673  70.4966993   5.9921673   4.9251673
  70.4306993   5.4251673   3.6781673  70.6636993   5.9991673   4.1591673
  72.2786993   2.3841673  19.8651673  73.1496993   2.3481673  19.8291673
  72.0596993   2.8041673  19.1331673  72.3756993   2.4401673  19.7521673
  62.0326993   8.2091673  11.0461673  61.9536993   7.3991673  10.7301673
  61.5886993   8.6961673  10.4741673  61.9556993   8.1611673  10.9151673
  67.6336993   4.3281673   3.5291673  68.3506993   3.9811673   3.1731673
  67.5996993   5.1281673   3.1811673  67.7346993   4.3951673   3.4251673
  59.6046993  10.4531673  14.6271673  60.0976993  10.3971673  15.3451673
  59.7926993   9.7201673  14.1921673  59.7056993  10.3361673  14.6691673
  50.1778553  66.8815993  63.7928903  49.9328553  67.3695993  63.1128903
  51.0408553  66.8085993  63.6928903  50.2688553  66.9425993  63.6778903
  49.9868553  73.7975993  68.4638903  49.4628553  74.3935993  68.8268903
  50.3838553  73.4295993  69.1478903  49.9678553  73.8315993  68.6188903
  39.5988553  71.7295993  60.4268903  38.8208553  71.8915993  60.0668903
  39.6378553  70.8585993  60.4488903  39.4898553  71.6245993  60.3768903
  52.6578553  74.8645993  65.1398903  52.7378553  74.8685993  64.2708903
  52.0738553  74.2325993  65.2888903  52.5828553  74.7715993  65.0338903
  46.6468553  67.9685993  62.9478903  46.5768553  68.6455993  62.4018903
  47.3878553  67.5805993  62.6988903  46.7458553  68.0115993  62.8298903
  41.2418553  75.1935993  64.3768903  40.7798553  74.8015993  63.7498903
  41.9418553  74.6805993  64.4688903  41.2768553  75.0605993  64.2978903
  45.7498553  70.8035993  69.7238903  46.4278553  70.8215993  69.1748903
  45.7048553  69.9675993  69.9688903  45.8428553  70.6825993  69.6788903
  43.2428553  73.2935993  64.3998903  44.0598553  73.1065993  64.6428903
  42.7658553  72.6795993  64.7958903  43.2928553  73.1755993  64.4948903
  49.4718553  72.8545993  74.5598903  48.6238553  72.7555993  74.3818903
  49.5008553  73.5995993  75.0138903  49.3508553  72.9505993  74.6008903
  43.8398553  68.3875993  63.6658903  43.5438553  68.8885993  63.0158903
  44.7068553  68.4655993  63.6088903  43.9238553  68.4735993  63.5618903
  54.0298553  65.8145993  73.6738903  53.8718553  66.5835993  73.2918903
  53.2578553  65.5945993  74.0178903  53.8918553  65.8955993  73.6688903
  46.8188553  67.5295993  65.8888903  46.8918553  68.3895993  66.0178903
  46.7808553  67.4545993  65.0208903  46.8238553  67.6455993  65.7798903
  51.4918553  70.4555993  58.1878903  51.0418553  71.1365993  58.4948903
  51.6058553  69.9515993  58.8908903  51.4428553  70.4815993  58.3368903
  39.6978553  72.9545993  67.3898903  39.4418553  73.7855993  67.3148903
  39.0338553  72.5715993  67.8068903  39.5618553  73.0205993  67.4408903
  42.7268553  67.7715993  67.8808903  42.2058553  67.1435993  67.5728903
  43.3178553  67.3345993  68.3518903  42.7378553  67.6135993  67.9048903
  56.8858553  70.4285993  64.4828903  56.5398553  71.1065993  64.9088903
  56.2498553  69.8305993  64.4988903  56.7408553  70.4405993  64.5478903
  41.7658553  69.5015993  76.1628903  40.9878553  69.1115993  76.0908903
  42.2568553  69.0895993  75.5718903  41.7228553  69.3825993  76.0648903
  48.4148553  67.1445993  75.3308903  48.5928553  66.3355993  75.0558903
  48.2718553  67.5855993  74.5918903  48.4198553  67.0905993  75.1808903
  49.0088553  72.0705993  64.1038903  49.2958553  71.8385993  63.3138903
  49.7408553  72.1495993  64.5728903  49.1588553  72.0475993  64.0568903
  49.7308553  72.4095993  59.2248903  50.0118553  73.1975993  59.4738903
  48.9548553  72.5745993  58.8618903  49.6578553  72.5505993  59.2078903
  56.5608553  68.7515993  69.8518903  57.3178553  68.8235993  69.4238903
  56.6238553  67.9785993  70.2508903  56.6818553  68.6485993  69.8468903
  39.1138553  70.0495993  73.7488903  39.1098553  70.6365993  74.3948903
  39.7078553  70.3615993  73.1918903  39.2008553  70.1825993  73.7618903
  52.0968553  68.4765993  60.0948903  52.6368553  67.7945993  60.1708903
  52.1588553  68.8745993  60.8688903  52.1858553  68.4345993  60.2208903
  40.0508553  69.6445993  62.6638903  39.9368553  68.7805993  62.6948903
  39.5758553  69.9385993  63.3338903  39.9638553  69.5605993  62.7668903
  49.3548553  70.8525993  61.4088903  48.8468553  70.1905993  61.1548903
  49.4068553  71.3565993  60.6988903  49.2878553  70.8295993  61.2668903
  49.3548553  67.7935993  61.2998903  48.8998553  67.3915993  60.6738903
  50.1278553  67.9485993  60.9248903  49.4018553  67.7575993  61.1518903
  47.9528553  70.1605993  65.8218903  48.0268553  70.7285993  65.1638903
  48.0738553  70.6525993  66.5318903  47.9808553  70.3175993  65.8298903
  42.5608553  65.9835993  64.1698903  43.0968553  66.6715993  64.1598903
  42.5638553  65.7095993  63.3418903  42.6398553  66.0445993  64.0458903
  51.7448553  70.3305993  71.7098903  51.6498553  70.6495993  72.5158903
  51.1518553  69.6915993  71.6718903  51.6428553  70.2825993  71.8238903
  53.0008553  66.2745993  64.5458903  53.0498553  65.9565993  65.3568903
  53.3238553  65.6305993  64.0528903  53.0558553  66.1325993  64.5928903
  55.4648553  70.5105993  72.8538903  56.2368553  70.2855993  73.1908903
  54.9898553  70.7275993  73.5538903  55.5088553  70.5095993  73.0068903
  43.0088553  69.7935993  65.8238903  43.2808553  69.3635993  65.1158903
  42.8328553  69.1575993  66.3948903  43.0228553  69.6365993  65.8038903
  41.1498553  70.8955993  68.9058903  41.9928553  71.1155993  68.8628903
  40.7608553  71.4685993  68.3748903  41.2168553  71.0125993  68.8208903
  53.5918553  74.0255993  59.6268903  53.3718553  74.7565993  59.2048903
  53.1438553  74.0765993  60.3738903  53.4928553  74.1405993  59.6748903
  57.7788553  68.8865993  59.0798903  57.1168553  68.3185993  59.1028903
  57.5858553  69.3985993  58.3998903  57.6528553  68.8785993  58.9828903
  58.1018553  73.2645993  71.6358903  58.3168553  72.4645993  71.3598903
  57.2518553  73.3245993  71.4468903  58.0078553  73.1555993  71.5668903
  55.7808553  68.4445993  61.3588903  56.5268553  68.0375993  61.5578903
  56.0438553  69.1595993  60.9338903  55.9298553  68.4905993  61.3258903
  52.2348553  70.7325993  66.4318903  52.5788553  70.8845993  67.2188903
  51.7818553  69.9945993  66.5448903  52.2188553  70.6455993  66.5648903
  46.7108553  69.9525993  60.8888903  46.7088553  69.8355993  60.0238903
  46.5298553  70.8005993  60.9808903  46.6838553  70.0605993  60.7748903
  42.5788553  73.3875993  75.3828903  42.0428553  72.8815993  75.8508903
  42.5988553  72.9975993  74.6028903  42.5018553  73.2545993  75.3368903
  43.0638553  72.7845993  60.5228903  42.9358553  72.3365993  61.2608903
  42.4818553  72.4425993  59.9708903  42.9588553  72.6675993  60.5508903
  43.2308553  74.6145993  67.1218903  42.4498553  74.5555993  66.7388903
  43.3028553  73.8625993  67.5588903  43.1258553  74.4955993  67.1298903
  43.6608553  74.3515993  70.5898903  43.6858553  73.6765993  70.0388903
  43.0148553  74.8475993  70.2778903  43.5698553  74.3245993  70.4628903
  53.5558553  72.0645993  68.9858903  52.8938553  72.3925993  69.4488903
  53.7428553  72.6985993  68.4168903  53.4858553  72.2065993  68.9698903
  50.2008553  67.9705993  72.4148903  50.3498553  67.1455993  72.1718903
  50.5798553  68.0255993  73.1988903  50.2788553  67.8565993  72.4948903
  51.7488553  70.0335993  62.4968903  52.2388553  70.7505993  62.4198903
  50.9588553  70.2945993  62.2338903  51.7048553  70.1775993  62.4468903
  48.3308553  71.5035993  68.2218903  48.8108553  72.2025993  68.4298903
  48.7038553  70.8565993  68.6728903  48.4568553  71.5115993  68.3188903
  50.5198553  74.6725993  60.4958903  50.5118553  75.3945993  60.0058903
  49.8808553  74.8075993  61.0728903  50.4248553  74.7995993  60.5088903
  45.1128553  67.0145993  60.1568903  45.2098553  66.9075993  61.0178903
  44.4048553  67.5205993  60.0918903  45.0228553  67.0735993  60.2748903
  55.8418553  66.7555993  75.5538903  55.2048553  66.3555993  75.1118903
  55.8678553  66.3245993  76.3118903  55.7518553  66.6335993  75.5998903
  39.2318553  66.9825993  62.3678903  39.3608553  66.2745993  61.8758903
  38.8648553  66.6645993  63.0928903  39.1968553  66.8305993  62.4028903
  48.9248553  74.6635993  62.8248903  48.9838553  75.3135993  63.4038903
  48.7358553  73.9675993  63.3158903  48.9058553  74.6565993  62.9828903
  43.4208553  69.1805993  59.3368903  42.9098553  69.2335993  58.6308903
  44.2048553  69.4205993  59.0408903  43.4608553  69.2235993  59.1888903
  45.2258553  71.5745993  66.3068903  46.0718553  71.3845993  66.4048903
  44.8558553  70.7975993  66.1688903  45.2958553  71.4315993  66.3008903
  40.0468553  72.9125993  62.9618903  40.5358553  72.6205993  63.6228903
  40.1758553  72.3195993  62.3348903  40.1378553  72.7815993  62.9668903
  44.5718553  74.3465993  58.4478903  43.9618553  73.9415993  58.9218903
  44.1858553  74.4645993  57.6748903  44.4248553  74.3035993  58.4038903
  46.0268553  72.8075993  61.1578903  46.2988553  73.6335993  61.2248903
  45.1638553  72.8825993  61.0618903  45.9398553  72.9405993  61.1528903
  53.9998553  69.9295993  75.7898903  53.4748553  70.3885993  76.3138903
  53.6388553  69.1345993  75.7838903  53.8688553  69.8795993  75.8658903
  39.5068553  68.7775993  67.6938903  39.5508553  69.1215993  66.8928903
  40.2618553  69.0145993  68.0608903  39.6248553  68.8635993  67.6298903
  52.4918553  73.4985993  75.8658903  52.5648553  73.6025993  76.7288903
  51.8578553  74.0565993  75.6448903  52.4088553  73.5965993  75.9608903
  54.7598553  73.8175993  74.2308903  55.0788553  74.6035993  74.4338903
  54.3898553  73.5475993  74.9738903  54.7528553  73.8935993  74.3708903
  54.5558553  72.0755993  65.4198903  53.8108553  71.7525993  65.7378903
  54.5578553  72.9015993  65.6998903  54.4458553  72.1495993  65.5078903
  53.4678553  68.4055993  72.8808903  54.2118553  68.8575993  72.8178903
  52.9018553  68.8755993  72.4118903  53.4948553  68.5425993  72.8028903
  45.3558553  71.2925993  72.6998903  45.5168553  70.5485993  73.1268903
  45.3108553  71.0435993  71.8648903  45.3728553  71.1455993  72.6398903
  54.7528553  66.3855993  70.5508903  54.4728553  67.2105993  70.5068903
  55.4688553  66.4385993  71.0468903  54.8178553  66.5155993  70.6178903
  47.1078553  67.1005993  72.5798903  47.8128553  67.4205993  72.1778903
  47.3488553  66.2935993  72.8068903  47.2468553  67.0285993  72.5538903
  56.1738553  72.6405993  59.4078903  56.5518553  73.3175993  59.0078903
  55.3318553  72.8645993  59.4388903  56.1048553  72.7735993  59.3528903
  43.6168553  72.1535993  68.6408903  44.0568553  72.0505993  67.8948903
  44.1618553  71.8405993  69.2458903  43.7618553  72.0925993  68.6198903
  51.6328553  71.2555993  74.2328903  50.9848553  71.7255993  74.5808903
  52.1978553  71.1665993  74.8918903  51.6208553  71.3115993  74.3818903
  51.3208553  72.7925993  70.5308903  51.6228553  73.2125993  71.2338903
  51.3568553  71.9525993  70.7628903  51.3708553  72.7305993  70.6688903
  53.8688553  72.2395993  62.7828903  54.0758553  72.0385993  63.6068903
  54.6248553  72.5075993  62.4408903  54.0108553  72.2495993  62.8538903
  47.1638553  67.1385993  68.6878903  46.3378553  66.9895993  68.9248903
  47.1238553  67.1735993  67.8168903  47.0358553  67.1215993  68.5938903
  54.8908553  68.3225993  64.2568903  54.1768553  67.8515993  64.4278903
  54.7288553  68.6635993  63.4708903  54.7618553  68.3035993  64.1658903
  39.7288553  67.5365993  74.7228903  39.5888553  68.3315993  74.3918903
  38.9428553  67.2935993  75.0118903  39.5918553  67.6185993  74.7168903
  42.7928553  70.2805993  61.9478903  42.9188553  69.9515993  61.1498903
  41.9808553  70.0315993  62.1468903  42.6918553  70.1955993  61.8598903
  57.4698553  73.4345993  74.3948903  56.6148553  73.3125993  74.5208903
  57.6228553  73.0395993  73.6318903  57.3658553  73.3575993  74.3008903
  51.9828553  74.0995993  72.9708903  51.7278553  73.3805993  73.3928903
  52.8038553  74.2155993  73.2408903  52.0668553  74.0105993  73.0728903
  42.7698553  72.2915993  72.3638903  43.1448553  72.9105993  71.8768903
  43.4438553  71.8175993  72.6488903  42.9248553  72.3135993  72.3338903
  40.5448553  70.7395993  71.6388903  40.6218553  70.5705993  70.7858903
  41.2908553  71.1455993  71.8358903  40.6658553  70.7745993  71.5418903
  56.1038553  73.3795993  62.0788903  56.2068553  73.3215993  61.2148903
  56.8448553  73.0475993  62.3968903  56.2288553  73.3225993  61.9978903
  43.0988553  68.1495993  74.0498903  43.0178553  67.3055993  74.2558903
  42.7848553  68.1935993  73.2368903  43.0408553  68.0315993  73.9598903
  55.2058553  73.5255993  71.4348903  55.2038553  72.6625993  71.5588903
  55.2728553  73.8495993  72.2418903  55.2158553  73.4455993  71.5718903
  41.3978553  71.9015993  58.4808903  40.7258553  71.9155993  59.0368903
  41.4928553  71.0535993  58.2968903  41.3128553  71.7785993  58.5358903
  51.0848553  68.3255993  75.2168903  51.1768553  69.0375993  75.7108903
  50.4478553  67.8805993  75.6138903  51.0038553  68.3645993  75.3488903
  50.0788553  68.5155993  66.0708903  49.3788553  69.0335993  66.0148903
  50.1168553  68.1355993  65.2868903  49.9808553  68.5365993  65.9468903
  53.6768553  69.0315993  68.8708903  54.5318553  69.1305993  69.0158903
  53.3078553  69.5845993  69.4358903  53.7488553  69.1285993  68.9758903
  53.9808553  74.3115993  67.3618903  54.6468553  74.8525993  67.5218903
  53.6358553  74.6225993  66.6228903  54.0278553  74.4375993  67.2768903
  45.1338553  68.2345993  70.6978903  44.2698553  68.3185993  70.7778903
  45.3538553  67.7205993  71.3668903  45.0388553  68.1715993  70.8088903
  57.1518553  66.8695993  72.0268903  57.0998553  66.8255993  72.8968903
  57.8388553  66.3665993  71.8368903  57.2458553  66.7895993  72.1268903
  49.2368553  68.9825993  69.0718903  48.4998553  68.5285993  69.1848903
  49.8078553  68.5805993  69.5948903  49.2118553  68.8555993  69.1658903
  46.7398553  73.3115993  74.2758903  46.4178553  72.7355993  73.7058903
  46.3808553  74.0665993  74.0298903  46.6398553  73.3375993  74.1558903
  47.5358553  66.5635993  58.9028903  47.6138553  66.8105993  58.0698903
  46.7928553  66.9405993  59.1608903  47.4378553  66.6555993  58.8178903
  42.3538553  68.3175993  71.3458903  42.0108553  67.5505993  71.1118903
  41.6588553  68.8415993  71.4098903  42.2008553  68.2815993  71.3208903
  51.3998553  67.1735993  68.3228903  52.0698553  67.7175993  68.4498903
  50.8968553  67.5975993  67.7498903  51.4248553  67.3165993  68.2568903
  50.7588553  72.9815993  65.8158903  51.3098553  72.3745993  66.1158903
  50.3338553  73.2445993  66.5308903  50.7778553  72.9305993  65.9648903
  41.0068553  71.6315993  65.3018903  40.6388553  71.9335993  66.0328903
  41.5408553  71.0025993  65.5858903  41.0308553  71.5835993  65.4518903
  52.7288553  74.8125993  62.3778903  52.7968553  73.9625993  62.5588903
  51.9058553  74.8985993  62.0998903  52.6168553  74.6995993  62.3638903
  56.6278553  70.7495993  76.2668903  56.4318553  71.3935993  76.8218903
  55.9058553  70.2595993  76.2588903  56.4928553  70.7725993  76.3478903
  56.5268553  71.6905993  69.2378903  55.6938553  71.9405993  69.1658903
  56.4708553  70.8505993  69.4668903  56.3958553  71.6035993  69.2608903
  45.7868553  68.6785993  74.4318903  46.0208553  68.1025993  73.8188903
  44.9448553  68.4975993  74.5728903  45.6968553  68.5665993  74.3618903
  50.1778553  66.8815993  44.7866493  49.9328553  67.3695993  44.1066493
  51.0408553  66.8085993  44.6866493  50.2688553  66.9425993  44.6716493
  49.9868553  73.7975993  49.4576493  49.4628553  74.3935993  49.8206493
  50.3838553  73.4295993  50.1416493  49.9678553  73.8315993  49.6126493
  39.5988553  71.7295993  41.4206493  38.8208553  71.8915993  41.0606493
  39.6378553  70.8585993  41.4426493  39.4898553  71.6245993  41.3706493
  52.6578553  74.8645993  46.1336493  52.7378553  74.8685993  45.2646493
  52.0738553  74.2325993  46.2826493  52.5828553  74.7715993  46.0276493
  46.6468553  67.9685993  43.9416493  46.5768553  68.6455993  43.3956493
  47.3878553  67.5805993  43.6926493  46.7458553  68.0115993  43.8236493
  41.2418553  75.1935993  45.3706493  40.7798553  74.8015993  44.7436493
  41.9418553  74.6805993  45.4626493  41.2768553  75.0605993  45.2916493
  45.7498553  70.8035993  50.7176493  46.4278553  70.8215993  50.1686493
  45.7048553  69.9675993  50.9626493  45.8428553  70.6825993  50.6726493
  43.2428553  73.2935993  45.3936493  44.0598553  73.1065993  45.6366493
  42.7658553  72.6795993  45.7896493  43.2928553  73.1755993  45.4886493
  49.4718553  72.8545993  55.5536493  48.6238553  72.7555993  55.3756493
  49.5008553  73.5995993  56.0076493  49.3508553  72.9505993  55.5946493
  43.8398553  68.3875993  44.6596493  43.5438553  68.8885993  44.0096493
  44.7068553  68.4655993  44.6026493  43.9238553  68.4735993  44.5556493
  54.0298553  65.8145993  54.6676493  53.8718553  66.5835993  54.2856493
  53.2578553  65.5945993  55.0116493  53.8918553  65.8955993  54.6626493
  51.4918553  70.4555993  39.1816493  51.0418553  71.1365993  39.4886493
  51.6058553  69.9515993  39.8846493  51.4428553  70.4815993  39.3306493
  39.6978553  72.9545993  48.3836493  39.4418553  73.7855993  48.3086493
  39.0338553  72.5715993  48.8006493  39.5618553  73.0205993  48.4346493
  42.7268553  67.7715993  48.8746493  42.2058553  67.1435993  48.5666493
  43.3178553  67.3345993  49.3456493  42.7378553  67.6135993  48.8986493
  46.0328553  69.9045993  58.1726493  46.1498553  69.4505993  57.4366493
  46.3208553  70.7025993  57.9696493  46.0928553  69.9555993  58.0336493
  56.8858553  70.4285993  45.4766493  56.5398553  71.1065993  45.9026493
  56.2498553  69.8305993  45.4926493  56.7408553  70.4405993  45.5416493
  41.7658553  69.5015993  57.1566493  40.9878553  69.1115993  57.0846493
  42.2568553  69.0895993  56.5656493  41.7228553  69.3825993  57.0586493
  48.4148553  67.1445993  56.3246493  48.5928553  66.3355993  56.0496493
  48.2718553  67.5855993  55.5856493  48.4198553  67.0905993  56.1746493
  49.0088553  72.0705993  45.0976493  49.2958553  71.8385993  44.3076493
  49.7408553  72.1495993  45.5666493  49.1588553  72.0475993  45.0506493
  49.7308553  72.4095993  40.2186493  50.0118553  73.1975993  40.4676493
  48.9548553  72.5745993  39.8556493  49.6578553  72.5505993  40.2016493
  56.5608553  68.7515993  50.8456493  57.3178553  68.8235993  50.4176493
  56.6238553  67.9785993  51.2446493  56.6818553  68.6485993  50.8406493
  39.1138553  70.0495993  54.7426493  39.1098553  70.6365993  55.3886493
  39.7078553  70.3615993  54.1856493  39.2008553  70.1825993  54.7556493
  52.0968553  68.4765993  41.0886493  52.6368553  67.7945993  41.1646493
  52.1588553  68.8745993  41.8626493  52.1858553  68.4345993  41.2146493
  40.0508553  69.6445993  43.6576493  39.9368553  68.7805993  43.6886493
  39.5758553  69.9385993  44.3276493  39.9638553  69.5605993  43.7606493
  49.3548553  70.8525993  42.4026493  48.8468553  70.1905993  42.1486493
  49.4068553  71.3565993  41.6926493  49.2878553  70.8295993  42.2606493
  49.3548553  67.7935993  42.2936493  48.8998553  67.3915993  41.6676493
  50.1278553  67.9485993  41.9186493  49.4018553  67.7575993  42.1456493
  47.9528553  70.1605993  46.8156493  48.0268553  70.7285993  46.1576493
  48.0738553  70.6525993  47.5256493  47.9808553  70.3175993  46.8236493
  42.5608553  65.9835993  45.1636493  43.0968553  66.6715993  45.1536493
  42.5638553  65.7095993  44.3356493  42.6398553  66.0445993  45.0396493
  51.7448553  70.3305993  52.7036493  51.6498553  70.6495993  53.5096493
  51.1518553  69.6915993  52.6656493  51.6428553  70.2825993  52.8176493
  53.0008553  66.2745993  45.5396493  53.0498553  65.9565993  46.3506493
  53.3238553  65.6305993  45.0466493  53.0558553  66.1325993  45.5866493
  55.4648553  70.5105993  53.8476493  56.2368553  70.2855993  54.1846493
  54.9898553  70.7275993  54.5476493  55.5088553  70.5095993  54.0006493
  43.0088553  69.7935993  46.8176493  43.2808553  69.3635993  46.1096493
  42.8328553  69.1575993  47.3886493  43.0228553  69.6365993  46.7976493
  41.1498553  70.8955993  49.8996493  41.9928553  71.1155993  49.8566493
  40.7608553  71.4685993  49.3686493  41.2168553  71.0125993  49.8146493
  53.5918553  74.0255993  40.6206493  53.3718553  74.7565993  40.1986493
  53.1438553  74.0765993  41.3676493  53.4928553  74.1405993  40.6686493
  57.7788553  68.8865993  40.0736493  57.1168553  68.3185993  40.0966493
  57.5858553  69.3985993  39.3936493  57.6528553  68.8785993  39.9766493
  47.0038553  72.5805993  58.0176493  46.5198553  73.1575993  58.4596493
  46.9758553  72.8755993  57.1966493  46.9278553  72.7095993  57.9616493
  58.1018553  73.2645993  52.6296493  58.3168553  72.4645993  52.3536493
  57.2518553  73.3245993  52.4406493  58.0078553  73.1555993  52.5606493
  55.7808553  68.4445993  42.3526493  56.5268553  68.0375993  42.5516493
  56.0438553  69.1595993  41.9276493  55.9298553  68.4905993  42.3196493
  52.2348553  70.7325993  47.4256493  52.5788553  70.8845993  48.2126493
  51.7818553  69.9945993  47.5386493  52.2188553  70.6455993  47.5586493
  46.7108553  69.9525993  41.8826493  46.7088553  69.8355993  41.0176493
  46.5298553  70.8005993  41.9746493  46.6838553  70.0605993  41.7686493
  42.5788553  73.3875993  56.3766493  42.0428553  72.8815993  56.8446493
  42.5988553  72.9975993  55.5966493  42.5018553  73.2545993  56.3306493
  43.0638553  72.7845993  41.5166493  42.9358553  72.3365993  42.2546493
  42.4818553  72.4425993  40.9646493  42.9588553  72.6675993  41.5446493
  43.2308553  74.6145993  48.1156493  42.4498553  74.5555993  47.7326493
  43.3028553  73.8625993  48.5526493  43.1258553  74.4955993  48.1236493
  43.6608553  74.3515993  51.5836493  43.6858553  73.6765993  51.0326493
  43.0148553  74.8475993  51.2716493  43.5698553  74.3245993  51.4566493
  53.5558553  72.0645993  49.9796493  52.8938553  72.3925993  50.4426493
  53.7428553  72.6985993  49.4106493  53.4858553  72.2065993  49.9636493
  50.2008553  67.9705993  53.4086493  50.3498553  67.1455993  53.1656493
  50.5798553  68.0255993  54.1926493  50.2788553  67.8565993  53.4886493
  51.7488553  70.0335993  43.4906493  52.2388553  70.7505993  43.4136493
  50.9588553  70.2945993  43.2276493  51.7048553  70.1775993  43.4406493
  48.3308553  71.5035993  49.2156493  48.8108553  72.2025993  49.4236493
  48.7038553  70.8565993  49.6666493  48.4568553  71.5115993  49.3126493
  50.5198553  74.6725993  41.4896493  50.5118553  75.3945993  40.9996493
  49.8808553  74.8075993  42.0666493  50.4248553  74.7995993  41.5026493
  45.1128553  67.0145993  41.1506493  45.2098553  66.9075993  42.0116493
  44.4048553  67.5205993  41.0856493  45.0228553  67.0735993  41.2686493
  55.8418553  66.7555993  56.5476493  55.2048553  66.3555993  56.1056493
  55.8678553  66.3245993  57.3056493  55.7518553  66.6335993  56.5936493
  39.2318553  66.9825993  43.3616493  39.3608553  66.2745993  42.8696493
  38.8648553  66.6645993  44.0866493  39.1968553  66.8305993  43.3966493
  48.9248553  74.6635993  43.8186493  48.9838553  75.3135993  44.3976493
  48.7358553  73.9675993  44.3096493  48.9058553  74.6565993  43.9766493
  43.4208553  69.1805993  40.3306493  42.9098553  69.2335993  39.6246493
  44.2048553  69.4205993  40.0346493  43.4608553  69.2235993  40.1826493
  45.2258553  71.5745993  47.3006493  46.0718553  71.3845993  47.3986493
  44.8558553  70.7975993  47.1626493  45.2958553  71.4315993  47.2946493
  40.0468553  72.9125993  43.9556493  40.5358553  72.6205993  44.6166493
  40.1758553  72.3195993  43.3286493  40.1378553  72.7815993  43.9606493
  44.5718553  74.3465993  39.4416493  43.9618553  73.9415993  39.9156493
  44.1858553  74.4645993  38.6686493  44.4248553  74.3035993  39.3976493
  46.0268553  72.8075993  42.1516493  46.2988553  73.6335993  42.2186493
  45.1638553  72.8825993  42.0556493  45.9398553  72.9405993  42.1466493
  53.9998553  69.9295993  56.7836493  53.4748553  70.3885993  57.3076493
  53.6388553  69.1345993  56.7776493  53.8688553  69.8795993  56.8596493
  39.5068553  68.7775993  48.6876493  39.5508553  69.1215993  47.8866493
  40.2618553  69.0145993  49.0546493  39.6248553  68.8635993  48.6236493
  52.4918553  73.4985993  56.8596493  52.5648553  73.6025993  57.7226493
  51.8578553  74.0565993  56.6386493  52.4088553  73.5965993  56.9546493
  54.7598553  73.8175993  55.2246493  55.0788553  74.6035993  55.4276493
  54.3898553  73.5475993  55.9676493  54.7528553  73.8935993  55.3646493
  54.5558553  72.0755993  46.4136493  53.8108553  71.7525993  46.7316493
  54.5578553  72.9015993  46.6936493  54.4458553  72.1495993  46.5016493
  57.4578553  74.3595993  57.9596493  57.4058553  74.0185993  57.1586493
  58.1948553  74.8265993  57.9376493  57.5588553  74.3785993  57.8376493
  53.4678553  68.4055993  53.8746493  54.2118553  68.8575993  53.8116493
  52.9018553  68.8755993  53.4056493  53.4948553  68.5425993  53.7966493
  45.3558553  71.2925993  53.6936493  45.5168553  70.5485993  54.1206493
  45.3108553  71.0435993  52.8586493  45.3728553  71.1455993  53.6336493
  54.7528553  66.3855993  51.5446493  54.4728553  67.2105993  51.5006493
  55.4688553  66.4385993  52.0406493  54.8178553  66.5155993  51.6116493
  47.1078553  67.1005993  53.5736493  47.8128553  67.4205993  53.1716493
  47.3488553  66.2935993  53.8006493  47.2468553  67.0285993  53.5476493
  56.1738553  72.6405993  40.4016493  56.5518553  73.3175993  40.0016493
  55.3318553  72.8645993  40.4326493  56.1048553  72.7735993  40.3466493
  43.6168553  72.1535993  49.6346493  44.0568553  72.0505993  48.8886493
  44.1618553  71.8405993  50.2396493  43.7618553  72.0925993  49.6136493
  51.6328553  71.2555993  55.2266493  50.9848553  71.7255993  55.5746493
  52.1978553  71.1665993  55.8856493  51.6208553  71.3115993  55.3756493
  51.3208553  72.7925993  51.5246493  51.6228553  73.2125993  52.2276493
  51.3568553  71.9525993  51.7566493  51.3708553  72.7305993  51.6626493
  53.8688553  72.2395993  43.7766493  54.0758553  72.0385993  44.6006493
  54.6248553  72.5075993  43.4346493  54.0108553  72.2495993  43.8476493
  47.1638553  67.1385993  49.6816493  46.3378553  66.9895993  49.9186493
  47.1238553  67.1735993  48.8106493  47.0358553  67.1215993  49.5876493
  54.8908553  68.3225993  45.2506493  54.1768553  67.8515993  45.4216493
  54.7288553  68.6635993  44.4646493  54.7618553  68.3035993  45.1596493
  39.7288553  67.5365993  55.7166493  39.5888553  68.3315993  55.3856493
  38.9428553  67.2935993  56.0056493  39.5918553  67.6185993  55.7106493
  42.7928553  70.2805993  42.9416493  42.9188553  69.9515993  42.1436493
  41.9808553  70.0315993  43.1406493  42.6918553  70.1955993  42.8536493
  57.4698553  73.4345993  55.3886493  56.6148553  73.3125993  55.5146493
  57.6228553  73.0395993  54.6256493  57.3658553  73.3575993  55.2946493
  51.9828553  74.0995993  53.9646493  51.7278553  73.3805993  54.3866493
  52.8038553  74.2155993  54.2346493  52.0668553  74.0105993  54.0666493
  42.7698553  72.2915993  53.3576493  43.1448553  72.9105993  52.8706493
  43.4438553  71.8175993  53.6426493  42.9248553  72.3135993  53.3276493
  40.5448553  70.7395993  52.6326493  40.6218553  70.5705993  51.7796493
  41.2908553  71.1455993  52.8296493  40.6658553  70.7745993  52.5356493
  56.1038553  73.3795993  43.0726493  56.2068553  73.3215993  42.2086493
  56.8448553  73.0475993  43.3906493  56.2288553  73.3225993  42.9916493
  55.2058553  73.5255993  52.4286493  55.2038553  72.6625993  52.5526493
  55.2728553  73.8495993  53.2356493  55.2158553  73.4455993  52.5656493
  41.3978553  71.9015993  39.4746493  40.7258553  71.9155993  40.0306493
  41.4928553  71.0535993  39.2906493  41.3128553  71.7785993  39.5296493
  51.0848553  68.3255993  56.2106493  51.1768553  69.0375993  56.7046493
  50.4478553  67.8805993  56.6076493  51.0038553  68.3645993  56.3426493
  50.0788553  68.5155993  47.0646493  49.3788553  69.0335993  47.0086493
  50.1168553  68.1355993  46.2806493  49.9808553  68.5365993  46.9406493
  53.6768553  69.0315993  49.8646493  54.5318553  69.1305993  50.0096493
  53.3078553  69.5845993  50.4296493  53.7488553  69.1285993  49.9696493
  53.9808553  74.3115993  48.3556493  54.6468553  74.8525993  48.5156493
  53.6358553  74.6225993  47.6166493  54.0278553  74.4375993  48.2706493
  45.1338553  68.2345993  51.6916493  44.2698553  68.3185993  51.7716493
  45.3538553  67.7205993  52.3606493  45.0388553  68.1715993  51.8026493
  57.1518553  66.8695993  53.0206493  57.0998553  66.8255993  53.8906493
  57.8388553  66.3665993  52.8306493  57.2458553  66.7895993  53.1206493
  49.2368553  68.9825993  50.0656493  48.4998553  68.5285993  50.1786493
  49.8078553  68.5805993  50.5886493  49.2118553  68.8555993  50.1596493
  46.7398553  73.3115993  55.2696493  46.4178553  72.7355993  54.6996493
  46.3808553  74.0665993  55.0236493  46.6398553  73.3375993  55.1496493
  47.5358553  66.5635993  39.8966493  47.6138553  66.8105993  39.0636493
  46.7928553  66.9405993  40.1546493  47.4378553  66.6555993  39.8116493
  42.3538553  68.3175993  52.3396493  42.0108553  67.5505993  52.1056493
  41.6588553  68.8415993  52.4036493  42.2008553  68.2815993  52.3146493
  51.3998553  67.1735993  49.3166493  52.0698553  67.7175993  49.4436493
  50.8968553  67.5975993  48.7436493  51.4248553  67.3165993  49.2506493
  50.7588553  72.9815993  46.8096493  51.3098553  72.3745993  47.1096493
  50.3338553  73.2445993  47.5246493  50.7778553  72.9305993  46.9586493
  41.0068553  71.6315993  46.2956493  40.6388553  71.9335993  47.0266493
  41.5408553  71.0025993  46.5796493  41.0308553  71.5835993  46.4456493
  52.7288553  74.8125993  43.3716493  52.7968553  73.9625993  43.5526493
  51.9058553  74.8985993  43.0936493  52.6168553  74.6995993  43.3576493
  56.6278553  70.7495993  57.2606493  56.4318553  71.3935993  57.8156493
  55.9058553  70.2595993  57.2526493  56.4928553  70.7725993  57.3416493
  56.5268553  71.6905993  50.2316493  55.6938553  71.9405993  50.1596493
  56.4708553  70.8505993  50.4606493  56.3958553  71.6035993  50.2546493
  45.7868553  68.6785993  55.4256493  46.0208553  68.1025993  54.8126493
  44.9448553  68.4975993  55.5666493  45.6968553  68.5665993  55.3556493
  50.1778553  66.8815993  25.7804083  49.9328553  67.3695993  25.1004083
  51.0408553  66.8085993  25.6804083  50.2688553  66.9425993  25.6654083
  49.9868553  73.7975993  30.4514083  49.4628553  74.3935993  30.8144083
  50.3838553  73.4295993  31.1354083  49.9678553  73.8315993  30.6064083
  39.5988553  71.7295993  22.4144083  38.8208553  71.8915993  22.0544083
  39.6378553  70.8585993  22.4364083  39.4898553  71.6245993  22.3644083
  52.6578553  74.8645993  27.1274083  52.7378553  74.8685993  26.2584083
  52.0738553  74.2325993  27.2764083  52.5828553  74.7715993  27.0214083
  46.6468553  67.9685993  24.9354083  46.5768553  68.6455993  24.3894083
  47.3878553  67.5805993  24.6864083  46.7458553  68.0115993  24.8174083
  41.2418553  75.1935993  26.3644083  40.7798553  74.8015993  25.7374083
  41.9418553  74.6805993  26.4564083  41.2768553  75.0605993  26.2854083
  45.7498553  70.8035993  31.7114083  46.4278553  70.8215993  31.1624083
  45.7048553  69.9675993  31.9564083  45.8428553  70.6825993  31.6664083
  43.2428553  73.2935993  26.3874083  44.0598553  73.1065993  26.6304083
  42.7658553  72.6795993  26.7834083  43.2928553  73.1755993  26.4824083
  49.4718553  72.8545993  36.5474083  48.6238553  72.7555993  36.3694083
  49.5008553  73.5995993  37.0014083  49.3508553  72.9505993  36.5884083
  43.8398553  68.3875993  25.6534083  43.5438553  68.8885993  25.0034083
  44.7068553  68.4655993  25.5964083  43.9238553  68.4735993  25.5494083
  54.0298553  65.8145993  35.6614083  53.8718553  66.5835993  35.2794083
  53.2578553  65.5945993  36.0054083  53.8918553  65.8955993  35.6564083
  46.8188553  67.5295993  27.8764083  46.8918553  68.3895993  28.0054083
  46.7808553  67.4545993  27.0084083  46.8238553  67.6455993  27.7674083
  51.4918553  70.4555993  20.1754083  51.0418553  71.1365993  20.4824083
  51.6058553  69.9515993  20.8784083  51.4428553  70.4815993  20.3244083
  39.6978553  72.9545993  29.3774083  39.4418553  73.7855993  29.3024083
  39.0338553  72.5715993  29.7944083  39.5618553  73.0205993  29.4284083
  42.7268553  67.7715993  29.8684083  42.2058553  67.1435993  29.5604083
  43.3178553  67.3345993  30.3394083  42.7378553  67.6135993  29.8924083
  46.0328553  69.9045993  39.1664083  46.1498553  69.4505993  38.4304083
  46.3208553  70.7025993  38.9634083  46.0928553  69.9555993  39.0274083
  56.8858553  70.4285993  26.4704083  56.5398553  71.1065993  26.8964083
  56.2498553  69.8305993  26.4864083  56.7408553  70.4405993  26.5354083
  41.7658553  69.5015993  38.1504083  40.9878553  69.1115993  38.0784083
  42.2568553  69.0895993  37.5594083  41.7228553  69.3825993  38.0524083
  48.4148553  67.1445993  37.3184083  48.5928553  66.3355993  37.0434083
  48.2718553  67.5855993  36.5794083  48.4198553  67.0905993  37.1684083
  49.0088553  72.0705993  26.0914083  49.2958553  71.8385993  25.3014083
  49.7408553  72.1495993  26.5604083  49.1588553  72.0475993  26.0444083
  49.7308553  72.4095993  21.2124083  50.0118553  73.1975993  21.4614083
  48.9548553  72.5745993  20.8494083  49.6578553  72.5505993  21.1954083
  56.5608553  68.7515993  31.8394083  57.3178553  68.8235993  31.4114083
  56.6238553  67.9785993  32.2384083  56.6818553  68.6485993  31.8344083
  39.1138553  70.0495993  35.7364083  39.1098553  70.6365993  36.3824083
  39.7078553  70.3615993  35.1794083  39.2008553  70.1825993  35.7494083
  52.0968553  68.4765993  22.0824083  52.6368553  67.7945993  22.1584083
  52.1588553  68.8745993  22.8564083  52.1858553  68.4345993  22.2084083
  40.0508553  69.6445993  24.6514083  39.9368553  68.7805993  24.6824083
  39.5758553  69.9385993  25.3214083  39.9638553  69.5605993  24.7544083
  49.3548553  70.8525993  23.3964083  48.8468553  70.1905993  23.1424083
  49.4068553  71.3565993  22.6864083  49.2878553  70.8295993  23.2544083
  49.3548553  67.7935993  23.2874083  48.8998553  67.3915993  22.6614083
  50.1278553  67.9485993  22.9124083  49.4018553  67.7575993  23.1394083
  47.9528553  70.1605993  27.8094083  48.0268553  70.7285993  27.1514083
  48.0738553  70.6525993  28.5194083  47.9808553  70.3175993  27.8174083
  42.5608553  65.9835993  26.1574083  43.0968553  66.6715993  26.1474083
  42.5638553  65.7095993  25.3294083  42.6398553  66.0445993  26.0334083
  51.7448553  70.3305993  33.6974083  51.6498553  70.6495993  34.5034083
  51.1518553  69.6915993  33.6594083  51.6428553  70.2825993  33.8114083
  53.0008553  66.2745993  26.5334083  53.0498553  65.9565993  27.3444083
  53.3238553  65.6305993  26.0404083  53.0558553  66.1325993  26.5804083
  55.4648553  70.5105993  34.8414083  56.2368553  70.2855993  35.1784083
  54.9898553  70.7275993  35.5414083  55.5088553  70.5095993  34.9944083
  43.0088553  69.7935993  27.8114083  43.2808553  69.3635993  27.1034083
  42.8328553  69.1575993  28.3824083  43.0228553  69.6365993  27.7914083
  41.1498553  70.8955993  30.8934083  41.9928553  71.1155993  30.8504083
  40.7608553  71.4685993  30.3624083  41.2168553  71.0125993  30.8084083
  53.5918553  74.0255993  21.6144083  53.3718553  74.7565993  21.1924083
  53.1438553  74.0765993  22.3614083  53.4928553  74.1405993  21.6624083
  57.7788553  68.8865993  21.0674083  57.1168553  68.3185993  21.0904083
  57.5858553  69.3985993  20.3874083  57.6528553  68.8785993  20.9704083
  47.0038553  72.5805993  39.0114083  46.5198553  73.1575993  39.4534083
  46.9758553  72.8755993  38.1904083  46.9278553  72.7095993  38.9554083
  58.1018553  73.2645993  33.6234083  58.3168553  72.4645993  33.3474083
  57.2518553  73.3245993  33.4344083  58.0078553  73.1555993  33.5544083
  55.7808553  68.4445993  23.3464083  56.5268553  68.0375993  23.5454083
  56.0438553  69.1595993  22.9214083  55.9298553  68.4905993  23.3134083
  52.2348553  70.7325993  28.4194083  52.5788553  70.8845993  29.2064083
  51.7818553  69.9945993  28.5324083  52.2188553  70.6455993  28.5524083
  46.7108553  69.9525993  22.8764083  46.7088553  69.8355993  22.0114083
  46.5298553  70.8005993  22.9684083  46.6838553  70.0605993  22.7624083
  42.5788553  73.3875993  37.3704083  42.0428553  72.8815993  37.8384083
  42.5988553  72.9975993  36.5904083  42.5018553  73.2545993  37.3244083
  43.0638553  72.7845993  22.5104083  42.9358553  72.3365993  23.2484083
  42.4818553  72.4425993  21.9584083  42.9588553  72.6675993  22.5384083
  43.2308553  74.6145993  29.1094083  42.4498553  74.5555993  28.7264083
  43.3028553  73.8625993  29.5464083  43.1258553  74.4955993  29.1174083
  43.6608553  74.3515993  32.5774083  43.6858553  73.6765993  32.0264083
  43.0148553  74.8475993  32.2654083  43.5698553  74.3245993  32.4504083
  53.5558553  72.0645993  30.9734083  52.8938553  72.3925993  31.4364083
  53.7428553  72.6985993  30.4044083  53.4858553  72.2065993  30.9574083
  50.2008553  67.9705993  34.4024083  50.3498553  67.1455993  34.1594083
  50.5798553  68.0255993  35.1864083  50.2788553  67.8565993  34.4824083
  51.7488553  70.0335993  24.4844083  52.2388553  70.7505993  24.4074083
  50.9588553  70.2945993  24.2214083  51.7048553  70.1775993  24.4344083
  48.3308553  71.5035993  30.2094083  48.8108553  72.2025993  30.4174083
  48.7038553  70.8565993  30.6604083  48.4568553  71.5115993  30.3064083
  50.5198553  74.6725993  22.4834083  50.5118553  75.3945993  21.9934083
  49.8808553  74.8075993  23.0604083  50.4248553  74.7995993  22.4964083
  45.1128553  67.0145993  22.1444083  45.2098553  66.9075993  23.0054083
  44.4048553  67.5205993  22.0794083  45.0228553  67.0735993  22.2624083
  55.8418553  66.7555993  37.5414083  55.2048553  66.3555993  37.0994083
  55.8678553  66.3245993  38.2994083  55.7518553  66.6335993  37.5874083
  39.2318553  66.9825993  24.3554083  39.3608553  66.2745993  23.8634083
  38.8648553  66.6645993  25.0804083  39.1968553  66.8305993  24.3904083
  48.9248553  74.6635993  24.8124083  48.9838553  75.3135993  25.3914083
  48.7358553  73.9675993  25.3034083  48.9058553  74.6565993  24.9704083
  43.4208553  69.1805993  21.3244083  42.9098553  69.2335993  20.6184083
  44.2048553  69.4205993  21.0284083  43.4608553  69.2235993  21.1764083
  45.2258553  71.5745993  28.2944083  46.0718553  71.3845993  28.3924083
  44.8558553  70.7975993  28.1564083  45.2958553  71.4315993  28.2884083
  40.0468553  72.9125993  24.9494083  40.5358553  72.6205993  25.6104083
  40.1758553  72.3195993  24.3224083  40.1378553  72.7815993  24.9544083
  44.5718553  74.3465993  20.4354083  43.9618553  73.9415993  20.9094083
  44.1858553  74.4645993  19.6624083  44.4248553  74.3035993  20.3914083
  46.0268553  72.8075993  23.1454083  46.2988553  73.6335993  23.2124083
  45.1638553  72.8825993  23.0494083  45.9398553  72.9405993  23.1404083
  53.9998553  69.9295993  37.7774083  53.4748553  70.3885993  38.3014083
  53.6388553  69.1345993  37.7714083  53.8688553  69.8795993  37.8534083
  39.5068553  68.7775993  29.6814083  39.5508553  69.1215993  28.8804083
  40.2618553  69.0145993  30.0484083  39.6248553  68.8635993  29.6174083
  52.4918553  73.4985993  37.8534083  52.5648553  73.6025993  38.7164083
  51.8578553  74.0565993  37.6324083  52.4088553  73.5965993  37.9484083
  54.7598553  73.8175993  36.2184083  55.0788553  74.6035993  36.4214083
  54.3898553  73.5475993  36.9614083  54.7528553  73.8935993  36.3584083
  54.5558553  72.0755993  27.4074083  53.8108553  71.7525993  27.7254083
  54.5578553  72.9015993  27.6874083  54.4458553  72.1495993  27.4954083
  57.4578553  74.3595993  38.9534083  57.4058553  74.0185993  38.1524083
  58.1948553  74.8265993  38.9314083  57.5588553  74.3785993  38.8314083
  53.4678553  68.4055993  34.8684083  54.2118553  68.8575993  34.8054083
  52.9018553  68.8755993  34.3994083  53.4948553  68.5425993  34.7904083
  45.3558553  71.2925993  34.6874083  45.5168553  70.5485993  35.1144083
  45.3108553  71.0435993  33.8524083  45.3728553  71.1455993  34.6274083
  54.7528553  66.3855993  32.5384083  54.4728553  67.2105993  32.4944083
  55.4688553  66.4385993  33.0344083  54.8178553  66.5155993  32.6054083
  47.1078553  67.1005993  34.5674083  47.8128553  67.4205993  34.1654083
  47.3488553  66.2935993  34.7944083  47.2468553  67.0285993  34.5414083
  56.1738553  72.6405993  21.3954083  56.5518553  73.3175993  20.9954083
  55.3318553  72.8645993  21.4264083  56.1048553  72.7735993  21.3404083
  43.6168553  72.1535993  30.6284083  44.0568553  72.0505993  29.8824083
  44.1618553  71.8405993  31.2334083  43.7618553  72.0925993  30.6074083
  51.6328553  71.2555993  36.2204083  50.9848553  71.7255993  36.5684083
  52.1978553  71.1665993  36.8794083  51.6208553  71.3115993  36.3694083
  51.3208553  72.7925993  32.5184083  51.6228553  73.2125993  33.2214083
  51.3568553  71.9525993  32.7504083  51.3708553  72.7305993  32.6564083
  53.8688553  72.2395993  24.7704083  54.0758553  72.0385993  25.5944083
  54.6248553  72.5075993  24.4284083  54.0108553  72.2495993  24.8414083
  47.1638553  67.1385993  30.6754083  46.3378553  66.9895993  30.9124083
  47.1238553  67.1735993  29.8044083  47.0358553  67.1215993  30.5814083
  54.8908553  68.3225993  26.2444083  54.1768553  67.8515993  26.4154083
  54.7288553  68.6635993  25.4584083  54.7618553  68.3035993  26.1534083
  39.7288553  67.5365993  36.7104083  39.5888553  68.3315993  36.3794083
  38.9428553  67.2935993  36.9994083  39.5918553  67.6185993  36.7044083
  42.7928553  70.2805993  23.9354083  42.9188553  69.9515993  23.1374083
  41.9808553  70.0315993  24.1344083  42.6918553  70.1955993  23.8474083
  57.4698553  73.4345993  36.3824083  56.6148553  73.3125993  36.5084083
  57.6228553  73.0395993  35.6194083  57.3658553  73.3575993  36.2884083
  51.9828553  74.0995993  34.9584083  51.7278553  73.3805993  35.3804083
  52.8038553  74.2155993  35.2284083  52.0668553  74.0105993  35.0604083
  42.7698553  72.2915993  34.3514083  43.1448553  72.9105993  33.8644083
  43.4438553  71.8175993  34.6364083  42.9248553  72.3135993  34.3214083
  40.5448553  70.7395993  33.6264083  40.6218553  70.5705993  32.7734083
  41.2908553  71.1455993  33.8234083  40.6658553  70.7745993  33.5294083
  56.1038553  73.3795993  24.0664083  56.2068553  73.3215993  23.2024083
  56.8448553  73.0475993  24.3844083  56.2288553  73.3225993  23.9854083
  43.0988553  68.1495993  36.0374083  43.0178553  67.3055993  36.2434083
  42.7848553  68.1935993  35.2244083  43.0408553  68.0315993  35.9474083
  55.2058553  73.5255993  33.4224083  55.2038553  72.6625993  33.5464083
  55.2728553  73.8495993  34.2294083  55.2158553  73.4455993  33.5594083
  41.3978553  71.9015993  20.4684083  40.7258553  71.9155993  21.0244083
  41.4928553  71.0535993  20.2844083  41.3128553  71.7785993  20.5234083
  51.0848553  68.3255993  37.2044083  51.1768553  69.0375993  37.6984083
  50.4478553  67.8805993  37.6014083  51.0038553  68.3645993  37.3364083
  50.0788553  68.5155993  28.0584083  49.3788553  69.0335993  28.0024083
  50.1168553  68.1355993  27.2744083  49.9808553  68.5365993  27.9344083
  53.6768553  69.0315993  30.8584083  54.5318553  69.1305993  31.0034083
  53.3078553  69.5845993  31.4234083  53.7488553  69.1285993  30.9634083
  53.9808553  74.3115993  29.3494083  54.6468553  74.8525993  29.5094083
  53.6358553  74.6225993  28.6104083  54.0278553  74.4375993  29.2644083
  45.1338553  68.2345993  32.6854083  44.2698553  68.3185993  32.7654083
  45.3538553  67.7205993  33.3544083  45.0388553  68.1715993  32.7964083
  57.1518553  66.8695993  34.0144083  57.0998553  66.8255993  34.8844083
  57.8388553  66.3665993  33.8244083  57.2458553  66.7895993  34.1144083
  49.2368553  68.9825993  31.0594083  48.4998553  68.5285993  31.1724083
  49.8078553  68.5805993  31.5824083  49.2118553  68.8555993  31.1534083
  46.7398553  73.3115993  36.2634083  46.4178553  72.7355993  35.6934083
  46.3808553  74.0665993  36.0174083  46.6398553  73.3375993  36.1434083
  47.5358553  66.5635993  20.8904083  47.6138553  66.8105993  20.0574083
  46.7928553  66.9405993  21.1484083  47.4378553  66.6555993  20.8054083
  42.3538553  68.3175993  33.3334083  42.0108553  67.5505993  33.0994083
  41.6588553  68.8415993  33.3974083  42.2008553  68.2815993  33.3084083
  51.3998553  67.1735993  30.3104083  52.0698553  67.7175993  30.4374083
  50.8968553  67.5975993  29.7374083  51.4248553  67.3165993  30.2444083
  50.7588553  72.9815993  27.8034083  51.3098553  72.3745993  28.1034083
  50.3338553  73.2445993  28.5184083  50.7778553  72.9305993  27.9524083
  41.0068553  71.6315993  27.2894083  40.6388553  71.9335993  28.0204083
  41.5408553  71.0025993  27.5734083  41.0308553  71.5835993  27.4394083
  52.7288553  74.8125993  24.3654083  52.7968553  73.9625993  24.5464083
  51.9058553  74.8985993  24.0874083  52.6168553  74.6995993  24.3514083
  56.6278553  70.7495993  38.2544083  56.4318553  71.3935993  38.8094083
  55.9058553  70.2595993  38.2464083  56.4928553  70.7725993  38.3354083
  56.5268553  71.6905993  31.2254083  55.6938553  71.9405993  31.1534083
  56.4708553  70.8505993  31.4544083  56.3958553  71.6035993  31.2484083
  45.7868553  68.6785993  36.4194083  46.0208553  68.1025993  35.8064083
  44.9448553  68.4975993  36.5604083  45.6968553  68.5665993  36.3494083
  50.1778553  66.8815993   6.7741673  49.9328553  67.3695993   6.0941673
  51.0408553  66.8085993   6.6741673  50.2688553  66.9425993   6.6591673
  49.9868553  73.7975993  11.4451673  49.4628553  74.3935993  11.8081673
  50.3838553  73.4295993  12.1291673  49.9678553  73.8315993  11.6001673
  39.5988553  71.7295993   3.4081673  38.8208553  71.8915993   3.0481673
  39.6378553  70.8585993   3.4301673  39.4898553  71.6245993   3.3581673
  52.6578553  74.8645993   8.1211673  52.7378553  74.8685993   7.2521673
  52.0738553  74.2325993   8.2701673  52.5828553  74.7715993   8.0151673
  46.6468553  67.9685993   5.9291673  46.5768553  68.6455993   5.3831673
  47.3878553  67.5805993   5.6801673  46.7458553  68.0115993   5.8111673
  41.2418553  75.1935993   7.3581673  40.7798553  74.8015993   6.7311673
  41.9418553  74.6805993   7.4501673  41.2768553  75.0605993   7.2791673
  45.7498553  70.8035993  12.7051673  46.4278553  70.8215993  12.1561673
  45.7048553  69.9675993  12.9501673  45.8428553  70.6825993  12.6601673
  43.2428553  73.2935993   7.3811673  44.0598553  73.1065993   7.6241673
  42.7658553  72.6795993   7.7771673  43.2928553  73.1755993   7.4761673
  49.4718553  72.8545993  17.5411673  48.6238553  72.7555993  17.3631673
  49.5008553  73.5995993  17.9951673  49.3508553  72.9505993  17.5821673
  43.8398553  68.3875993   6.6471673  43.5438553  68.8885993   5.9971673
  44.7068553  68.4655993   6.5901673  43.9238553  68.4735993   6.5431673
  54.0298553  65.8145993  16.6551673  53.8718553  66.5835993  16.2731673
  53.2578553  65.5945993  16.9991673  53.8918553  65.8955993  16.6501673
  46.8188553  67.5295993   8.8701673  46.8918553  68.3895993   8.9991673
  46.7808553  67.4545993   8.0021673  46.8238553  67.6455993   8.7611673
  39.6978553  72.9545993  10.3711673  39.4418553  73.7855993  10.2961673
  39.0338553  72.5715993  10.7881673  39.5618553  73.0205993  10.4221673
  42.7268553  67.7715993  10.8621673  42.2058553  67.1435993  10.5541673
  43.3178553  67.3345993  11.3331673  42.7378553  67.6135993  10.8861673
  46.0328553  69.9045993  20.1601673  46.1498553  69.4505993  19.4241673
  46.3208553  70.7025993  19.9571673  46.0928553  69.9555993  20.0211673
  56.8858553  70.4285993   7.4641673  56.5398553  71.1065993   7.8901673
  56.2498553  69.8305993   7.4801673  56.7408553  70.4405993   7.5291673
  41.7658553  69.5015993  19.1441673  40.9878553  69.1115993  19.0721673
  42.2568553  69.0895993  18.5531673  41.7228553  69.3825993  19.0461673
  48.4148553  67.1445993  18.3121673  48.5928553  66.3355993  18.0371673
  48.2718553  67.5855993  17.5731673  48.4198553  67.0905993  18.1621673
  49.0088553  72.0705993   7.0851673  49.2958553  71.8385993   6.2951673
  49.7408553  72.1495993   7.5541673  49.1588553  72.0475993   7.0381673
  49.7308553  72.4095993   2.2061673  50.0118553  73.1975993   2.4551673
  48.9548553  72.5745993   1.8431673  49.6578553  72.5505993   2.1891673
  56.5608553  68.7515993  12.8331673  57.3178553  68.8235993  12.4051673
  56.6238553  67.9785993  13.2321673  56.6818553  68.6485993  12.8281673
  39.1138553  70.0495993  16.7301673  39.1098553  70.6365993  17.3761673
  39.7078553  70.3615993  16.1731673  39.2008553  70.1825993  16.7431673
  52.0968553  68.4765993   3.0761673  52.6368553  67.7945993   3.1521673
  52.1588553  68.8745993   3.8501673  52.1858553  68.4345993   3.2021673
  40.0508553  69.6445993   5.6451673  39.9368553  68.7805993   5.6761673
  39.5758553  69.9385993   6.3151673  39.9638553  69.5605993   5.7481673
  49.3548553  70.8525993   4.3901673  48.8468553  70.1905993   4.1361673
  49.4068553  71.3565993   3.6801673  49.2878553  70.8295993   4.2481673
  49.3548553  67.7935993   4.2811673  48.8998553  67.3915993   3.6551673
  50.1278553  67.9485993   3.9061673  49.4018553  67.7575993   4.1331673
  47.9528553  70.1605993   8.8031673  48.0268553  70.7285993   8.1451673
  48.0738553  70.6525993   9.5131673  47.9808553  70.3175993   8.8111673
  42.5608553  65.9835993   7.1511673  43.0968553  66.6715993   7.1411673
  42.5638553  65.7095993   6.3231673  42.6398553  66.0445993   7.0271673
  51.7448553  70.3305993  14.6911673  51.6498553  70.6495993  15.4971673
  51.1518553  69.6915993  14.6531673  51.6428553  70.2825993  14.8051673
  53.0008553  66.2745993   7.5271673  53.0498553  65.9565993   8.3381673
  53.3238553  65.6305993   7.0341673  53.0558553  66.1325993   7.5741673
  55.4648553  70.5105993  15.8351673  56.2368553  70.2855993  16.1721673
  54.9898553  70.7275993  16.5351673  55.5088553  70.5095993  15.9881673
  43.0088553  69.7935993   8.8051673  43.2808553  69.3635993   8.0971673
  42.8328553  69.1575993   9.3761673  43.0228553  69.6365993   8.7851673
  41.1498553  70.8955993  11.8871673  41.9928553  71.1155993  11.8441673
  40.7608553  71.4685993  11.3561673  41.2168553  71.0125993  11.8021673
  53.5918553  74.0255993   2.6081673  53.3718553  74.7565993   2.1861673
  53.1438553  74.0765993   3.3551673  53.4928553  74.1405993   2.6561673
  57.7788553  68.8865993   2.0611673  57.1168553  68.3185993   2.0841673
  57.5858553  69.3985993   1.3811673  57.6528553  68.8785993   1.9641673
  47.0038553  72.5805993  20.0051673  46.5198553  73.1575993  20.4471673
  46.9758553  72.8755993  19.1841673  46.9278553  72.7095993  19.9491673
  58.1018553  73.2645993  14.6171673  58.3168553  72.4645993  14.3411673
  57.2518553  73.3245993  14.4281673  58.0078553  73.1555993  14.5481673
  55.7808553  68.4445993   4.3401673  56.5268553  68.0375993   4.5391673
  56.0438553  69.1595993   3.9151673  55.9298553  68.4905993   4.3071673
  52.2348553  70.7325993   9.4131673  52.5788553  70.8845993  10.2001673
  51.7818553  69.9945993   9.5261673  52.2188553  70.6455993   9.5461673
  46.7108553  69.9525993   3.8701673  46.7088553  69.8355993   3.0051673
  46.5298553  70.8005993   3.9621673  46.6838553  70.0605993   3.7561673
  42.5788553  73.3875993  18.3641673  42.0428553  72.8815993  18.8321673
  42.5988553  72.9975993  17.5841673  42.5018553  73.2545993  18.3181673
  43.0638553  72.7845993   3.5041673  42.9358553  72.3365993   4.2421673
  42.4818553  72.4425993   2.9521673  42.9588553  72.6675993   3.5321673
  43.2308553  74.6145993  10.1031673  42.4498553  74.5555993   9.7201673
  43.3028553  73.8625993  10.5401673  43.1258553  74.4955993  10.1111673
  43.6608553  74.3515993  13.5711673  43.6858553  73.6765993  13.0201673
  43.0148553  74.8475993  13.2591673  43.5698553  74.3245993  13.4441673
  53.5558553  72.0645993  11.9671673  52.8938553  72.3925993  12.4301673
  53.7428553  72.6985993  11.3981673  53.4858553  72.2065993  11.9511673
  50.2008553  67.9705993  15.3961673  50.3498553  67.1455993  15.1531673
  50.5798553  68.0255993  16.1801673  50.2788553  67.8565993  15.4761673
  51.7488553  70.0335993   5.4781673  52.2388553  70.7505993   5.4011673
  50.9588553  70.2945993   5.2151673  51.7048553  70.1775993   5.4281673
  48.3308553  71.5035993  11.2031673  48.8108553  72.2025993  11.4111673
  48.7038553  70.8565993  11.6541673  48.4568553  71.5115993  11.3001673
  50.5198553  74.6725993   3.4771673  50.5118553  75.3945993   2.9871673
  49.8808553  74.8075993   4.0541673  50.4248553  74.7995993   3.4901673
  45.1128553  67.0145993   3.1381673  45.2098553  66.9075993   3.9991673
  44.4048553  67.5205993   3.0731673  45.0228553  67.0735993   3.2561673
  55.8418553  66.7555993  18.5351673  55.2048553  66.3555993  18.0931673
  55.8678553  66.3245993  19.2931673  55.7518553  66.6335993  18.5811673
  39.2318553  66.9825993   5.3491673  39.3608553  66.2745993   4.8571673
  38.8648553  66.6645993   6.0741673  39.1968553  66.8305993   5.3841673
  48.9248553  74.6635993   5.8061673  48.9838553  75.3135993   6.3851673
  48.7358553  73.9675993   6.2971673  48.9058553  74.6565993   5.9641673
  43.4208553  69.1805993   2.3181673  42.9098553  69.2335993   1.6121673
  44.2048553  69.4205993   2.0221673  43.4608553  69.2235993   2.1701673
  45.2258553  71.5745993   9.2881673  46.0718553  71.3845993   9.3861673
  44.8558553  70.7975993   9.1501673  45.2958553  71.4315993   9.2821673
  40.0468553  72.9125993   5.9431673  40.5358553  72.6205993   6.6041673
  40.1758553  72.3195993   5.3161673  40.1378553  72.7815993   5.9481673
  46.0268553  72.8075993   4.1391673  46.2988553  73.6335993   4.2061673
  45.1638553  72.8825993   4.0431673  45.9398553  72.9405993   4.1341673
  53.9998553  69.9295993  18.7711673  53.4748553  70.3885993  19.2951673
  53.6388553  69.1345993  18.7651673  53.8688553  69.8795993  18.8471673
  39.5068553  68.7775993  10.6751673  39.5508553  69.1215993   9.8741673
  40.2618553  69.0145993  11.0421673  39.6248553  68.8635993  10.6111673
  52.4918553  73.4985993  18.8471673  52.5648553  73.6025993  19.7101673
  51.8578553  74.0565993  18.6261673  52.4088553  73.5965993  18.9421673
  54.7598553  73.8175993  17.2121673  55.0788553  74.6035993  17.4151673
  54.3898553  73.5475993  17.9551673  54.7528553  73.8935993  17.3521673
  54.5558553  72.0755993   8.4011673  53.8108553  71.7525993   8.7191673
  54.5578553  72.9015993   8.6811673  54.4458553  72.1495993   8.4891673
  57.4578553  74.3595993  19.9471673  57.4058553  74.0185993  19.1461673
  58.1948553  74.8265993  19.9251673  57.5588553  74.3785993  19.8251673
  53.4678553  68.4055993  15.8621673  54.2118553  68.8575993  15.7991673
  52.9018553  68.8755993  15.3931673  53.4948553  68.5425993  15.7841673
  45.3558553  71.2925993  15.6811673  45.5168553  70.5485993  16.1081673
  45.3108553  71.0435993  14.8461673  45.3728553  71.1455993  15.6211673
  54.7528553  66.3855993  13.5321673  54.4728553  67.2105993  13.4881673
  55.4688553  66.4385993  14.0281673  54.8178553  66.5155993  13.5991673
  47.1078553  67.1005993  15.5611673  47.8128553  67.4205993  15.1591673
  47.3488553  66.2935993  15.7881673  47.2468553  67.0285993  15.5351673
  56.1738553  72.6405993   2.3891673  56.5518553  73.3175993   1.9891673
  55.3318553  72.8645993   2.4201673  56.1048553  72.7735993   2.3341673
  43.6168553  72.1535993  11.6221673  44.0568553  72.0505993  10.8761673
  44.1618553  71.8405993  12.2271673  43.7618553  72.0925993  11.6011673
  51.6328553  71.2555993  17.2141673  50.9848553  71.7255993  17.5621673
  52.1978553  71.1665993  17.8731673  51.6208553  71.3115993  17.3631673
  51.3208553  72.7925993  13.5121673  51.6228553  73.2125993  14.2151673
  51.3568553  71.9525993  13.7441673  51.3708553  72.7305993  13.6501673
  53.8688553  72.2395993   5.7641673  54.0758553  72.0385993   6.5881673
  54.6248553  72.5075993   5.4221673  54.0108553  72.2495993   5.8351673
  47.1638553  67.1385993  11.6691673  46.3378553  66.9895993  11.9061673
  47.1238553  67.1735993  10.7981673  47.0358553  67.1215993  11.5751673
  54.8908553  68.3225993   7.2381673  54.1768553  67.8515993   7.4091673
  54.7288553  68.6635993   6.4521673  54.7618553  68.3035993   7.1471673
  39.7288553  67.5365993  17.7041673  39.5888553  68.3315993  17.3731673
  38.9428553  67.2935993  17.9931673  39.5918553  67.6185993  17.6981673
  42.7928553  70.2805993   4.9291673  42.9188553  69.9515993   4.1311673
  41.9808553  70.0315993   5.1281673  42.6918553  70.1955993   4.8411673
  57.4698553  73.4345993  17.3761673  56.6148553  73.3125993  17.5021673
  57.6228553  73.0395993  16.6131673  57.3658553  73.3575993  17.2821673
  51.9828553  74.0995993  15.9521673  51.7278553  73.3805993  16.3741673
  52.8038553  74.2155993  16.2221673  52.0668553  74.0105993  16.0541673
  42.7698553  72.2915993  15.3451673  43.1448553  72.9105993  14.8581673
  43.4438553  71.8175993  15.6301673  42.9248553  72.3135993  15.3151673
  40.5448553  70.7395993  14.6201673  40.6218553  70.5705993  13.7671673
  41.2908553  71.1455993  14.8171673  40.6658553  70.7745993  14.5231673
  56.1038553  73.3795993   5.0601673  56.2068553  73.3215993   4.1961673
  56.8448553  73.0475993   5.3781673  56.2288553  73.3225993   4.9791673
  43.0988553  68.1495993  17.0311673  43.0178553  67.3055993  17.2371673
  42.7848553  68.1935993  16.2181673  43.0408553  68.0315993  16.9411673
  55.2058553  73.5255993  14.4161673  55.2038553  72.6625993  14.5401673
  55.2728553  73.8495993  15.2231673  55.2158553  73.4455993  14.5531673
  51.0848553  68.3255993  18.1981673  51.1768553  69.0375993  18.6921673
  50.4478553  67.8805993  18.5951673  51.0038553  68.3645993  18.3301673
  50.0788553  68.5155993   9.0521673  49.3788553  69.0335993   8.9961673
  50.1168553  68.1355993   8.2681673  49.9808553  68.5365993   8.9281673
  53.6768553  69.0315993  11.8521673  54.5318553  69.1305993  11.9971673
  53.3078553  69.5845993  12.4171673  53.7488553  69.1285993  11.9571673
  53.9808553  74.3115993  10.3431673  54.6468553  74.8525993  10.5031673
  53.6358553  74.6225993   9.6041673  54.0278553  74.4375993  10.2581673
  45.1338553  68.2345993  13.6791673  44.2698553  68.3185993  13.7591673
  45.3538553  67.7205993  14.3481673  45.0388553  68.1715993  13.7901673
  57.1518553  66.8695993  15.0081673  57.0998553  66.8255993  15.8781673
  57.8388553  66.3665993  14.8181673  57.2458553  66.7895993  15.1081673
  49.2368553  68.9825993  12.0531673  48.4998553  68.5285993  12.1661673
  49.8078553  68.5805993  12.5761673  49.2118553  68.8555993  12.1471673
  46.7398553  73.3115993  17.2571673  46.4178553  72.7355993  16.6871673
  46.3808553  74.0665993  17.0111673  46.6398553  73.3375993  17.1371673
  42.3538553  68.3175993  14.3271673  42.0108553  67.5505993  14.0931673
  41.6588553  68.8415993  14.3911673  42.2008553  68.2815993  14.3021673
  51.3998553  67.1735993  11.3041673  52.0698553  67.7175993  11.4311673
  50.8968553  67.5975993  10.7311673  51.4248553  67.3165993  11.2381673
  50.7588553  72.9815993   8.7971673  51.3098553  72.3745993   9.0971673
  50.3338553  73.2445993   9.5121673  50.7778553  72.9305993   8.9461673
  41.0068553  71.6315993   8.2831673  40.6388553  71.9335993   9.0141673
  41.5408553  71.0025993   8.5671673  41.0308553  71.5835993   8.4331673
  52.7288553  74.8125993   5.3591673  52.7968553  73.9625993   5.5401673
  51.9058553  74.8985993   5.0811673  52.6168553  74.6995993   5.3451673
  56.6278553  70.7495993  19.2481673  56.4318553  71.3935993  19.8031673
  55.9058553  70.2595993  19.2401673  56.4928553  70.7725993  19.3291673
  56.5268553  71.6905993  12.2191673  55.6938553  71.9405993  12.1471673
  56.4708553  70.8505993  12.4481673  56.3958553  71.6035993  12.2421673
  45.7868553  68.6785993  17.4131673  46.0208553  68.1025993  16.8001673
  44.9448553  68.4975993  17.5541673  45.6968553  68.5665993  17.3431673
  50.1778553  48.4034913  63.7928903  49.9328553  48.8914913  63.1128903
  51.0408553  48.3304913  63.6928903  50.2688553  48.4644913  63.6778903
  49.9868553  55.3194913  68.4638903  49.4628553  55.9154913  68.8268903
  50.3838553  54.9514913  69.1478903  49.9678553  55.3534913  68.6188903
  39.8558553  59.4594913  63.9198903  39.4148553  59.5774913  64.6628903
  39.5728553  58.6844913  63.6348903  39.7488553  59.3624913  63.9878903
  56.1308553  62.7604913  61.4348903  56.8318553  62.2414913  61.4308903
  55.5438553  62.3154913  60.9658903  56.1478553  62.6174913  61.3648903
  42.7378553  58.5144913  59.0988903  42.3458553  58.1434913  58.4128903
  42.6578553  57.9164913  59.7278903  42.6678553  58.3714913  59.0898903
  52.6578553  56.3864913  65.1398903  52.7378553  56.3904913  64.2708903
  52.0738553  55.7544913  65.2888903  52.5828553  56.2934913  65.0338903
  42.3648553  60.1554913  62.9988903  42.9728553  59.9854913  63.6018903
  41.6138553  60.0154913  63.4198903  42.3438553  60.1094913  63.1498903
  46.6468553  49.4904913  62.9478903  46.5768553  50.1674913  62.4018903
  47.3878553  49.1024913  62.6988903  46.7458553  49.5334913  62.8298903
  41.2558553  63.2464913  59.0758903  41.7228553  63.3304913  58.3438903
  41.7108553  62.6684913  59.5448903  41.3918553  63.1734913  59.0368903
  46.3698553  59.7194913  75.2418903  46.1338553  59.7164913  76.0818903
  45.6218553  59.5714913  74.8178903  46.2238553  59.6964913  75.3028903
  41.2418553  56.7154913  64.3768903  40.7798553  56.3234913  63.7498903
  41.9418553  56.2024913  64.4688903  41.2768553  56.5824913  64.2978903
  45.7498553  52.3254913  69.7238903  46.4278553  52.3434913  69.1748903
  45.7048553  51.4894913  69.9688903  45.8428553  52.2044913  69.6788903
  46.3518553  62.9114913  72.5048903  46.4898553  63.6714913  72.0978903
  47.1428553  62.5464913  72.5318903  46.4888553  62.9704913  72.4488903
  43.2428553  54.8154913  64.3998903  44.0598553  54.6284913  64.6428903
  42.7658553  54.2014913  64.7958903  43.2928553  54.6974913  64.4948903
  47.4468553  60.7964913  67.0098903  47.7948553  59.9974913  67.0398903
  48.1118553  61.3004913  66.7548903  47.5968553  60.7524913  66.9768903
  47.5038553  60.2454913  63.2208903  47.8348553  59.6014913  63.7068903
  47.7438553  60.0344913  62.4098903  47.5878553  60.1194913  63.1728903
  49.4718553  54.3764913  74.5598903  48.6238553  54.2774913  74.3818903
  49.5008553  55.1214913  75.0138903  49.3508553  54.4724913  74.6008903
  43.8398553  49.9094913  63.6658903  43.5438553  50.4104913  63.0158903
  44.7068553  49.9874913  63.6088903  43.9238553  49.9954913  63.5618903
  54.0298553  47.3364913  73.6738903  53.8718553  48.1054913  73.2918903
  53.2578553  47.1164913  74.0178903  53.8918553  47.4174913  73.6688903
  46.8188553  49.0514913  65.8888903  46.8918553  49.9114913  66.0178903
  46.7808553  48.9764913  65.0208903  46.8238553  49.1674913  65.7798903
  51.4918553  51.9774913  58.1878903  51.0418553  52.6584913  58.4948903
  51.6058553  51.4734913  58.8908903  51.4428553  52.0034913  58.3368903
  39.6978553  54.4764913  67.3898903  39.4418553  55.3074913  67.3148903
  39.0338553  54.0934913  67.8068903  39.5618553  54.5424913  67.4408903
  39.6078553  64.1864913  65.2898903  39.0158553  64.7444913  64.9768903
  40.0338553  63.9174913  64.5778903  39.5838553  64.2284913  65.1388903
  45.4478553  62.0304913  62.7698903  44.8688553  61.7554913  63.3618903
  46.0718553  61.4214913  62.7948903  45.4548553  61.9004913  62.8608903
  51.5908553  64.3184913  60.2918903  52.3178553  64.7904913  60.3938903
  51.8198553  63.5244913  60.5718903  51.7328553  64.2714913  60.3488903
  49.7588553  64.7104913  62.2818903  49.9728553  65.2374913  62.9438903
  50.5258553  64.5364913  61.9028903  49.9038553  64.7624913  62.3238903
  42.7268553  49.2934913  67.8808903  42.2058553  48.6654913  67.5728903
  43.3178553  48.8564913  68.3518903  42.7378553  49.1354913  67.9048903
  41.1528553  62.8564913  63.2208903  41.8088553  62.2814913  63.2358903
  41.5418553  63.6054913  62.9998903  41.3078553  62.8814913  63.1908903
  56.8858553  51.9504913  64.4828903  56.5398553  52.6284913  64.9088903
  56.2498553  51.3524913  64.4988903  56.7408553  51.9624913  64.5478903
  52.1978553  64.7204913  70.5868903  52.9418553  65.1764913  70.5768903
  52.0768553  64.5064913  69.7498903  52.2898553  64.7564913  70.4618903
  41.7658553  51.0234913  76.1628903  40.9878553  50.6334913  76.0908903
  42.2568553  50.6114913  75.5718903  41.7228553  50.9044913  76.0648903
  41.9708553  61.3434913  66.7208903  42.3938553  60.9874913  66.0468903
  42.2948553  60.9214913  67.4128903  42.0808553  61.2284913  66.7238903
  45.2018553  64.1954913  66.0168903  46.0458553  64.2994913  65.8218903
  44.9048553  65.0134913  66.0848903  45.2828553  64.3314913  65.9978903
  48.4148553  48.6664913  75.3308903  48.5928553  47.8574913  75.0558903
  48.2718553  49.1074913  74.5918903  48.4198553  48.6124913  75.1808903
  49.0088553  53.5924913  64.1038903  49.2958553  53.3604913  63.3138903
  49.7408553  53.6714913  64.5728903  49.1588553  53.5694913  64.0568903
  49.7308553  53.9314913  59.2248903  50.0118553  54.7194913  59.4738903
  48.9548553  54.0964913  58.8618903  49.6578553  54.0724913  59.2078903
  53.7718553  65.9054913  60.6918903  54.4368553  65.7574913  60.1468903
  54.1318553  65.8224913  61.4818903  53.9238553  65.8714913  60.7278903
  44.1998553  65.4144913  71.7568903  44.4918553  65.3474913  72.5768903
  43.5738553  64.8094913  71.7118903  44.1508553  65.3154913  71.8718903
  56.5608553  50.2734913  69.8518903  57.3178553  50.3454913  69.4238903
  56.6238553  49.5004913  70.2508903  56.6818553  50.1704913  69.8468903
  39.1138553  51.5714913  73.7488903  39.1098553  52.1584913  74.3948903
  39.7078553  51.8834913  73.1918903  39.2008553  51.7044913  73.7618903
  51.4518553  61.9054913  74.2908903  51.4178553  62.2874913  75.0748903
  52.3058553  61.8634913  74.1198903  51.5728553  61.9554913  74.3818903
  48.5898553  62.1024913  59.0408903  48.4088553  62.6474913  59.6978903
  49.3558553  62.3924913  58.7398903  48.6758553  62.2264913  59.0938903
  52.0968553  49.9984913  60.0948903  52.6368553  49.3164913  60.1708903
  52.1588553  50.3964913  60.8688903  52.1858553  49.9564913  60.2208903
  40.0508553  51.1664913  62.6638903  39.9368553  50.3024913  62.6948903
  39.5758553  51.4604913  63.3338903  39.9638553  51.0824913  62.7668903
  42.1928553  63.5764913  70.8788903  41.4948553  63.0684913  71.0048903
  42.4528553  63.3714913  70.0708903  42.1278553  63.4714913  70.7778903
  49.3548553  52.3744913  61.4088903  48.8468553  51.7124913  61.1548903
  49.4068553  52.8784913  60.6988903  49.2878553  52.3514913  61.2668903
  49.9038553  65.0694913  71.7888903  50.6718553  64.9894913  71.3828903
  49.3208553  64.9484913  71.1508903  49.9308553  65.0394913  71.6348903
  49.3548553  49.3154913  61.2998903  48.8998553  48.9134913  60.6738903
  50.1278553  49.4704913  60.9248903  49.4018553  49.2794913  61.1518903
  56.1808553  65.6724913  64.6898903  55.7258553  66.3894913  64.8908903
  55.5668553  65.1014913  64.4478903  56.0228553  65.6944913  64.6838903
  47.9528553  51.6824913  65.8218903  48.0268553  52.2504913  65.1638903
  48.0738553  52.1744913  66.5318903  47.9808553  51.8394913  65.8298903
  53.1778553  61.5174913  64.2338903  53.8788553  61.0354913  64.4228903
  52.5178553  60.9484913  64.2788903  53.1838553  61.3624913  64.2678903
  43.5538553  62.4274913  73.4458903  44.3948553  62.4904913  73.2238903
  43.5168553  62.8244913  74.2218903  43.6728553  62.4954913  73.5278903
  42.5608553  47.5054913  64.1698903  43.0968553  48.1934913  64.1598903
  42.5638553  47.2314913  63.3418903  42.6398553  47.5664913  64.0458903
  45.5168553  57.9384913  68.1948903  45.6888553  57.7284913  69.0238903
  44.8618553  57.4044913  67.9788903  45.4458553  57.8284913  68.2858903
  51.7448553  51.8524913  71.7098903  51.6498553  52.1714913  72.5158903
  51.1518553  51.2134913  71.6718903  51.6428553  51.8044913  71.8238903
  46.2668553  57.8764913  70.7848903  46.3198553  58.7234913  70.9868903
  45.9818553  57.5064913  71.5218903  46.2328553  57.9464913  70.9228903
  52.4438553  58.5714913  69.9148903  51.9298553  58.1594913  70.4858903
  52.3178553  59.4154913  70.0958903  52.3498553  58.6354913  70.0258903
  53.0008553  47.7964913  64.5458903  53.0498553  47.4784913  65.3568903
  53.3238553  47.1524913  64.0528903  53.0558553  47.6544913  64.5928903
  55.4648553  52.0324913  72.8538903  56.2368553  51.8074913  73.1908903
  54.9898553  52.2494913  73.5538903  55.5088553  52.0314913  73.0068903
  43.0088553  51.3154913  65.8238903  43.2808553  50.8854913  65.1158903
  42.8328553  50.6794913  66.3948903  43.0228553  51.1584913  65.8038903
  55.6968553  59.0104913  60.0418903  55.8158553  58.7234913  60.8568903
  56.5038553  59.0314913  59.7118903  55.8328553  58.9714913  60.1138903
  42.8328553  58.7424913  65.3728903  43.6838553  58.6624913  65.1998903
  42.4758553  58.0604913  64.9608903  42.9058553  58.6294913  65.2858903
  41.5998553  65.4674913  66.6098903  40.9268553  64.9694913  66.3648903
  42.0028553  65.6524913  65.8588903  41.5598553  65.4214913  66.4628903
  41.1498553  52.4174913  68.9058903  41.9928553  52.6374913  68.8628903
  40.7608553  52.9904913  68.3748903  41.2168553  52.5344913  68.8208903
  57.9308553  63.5194913  74.2958903  57.2488553  63.8294913  73.8488903
  57.5618553  63.0614913  74.9408903  57.7748553  63.4974913  74.3248903
  53.5918553  55.5474913  59.6268903  53.3718553  56.2784913  59.2048903
  53.1438553  55.5984913  60.3738903  53.4928553  55.6624913  59.6748903
  45.2008553  58.7494913  63.6078903  45.9138553  59.2444913  63.6978903
  45.4228553  58.1824913  62.9818903  45.3388553  58.7384913  63.5288903
  57.7788553  50.4084913  59.0798903  57.1168553  49.8404913  59.1028903
  57.5858553  50.9204913  58.3998903  57.6528553  50.4004913  58.9828903
  39.3568553  60.3924913  66.9278903  38.6898553  60.8804913  67.2038903
  40.0368553  60.9374913  66.9568903  39.3588553  60.5444913  66.9728903
  58.1018553  54.7864913  71.6358903  58.3168553  53.9864913  71.3598903
  57.2518553  54.8464913  71.4468903  58.0078553  54.6774913  71.5668903
  39.4228553  57.0764913  62.0308903  39.2378553  56.2374913  62.1828903
  40.0818553  57.0404913  61.4608903  39.4928553  56.9474913  61.9688903
  55.7808553  49.9664913  61.3588903  56.5268553  49.5594913  61.5578903
  56.0438553  50.6814913  60.9338903  55.9298553  50.0124913  61.3258903
  49.7238553  62.4524913  65.9348903  49.2008553  63.0864913  65.6418903
  50.0338553  62.0884913  65.2058903  49.6918553  62.4924913  65.7838903
  39.5948553  61.2404913  61.6058903  40.1468553  61.8094913  61.9698903
  39.3628553  60.7254913  62.2708903  39.6418553  61.2484913  61.7578903
  43.7988553  60.2404913  68.6948903  44.2658553  60.5294913  69.3728903
  44.3708553  59.7624913  68.2408903  43.9528553  60.2124913  68.7278903
  52.2348553  52.2544913  66.4318903  52.5788553  52.4064913  67.2188903
  51.7818553  51.5164913  66.5448903  52.2188553  52.1674913  66.5648903
  39.4248553  59.6894913  59.2338903  40.1808553  59.2574913  59.2918903
  39.4398553  60.2214913  59.9248903  39.5388553  59.7044913  59.3448903
  40.3648553  57.9104913  67.2388903  40.7958553  57.7814913  66.4918903
  40.1598553  58.7584913  67.2128903  40.3978553  58.0164913  67.1248903
  46.7108553  51.4744913  60.8888903  46.7088553  51.3574913  60.0238903
  46.5298553  52.3224913  60.9808903  46.6838553  51.5824913  60.7748903
  55.7648553  63.9014913  72.3858903  55.0938553  64.4154913  72.6038903
  55.8278553  64.0014913  71.5218903  55.6748553  63.9924913  72.2908903
  44.4488553  61.4264913  65.5208903  44.5748553  62.2694913  65.7078903
  45.1168553  61.0274913  65.9168903  44.5668553  61.4924913  65.6068903
  42.5788553  54.9094913  75.3828903  42.0428553  54.4034913  75.8508903
  42.5988553  54.5194913  74.6028903  42.5018553  54.7764913  75.3368903
  43.0638553  54.3064913  60.5228903  42.9358553  53.8584913  61.2608903
  42.4818553  53.9644913  59.9708903  42.9588553  54.1894913  60.5508903
  43.2308553  56.1364913  67.1218903  42.4498553  56.0774913  66.7388903
  43.3028553  55.3844913  67.5588903  43.1258553  56.0174913  67.1298903
  43.6608553  55.8734913  70.5898903  43.6858553  55.1984913  70.0388903
  43.0148553  56.3694913  70.2778903  43.5698553  55.8464913  70.4628903
  53.5558553  53.5864913  68.9858903  52.8938553  53.9144913  69.4488903
  53.7428553  54.2204913  68.4168903  53.4858553  53.7284913  68.9698903
  47.7608553  64.6504913  69.9818903  47.4838553  64.0094913  69.4588903
  47.5528553  65.3764913  69.5438903  47.6898553  64.6634913  69.8398903
  50.2008553  49.4924913  72.4148903  50.3498553  48.6674913  72.1718903
  50.5798553  49.5474913  73.1988903  50.2788553  49.3784913  72.4948903
  51.7488553  51.5554913  62.4968903  52.2388553  52.2724913  62.4198903
  50.9588553  51.8164913  62.2338903  51.7048553  51.6994913  62.4468903
  41.4598553  57.2284913  76.1488903  41.4228553  57.7294913  75.4348903
  41.7908553  56.4764913  75.8538903  41.5028553  57.1904913  75.9998903
  53.0628553  59.4334913  74.4068903  53.5468553  60.1514913  74.5048903
  53.4568553  59.0064913  73.7558903  53.1928553  59.4764913  74.3248903
  47.3588553  62.2784913  75.5838903  47.7128553  62.1004913  76.3608903
  46.9228553  61.5494913  75.3848903  47.3468553  62.1444913  75.6698903
  48.3308553  53.0254913  68.2218903  48.8108553  53.7244913  68.4298903
  48.7038553  52.3784913  68.6728903  48.4568553  53.0334913  68.3188903
  50.5198553  56.1944913  60.4958903  50.5118553  56.9164913  60.0058903
  49.8808553  56.3294913  61.0728903  50.4248553  56.3214913  60.5088903
  55.4918553  60.0644913  64.4768903  55.8478553  59.7144913  65.1918903
  55.4838553  59.4034913  63.9068903  55.5438553  59.9144913  64.4978903
  51.5368553  63.1304913  68.3208903  50.9338553  62.8344913  67.7638903
  52.0818553  63.5824913  67.8118903  51.5278553  63.1534913  68.1628903
  51.5498553  59.9814913  67.7208903  50.7528553  60.2054913  67.9948903
  51.8078553  59.3874913  68.3058903  51.4698553  59.9264913  67.8478903
  45.4418553  64.7934913  62.1688903  45.2948553  64.0174913  62.5398903
  46.1308553  64.6464913  61.6538903  45.5218553  64.6564913  62.1478903
  45.1128553  48.5364913  60.1568903  45.2098553  48.4294913  61.0178903
  44.4048553  49.0424913  60.0918903  45.0228553  48.5954913  60.2748903
  47.7338553  64.3094913  60.5708903  48.3558553  64.4724913  61.1608903
  47.7698553  65.0004913  60.0388903  47.8308553  64.4354913  60.5798903
  54.8098553  57.9794913  72.5668903  54.8648553  58.1044913  71.7048903
  55.5628553  58.2994913  72.8688903  54.9288553  58.0444913  72.4838903
  55.8418553  48.2774913  75.5538903  55.2048553  47.8774913  75.1118903
  55.8678553  47.8464913  76.3118903  55.7518553  48.1554913  75.5998903
  42.2348553  56.8434913  61.3998903  42.5588553  56.0644913  61.1778903
  42.8808553  57.2114913  61.8548903  42.3778553  56.7824913  61.4338903
  50.5408553  57.7854913  72.1668903  50.3858553  58.3954913  72.7708903
  51.0748553  57.2274913  72.5728903  50.5968553  57.7934913  72.3158903
  39.2318553  48.5044913  62.3678903  39.3608553  47.7964913  61.8758903
  38.8648553  48.1864913  63.0928903  39.1968553  48.3524913  62.4028903
  48.9248553  56.1854913  62.8248903  48.9838553  56.8354913  63.4038903
  48.7358553  55.4894913  63.3158903  48.9058553  56.1784913  62.9828903
  54.1508553  60.5144913  68.6938903  53.6718553  60.8124913  68.0278903
  53.7948553  59.7384913  68.8718903  54.0278553  60.4434913  68.6218903
  43.4208553  50.7024913  59.3368903  42.9098553  50.7554913  58.6308903
  44.2048553  50.9424913  59.0408903  43.4608553  50.7454913  59.1888903
  48.1478553  58.2324913  67.2558903  47.3008553  58.0384913  67.3368903
  48.4718553  58.0674913  68.0488903  48.0698553  58.1794913  67.3848903
  44.8998553  64.9624913  58.1418903  45.3388553  64.2654913  58.4298903
  45.1068553  65.5864913  58.7148903  44.9958553  64.9514913  58.2688903
  41.9958553  57.9254913  69.5718903  42.7178553  58.4134913  69.5348903
  41.7258553  57.8954913  68.7428903  42.0628553  57.9934913  69.4438903
  45.2258553  53.0964913  66.3068903  46.0718553  52.9064913  66.4048903
  44.8558553  52.3194913  66.1688903  45.2958553  52.9534913  66.3008903
  57.8428553  64.6804913  60.6338903  58.5368553  64.2134913  60.3858903
  57.3038553  64.0824913  60.9708903  57.8658553  64.5224913  60.6468903
  40.0468553  54.4344913  62.9618903  40.5358553  54.1424913  63.6228903
  40.1758553  53.8414913  62.3348903  40.1378553  54.3034913  62.9668903
  55.0818553  57.4564913  69.8128903  55.0748553  56.6804913  70.2108903
  54.2408553  57.6904913  69.8058903  54.9568553  57.3764913  69.8708903
  41.3908553  58.9774913  73.8498903  40.9698553  58.4594913  73.2888903
  41.0388553  59.7634913  73.7068903  41.2768553  59.0174913  73.7458903
  56.3378553  57.5274913  67.2498903  56.0518553  57.9284913  67.9698903
  57.1978553  57.4654913  67.3768903  56.4228553  57.5774913  67.3748903
  46.0268553  54.3294913  61.1578903  46.2988553  55.1554913  61.2248903
  45.1638553  54.4044913  61.0618903  45.9398553  54.4624913  61.1528903
  53.9998553  51.4514913  75.7898903  53.4748553  51.9104913  76.3138903
  53.6388553  50.6564913  75.7838903  53.8688553  51.4014913  75.8658903
  39.5068553  50.2994913  67.6938903  39.5508553  50.6434913  66.8928903
  40.2618553  50.5364913  68.0608903  39.6248553  50.3854913  67.6298903
  57.4688553  63.1604913  67.7788903  57.7588553  63.4174913  66.9978903
  58.1638553  63.2564913  68.2978903  57.6148553  63.2124913  67.7398903
  52.4918553  55.0204913  75.8658903  52.5648553  55.1244913  76.7288903
  51.8578553  55.5784913  75.6448903  52.4088553  55.1184913  75.9608903
  54.7598553  55.3394913  74.2308903  55.0788553  56.1254913  74.4338903
  54.3898553  55.0694913  74.9738903  54.7528553  55.4154913  74.3708903
  54.0738553  61.7634913  59.7608903  54.4078553  60.9574913  59.7958903
  53.3188553  61.6914913  60.1908903  54.0118553  61.6334913  59.8298903
  54.5558553  53.5974913  65.4198903  53.8108553  53.2744913  65.7378903
  54.5578553  54.4234913  65.6998903  54.4458553  53.6714913  65.5078903
  56.9958553  59.5574913  73.1718903  57.6238553  59.0084913  72.9158903
  56.9348553  60.1224913  72.5098903  57.0798553  59.5604913  73.0358903
  51.4478553  59.6384913  59.1638903  52.1318553  59.1244913  58.9948903
  51.0308553  59.6844913  58.3988903  51.4868553  59.5694913  59.0258903
  46.1298553  60.7884913  70.4678903  45.8318553  61.3804913  71.0348903
  46.1848553  61.2304913  69.7188903  46.0938553  60.9414913  70.4408903
  44.1088553  59.7384913  73.8658903  43.3028553  59.4484913  74.0328903
  44.0198553  60.6064913  73.8718903  43.9768553  59.8234913  73.8908903
  53.4678553  49.9274913  72.8808903  54.2118553  50.3794913  72.8178903
  52.9018553  50.3974913  72.4118903  53.4948553  50.0644913  72.8028903
  48.6458553  57.2114913  69.9588903  49.1218553  57.5854913  70.5868903
  47.8228553  57.3454913  70.2178903  48.5948553  57.2864913  70.0898903
  45.3558553  52.8144913  72.6998903  45.5168553  52.0704913  73.1268903
  45.3108553  52.5654913  71.8648903  45.3728553  52.6674913  72.6398903
  47.9098553  64.6044913  65.1868903  48.4558553  65.2834913  65.2408903
  47.5598553  64.6864913  64.3918903  47.9388553  64.7174913  65.0768903
  54.7528553  47.9074913  70.5508903  54.4728553  48.7324913  70.5068903
  55.4688553  47.9604913  71.0468903  54.8178553  48.0374913  70.6178903
  47.1078553  48.6224913  72.5798903  47.8128553  48.9424913  72.1778903
  47.3488553  47.8154913  72.8068903  47.2468553  48.5504913  72.5538903
  46.0928553  62.8324913  68.5758903  45.4688553  63.4144913  68.3938903
  46.3408553  62.5464913  67.7898903  46.0368553  62.8764913  68.4328903
  50.4018553  59.4664913  75.5648903  51.1588553  59.7524913  75.2388903
  49.8548553  59.5184913  74.8868903  50.4328553  59.5164913  75.4158903
  54.3108553  62.0164913  74.0688903  54.6568553  62.2864913  74.8228903
  54.6048553  62.5984913  73.4888903  54.4058553  62.1424913  74.0948903
  56.1738553  54.1624913  59.4078903  56.5518553  54.8394913  59.0078903
  55.3318553  54.3864913  59.4388903  56.1048553  54.2954913  59.3528903
  47.6868553  57.6084913  58.4908903  46.8818553  57.4314913  58.2058903
  47.6538553  58.4594913  58.6828903  47.5628553  57.7074913  58.4778903
  43.6168553  53.6754913  68.6408903  44.0568553  53.5724913  67.8948903
  44.1618553  53.3624913  69.2458903  43.7618553  53.6144913  68.6198903
  51.6328553  52.7774913  74.2328903  50.9848553  53.2474913  74.5808903
  52.1978553  52.6884913  74.8918903  51.6208553  52.8334913  74.3818903
  51.3208553  54.3144913  70.5308903  51.6228553  54.7344913  71.2338903
  51.3568553  53.4744913  70.7628903  51.3708553  54.2524913  70.6688903
  48.7458553  64.4814913  74.4558903  49.2238553  63.8814913  74.0398903
  48.3948553  64.0384913  75.1208903  48.7648553  64.3274913  74.4928903
  53.8688553  53.7614913  62.7828903  54.0758553  53.5604913  63.6068903
  54.6248553  54.0294913  62.4408903  54.0108553  53.7714913  62.8538903
  47.1638553  48.6604913  68.6878903  46.3378553  48.5114913  68.9248903
  47.1238553  48.6954913  67.8168903  47.0358553  48.6434913  68.5938903
  54.8908553  49.8444913  64.2568903  54.1768553  49.3734913  64.4278903
  54.7288553  50.1854913  63.4708903  54.7618553  49.8254913  64.1658903
  55.3338553  57.7884913  62.6368903  55.8098553  57.0594913  62.5888903
  54.5128553  57.5024913  62.5608903  55.2828553  57.6384913  62.6178903
  48.8048553  59.7004913  73.4758903  48.0098553  59.6364913  73.8268903
  48.8758553  60.5474913  73.2808903  48.6978553  59.8154913  73.4988903
  39.7288553  49.0584913  74.7228903  39.5888553  49.8534913  74.3918903
  38.9428553  48.8154913  75.0118903  39.5918553  49.1404913  74.7168903
  44.6348553  65.9074913  68.7928903  44.6458553  65.9664913  69.6628903
  44.2098553  65.1604913  68.6428903  44.5738553  65.8054913  68.8988903
  42.7928553  51.8024913  61.9478903  42.9188553  51.4734913  61.1498903
  41.9808553  51.5534913  62.1468903  42.6918553  51.7174913  61.8598903
  51.5498553  58.9554913  64.9918903  51.6258553  59.2964913  65.7908903
  51.7188553  58.1084913  65.1128903  51.5858553  58.8804913  65.1278903
  49.0718553  58.2294913  64.5568903  48.7738553  57.9144913  65.3138903
  49.7668553  58.7024913  64.7918903  49.1308553  58.2524913  64.7038903
  49.2938553  62.3474913  72.5838903  49.9808553  62.2334913  73.1088903
  49.4278553  63.1384913  72.2398903  49.4148553  62.4474913  72.6108903
  57.4698553  54.9564913  74.3948903  56.6148553  54.8344913  74.5208903
  57.6228553  54.5614913  73.6318903  57.3658553  54.8794913  74.3008903
  51.9828553  55.6214913  72.9708903  51.7278553  54.9024913  73.3928903
  52.8038553  55.7374913  73.2408903  52.0668553  55.5324913  73.0728903
  41.3988553  65.4054913  74.2348903  40.7448553  64.8364913  74.3328903
  41.0238553  66.1784913  74.3858903  41.2468553  65.4354913  74.2718903
  49.9168553  56.8114913  76.1578903  50.2398553  57.4974913  75.7258903
  49.2128553  57.1344913  76.5598903  49.8598553  56.9604913  76.1528903
  53.0008553  65.1854913  67.0868903  52.5498553  65.8284913  67.4658903
  53.7088553  65.1064913  67.5918903  53.0388553  65.2684913  67.2178903
  49.7018553  60.2754913  70.0168903  49.0078553  60.6774913  70.3598903
  50.3788553  60.7084913  70.3558903  49.6988553  60.3984913  70.1178903
  42.7698553  53.8134913  72.3638903  43.1448553  54.4324913  71.8768903
  43.4438553  53.3394913  72.6488903  42.9248553  53.8354913  72.3338903
  40.5448553  52.2614913  71.6388903  40.6218553  52.0924913  70.7858903
  41.2908553  52.6674913  71.8358903  40.6658553  52.2964913  71.5418903
  56.1038553  54.9014913  62.0788903  56.2068553  54.8434913  61.2148903
  56.8448553  54.5694913  62.3968903  56.2288553  54.8444913  61.9978903
  43.0988553  49.6714913  74.0498903  43.0178553  48.8274913  74.2558903
  42.7848553  49.7154913  73.2368903  43.0408553  49.5534913  73.9598903
  50.0238553  61.8664913  63.1858903  49.8188553  62.6994913  63.0268903
  49.2488553  61.4844913  63.3078903  49.8788553  61.9334913  63.1808903
  55.2058553  55.0474913  71.4348903  55.2038553  54.1844913  71.5588903
  55.2728553  55.3714913  72.2418903  55.2158553  54.9674913  71.5718903
  39.9418553  57.4874913  71.8628903  40.2618553  57.7064913  71.0818903
  39.8418553  56.6224913  71.8078903  39.9738553  57.3924913  71.7398903
  51.0848553  49.8474913  75.2168903  51.1768553  50.5594913  75.7108903
  50.4478553  49.4024913  75.6138903  51.0038553  49.8864913  75.3488903
  50.0788553  50.0374913  66.0708903  49.3788553  50.5554913  66.0148903
  50.1168553  49.6574913  65.2868903  49.9808553  50.0584913  65.9468903
  45.3858553  62.1284913  59.5948903  45.8268553  62.2084913  60.3428903
  44.5808553  61.9124913  59.8528903  45.3318553  62.1084913  59.7438903
  53.6768553  50.5534913  68.8708903  54.5318553  50.6524913  69.0158903
  53.3078553  51.1064913  69.4358903  53.7488553  50.6504913  68.9758903
  44.7048553  56.7794913  73.2478903  44.3088553  57.5534913  73.3228903
  44.2988553  56.4064913  72.5718903  44.5868553  56.8384913  73.1588903
  53.9808553  55.8334913  67.3618903  54.6468553  56.3744913  67.5218903
  53.6358553  56.1444913  66.6228903  54.0278553  55.9594913  67.2768903
  54.2938553  63.8994913  63.1688903  54.1198553  63.2454913  63.7188903
  55.0068553  63.6284913  62.7458903  54.3738553  63.7624913  63.1878903
  42.7148553  61.1984913  60.1958903  42.4708553  60.8914913  60.9758903
  42.6818553  60.4954913  59.6798903  42.6738553  61.0494913  60.2348903
  45.5338553  59.4434913  58.9388903  44.7158553  59.1754913  59.0788903
  45.5058553  60.2954913  59.1238903  45.4088553  59.5304913  58.9868903
  45.1338553  49.7564913  70.6978903  44.2698553  49.8404913  70.7778903
  45.3538553  49.2424913  71.3668903  45.0388553  49.6934913  70.8088903
  57.1518553  48.3914913  72.0268903  57.0998553  48.3474913  72.8968903
  57.8388553  47.8884913  71.8368903  57.2458553  48.3114913  72.1268903
  49.2368553  50.5044913  69.0718903  48.4998553  50.0504913  69.1848903
  49.8078553  50.1024913  69.5948903  49.2118553  50.3774913  69.1658903
  51.9688553  61.3524913  70.8598903  52.1748553  61.6534913  71.6518903
  51.9078553  62.0744913  70.3748903  51.9898553  61.5034913  70.9048903
  51.5028553  65.5664913  75.1058903  50.7498553  65.5484913  74.6648903
  51.6708553  66.4184913  75.1898903  51.4168553  65.6894913  75.0528903
  46.7398553  54.8334913  74.2758903  46.4178553  54.2574913  73.7058903
  46.3808553  55.5884913  74.0298903  46.6398553  54.8594913  74.1558903
  47.5358553  48.0854913  58.9028903  47.6138553  48.3324913  58.0698903
  46.7928553  48.4624913  59.1608903  47.4378553  48.1774913  58.8178903
  56.7808553  59.9914913  70.3178903  56.7488553  59.1294913  70.1828903
  56.0878553  60.2934913  69.8838903  56.6738553  59.9084913  70.2338903
  45.1748553  65.1894913  74.5238903  45.2158553  65.3154913  75.3868903
  45.8258553  64.6294913  74.3678903  45.2768553  65.1254913  74.6288903
  54.8858553  63.2514913  69.1148903  55.4128553  63.1684913  68.4238903
  54.4948553  62.4734913  69.1688903  54.9058553  63.1244913  69.0208903
  42.3538553  49.8394913  71.3458903  42.0108553  49.0724913  71.1118903
  41.6588553  50.3634913  71.4098903  42.2008553  49.8034913  71.3208903
  51.3998553  48.6954913  68.3228903  52.0698553  49.2394913  68.4498903
  50.8968553  49.1194913  67.7498903  51.4248553  48.8384913  68.2568903
  42.7678553  63.5724913  75.8838903  43.3628553  64.0034913  76.3558903
  42.4038553  64.1964913  75.3948903  42.8018553  63.7284913  75.8808903
  50.7588553  54.5034913  65.8158903  51.3098553  53.8964913  66.1158903
  50.3338553  54.7664913  66.5308903  50.7778553  54.4524913  65.9648903
  41.0068553  53.1534913  65.3018903  40.6388553  53.4554913  66.0328903
  41.5408553  52.5244913  65.5858903  41.0308553  53.1054913  65.4518903
  40.6948553  61.5614913  72.8128903  40.1208553  61.9774913  73.3218903
  41.4278553  62.0264913  72.9078903  40.7188553  61.6914913  72.9018903
  52.7288553  56.3344913  62.3778903  52.7968553  55.4844913  62.5588903
  51.9058553  56.4204913  62.0998903  52.6168553  56.2214913  62.3638903
  46.6478553  57.2254913  61.3158903  46.7478553  57.3644913  60.4608903
  47.4658553  57.1654913  61.6118903  46.7828553  57.2364913  61.2328903
  55.8078553  65.2894913  58.7958903  56.4448553  65.1554913  59.3768903
  55.4668553  64.4954913  58.6788903  55.8518553  65.1524913  58.8638903
  56.0028553  57.7074913  75.5288903  56.6368553  57.5374913  76.1028903
  56.4198553  58.1104913  74.8768903  56.1578553  57.7424913  75.5178903
  51.8828553  61.5544913  61.1178903  51.6318553  61.4264913  61.9438903
  51.5658553  60.8594913  60.6968903  51.7988553  61.4334913  61.1778903
  56.6278553  52.2714913  76.2668903  56.4318553  52.9154913  76.8218903
  55.9058553  51.7814913  76.2588903  56.4928553  52.2944913  76.3478903
  56.5268553  53.2124913  69.2378903  55.6938553  53.4624913  69.1658903
  56.4708553  52.3724913  69.4668903  56.3958553  53.1254913  69.2608903
  45.7868553  50.2004913  74.4318903  46.0208553  49.6244913  73.8188903
  44.9448553  50.0194913  74.5728903  45.6968553  50.0884913  74.3618903
  53.4138553  57.8184913  76.8838903  54.2848553  57.7824913  76.8478903
  53.1948553  58.2384913  76.1518903  53.5108553  57.8744913  76.7708903
  43.1678553  63.6434913  68.0648903  43.0888553  62.8334913  67.7488903
  42.7238553  64.1304913  67.4928903  43.0908553  63.5954913  67.9338903
  48.7688553  59.7624913  60.5478903  49.4858553  59.4154913  60.1918903
  48.7348553  60.5624913  60.1998903  48.8698553  59.8294913  60.4438903
  40.7398553  65.8874913  71.6458903  41.2328553  65.8314913  72.3638903
  40.9278553  65.1544913  71.2108903  40.8408553  65.7704913  71.6878903
  50.1778553  48.4034913  44.7866493  49.9328553  48.8914913  44.1066493
  51.0408553  48.3304913  44.6866493  50.2688553  48.4644913  44.6716493
  49.9868553  55.3194913  49.4576493  49.4628553  55.9154913  49.8206493
  50.3838553  54.9514913  50.1416493  49.9678553  55.3534913  49.6126493
  39.8558553  59.4594913  44.9136493  39.4148553  59.5774913  45.6566493
  39.5728553  58.6844913  44.6286493  39.7488553  59.3624913  44.9816493
  56.1308553  62.7604913  42.4286493  56.8318553  62.2414913  42.4246493
  55.5438553  62.3154913  41.9596493  56.1478553  62.6174913  42.3586493
  42.7378553  58.5144913  40.0926493  42.3458553  58.1434913  39.4066493
  42.6578553  57.9164913  40.7216493  42.6678553  58.3714913  40.0836493
  52.6578553  56.3864913  46.1336493  52.7378553  56.3904913  45.2646493
  52.0738553  55.7544913  46.2826493  52.5828553  56.2934913  46.0276493
  42.3648553  60.1554913  43.9926493  42.9728553  59.9854913  44.5956493
  41.6138553  60.0154913  44.4136493  42.3438553  60.1094913  44.1436493
  46.6468553  49.4904913  43.9416493  46.5768553  50.1674913  43.3956493
  47.3878553  49.1024913  43.6926493  46.7458553  49.5334913  43.8236493
  41.2558553  63.2464913  40.0696493  41.7228553  63.3304913  39.3376493
  41.7108553  62.6684913  40.5386493  41.3918553  63.1734913  40.0306493
  39.7958553  62.1944913  51.1686493  39.9248553  61.9144913  51.9846493
  39.1858553  61.6534913  50.8596493  39.7248553  62.0734913  51.2436493
  46.3698553  59.7194913  56.2356493  46.1338553  59.7164913  57.0756493
  45.6218553  59.5714913  55.8116493  46.2238553  59.6964913  56.2966493
  41.2418553  56.7154913  45.3706493  40.7798553  56.3234913  44.7436493
  41.9418553  56.2024913  45.4626493  41.2768553  56.5824913  45.2916493
  45.7498553  52.3254913  50.7176493  46.4278553  52.3434913  50.1686493
  45.7048553  51.4894913  50.9626493  45.8428553  52.2044913  50.6726493
  46.3518553  62.9114913  53.4986493  46.4898553  63.6714913  53.0916493
  47.1428553  62.5464913  53.5256493  46.4888553  62.9704913  53.4426493
  43.2428553  54.8154913  45.3936493  44.0598553  54.6284913  45.6366493
  42.7658553  54.2014913  45.7896493  43.2928553  54.6974913  45.4886493
  47.4468553  60.7964913  48.0036493  47.7948553  59.9974913  48.0336493
  48.1118553  61.3004913  47.7486493  47.5968553  60.7524913  47.9706493
  47.5038553  60.2454913  44.2146493  47.8348553  59.6014913  44.7006493
  47.7438553  60.0344913  43.4036493  47.5878553  60.1194913  44.1666493
  49.4718553  54.3764913  55.5536493  48.6238553  54.2774913  55.3756493
  49.5008553  55.1214913  56.0076493  49.3508553  54.4724913  55.5946493
  54.0298553  47.3364913  54.6676493  53.8718553  48.1054913  54.2856493
  53.2578553  47.1164913  55.0116493  53.8918553  47.4174913  54.6626493
  46.8188553  49.0514913  46.8826493  46.8918553  49.9114913  47.0116493
  46.7808553  48.9764913  46.0146493  46.8238553  49.1674913  46.7736493
  51.4918553  51.9774913  39.1816493  51.0418553  52.6584913  39.4886493
  51.6058553  51.4734913  39.8846493  51.4428553  52.0034913  39.3306493
  39.6078553  64.1864913  46.2836493  39.0158553  64.7444913  45.9706493
  40.0338553  63.9174913  45.5716493  39.5838553  64.2284913  46.1326493
  45.4478553  62.0304913  43.7636493  44.8688553  61.7554913  44.3556493
  46.0718553  61.4214913  43.7886493  45.4548553  61.9004913  43.8546493
  51.5908553  64.3184913  41.2856493  52.3178553  64.7904913  41.3876493
  51.8198553  63.5244913  41.5656493  51.7328553  64.2714913  41.3426493
  49.7588553  64.7104913  43.2756493  49.9728553  65.2374913  43.9376493
  50.5258553  64.5364913  42.8966493  49.9038553  64.7624913  43.3176493
  46.0328553  51.4264913  58.1726493  46.1498553  50.9724913  57.4366493
  46.3208553  52.2244913  57.9696493  46.0928553  51.4774913  58.0336493
  41.1528553  62.8564913  44.2146493  41.8088553  62.2814913  44.2296493
  41.5418553  63.6054913  43.9936493  41.3078553  62.8814913  44.1846493
  56.8858553  51.9504913  45.4766493  56.5398553  52.6284913  45.9026493
  56.2498553  51.3524913  45.4926493  56.7408553  51.9624913  45.5416493
  52.1978553  64.7204913  51.5806493  52.9418553  65.1764913  51.5706493
  52.0768553  64.5064913  50.7436493  52.2898553  64.7564913  51.4556493
  41.9708553  61.3434913  47.7146493  42.3938553  60.9874913  47.0406493
  42.2948553  60.9214913  48.4066493  42.0808553  61.2284913  47.7176493
  45.2018553  64.1954913  47.0106493  46.0458553  64.2994913  46.8156493
  44.9048553  65.0134913  47.0786493  45.2828553  64.3314913  46.9916493
  48.4148553  48.6664913  56.3246493  48.5928553  47.8574913  56.0496493
  48.2718553  49.1074913  55.5856493  48.4198553  48.6124913  56.1746493
  49.0088553  53.5924913  45.0976493  49.2958553  53.3604913  44.3076493
  49.7408553  53.6714913  45.5666493  49.1588553  53.5694913  45.0506493
  49.7308553  53.9314913  40.2186493  50.0118553  54.7194913  40.4676493
  48.9548553  54.0964913  39.8556493  49.6578553  54.0724913  40.2016493
  53.7718553  65.9054913  41.6856493  54.4368553  65.7574913  41.1406493
  54.1318553  65.8224913  42.4756493  53.9238553  65.8714913  41.7216493
  44.1998553  65.4144913  52.7506493  44.4918553  65.3474913  53.5706493
  43.5738553  64.8094913  52.7056493  44.1508553  65.3154913  52.8656493
  56.5608553  50.2734913  50.8456493  57.3178553  50.3454913  50.4176493
  56.6238553  49.5004913  51.2446493  56.6818553  50.1704913  50.8406493
  51.4518553  61.9054913  55.2846493  51.4178553  62.2874913  56.0686493
  52.3058553  61.8634913  55.1136493  51.5728553  61.9554913  55.3756493
  48.5898553  62.1024913  40.0346493  48.4088553  62.6474913  40.6916493
  49.3558553  62.3924913  39.7336493  48.6758553  62.2264913  40.0876493
  52.0968553  49.9984913  41.0886493  52.6368553  49.3164913  41.1646493
  52.1588553  50.3964913  41.8626493  52.1858553  49.9564913  41.2146493
  42.1928553  63.5764913  51.8726493  41.4948553  63.0684913  51.9986493
  42.4528553  63.3714913  51.0646493  42.1278553  63.4714913  51.7716493
  49.3548553  52.3744913  42.4026493  48.8468553  51.7124913  42.1486493
  49.4068553  52.8784913  41.6926493  49.2878553  52.3514913  42.2606493
  49.9038553  65.0694913  52.7826493  50.6718553  64.9894913  52.3766493
  49.3208553  64.9484913  52.1446493  49.9308553  65.0394913  52.6286493
  49.3548553  49.3154913  42.2936493  48.8998553  48.9134913  41.6676493
  50.1278553  49.4704913  41.9186493  49.4018553  49.2794913  42.1456493
  56.1808553  65.6724913  45.6836493  55.7258553  66.3894913  45.8846493
  55.5668553  65.1014913  45.4416493  56.0228553  65.6944913  45.6776493
  47.9528553  51.6824913  46.8156493  48.0268553  52.2504913  46.1576493
  48.0738553  52.1744913  47.5256493  47.9808553  51.8394913  46.8236493
  53.1778553  61.5174913  45.2276493  53.8788553  61.0354913  45.4166493
  52.5178553  60.9484913  45.2726493  53.1838553  61.3624913  45.2616493
  43.5538553  62.4274913  54.4396493  44.3948553  62.4904913  54.2176493
  43.5168553  62.8244913  55.2156493  43.6728553  62.4954913  54.5216493
  45.5168553  57.9384913  49.1886493  45.6888553  57.7284913  50.0176493
  44.8618553  57.4044913  48.9726493  45.4458553  57.8284913  49.2796493
  51.7448553  51.8524913  52.7036493  51.6498553  52.1714913  53.5096493
  51.1518553  51.2134913  52.6656493  51.6428553  51.8044913  52.8176493
  46.2668553  57.8764913  51.7786493  46.3198553  58.7234913  51.9806493
  45.9818553  57.5064913  52.5156493  46.2328553  57.9464913  51.9166493
  52.4438553  58.5714913  50.9086493  51.9298553  58.1594913  51.4796493
  52.3178553  59.4154913  51.0896493  52.3498553  58.6354913  51.0196493
  53.0008553  47.7964913  45.5396493  53.0498553  47.4784913  46.3506493
  53.3238553  47.1524913  45.0466493  53.0558553  47.6544913  45.5866493
  39.0878553  62.2474913  57.9896493  39.8438553  62.5964913  58.2476493
  39.2648553  61.3944913  57.9326493  39.2258553  62.1724913  58.0196493
  55.4648553  52.0324913  53.8476493  56.2368553  51.8074913  54.1846493
  54.9898553  52.2494913  54.5476493  55.5088553  52.0314913  54.0006493
  55.6968553  59.0104913  41.0356493  55.8158553  58.7234913  41.8506493
  56.5038553  59.0314913  40.7056493  55.8328553  58.9714913  41.1076493
  42.8328553  58.7424913  46.3666493  43.6838553  58.6624913  46.1936493
  42.4758553  58.0604913  45.9546493  42.9058553  58.6294913  46.2796493
  41.5998553  65.4674913  47.6036493  40.9268553  64.9694913  47.3586493
  42.0028553  65.6524913  46.8526493  41.5598553  65.4214913  47.4566493
  57.9308553  63.5194913  55.2896493  57.2488553  63.8294913  54.8426493
  57.5618553  63.0614913  55.9346493  57.7748553  63.4974913  55.3186493
  53.5918553  55.5474913  40.6206493  53.3718553  56.2784913  40.1986493
  53.1438553  55.5984913  41.3676493  53.4928553  55.6624913  40.6686493
  57.7788553  50.4084913  40.0736493  57.1168553  49.8404913  40.0966493
  57.5858553  50.9204913  39.3936493  57.6528553  50.4004913  39.9766493
  39.3568553  60.3924913  47.9216493  38.6898553  60.8804913  48.1976493
  40.0368553  60.9374913  47.9506493  39.3588553  60.5444913  47.9666493
  47.0038553  54.1024913  58.0176493  46.5198553  54.6794913  58.4596493
  46.9758553  54.3974913  57.1966493  46.9278553  54.2314913  57.9616493
  58.1018553  54.7864913  52.6296493  58.3168553  53.9864913  52.3536493
  57.2518553  54.8464913  52.4406493  58.0078553  54.6774913  52.5606493
  39.4228553  57.0764913  43.0246493  39.2378553  56.2374913  43.1766493
  40.0818553  57.0404913  42.4546493  39.4928553  56.9474913  42.9626493
  55.7808553  49.9664913  42.3526493  56.5268553  49.5594913  42.5516493
  56.0438553  50.6814913  41.9276493  55.9298553  50.0124913  42.3196493
  49.7238553  62.4524913  46.9286493  49.2008553  63.0864913  46.6356493
  50.0338553  62.0884913  46.1996493  49.6918553  62.4924913  46.7776493
  39.5948553  61.2404913  42.5996493  40.1468553  61.8094913  42.9636493
  39.3628553  60.7254913  43.2646493  39.6418553  61.2484913  42.7516493
  43.7988553  60.2404913  49.6886493  44.2658553  60.5294913  50.3666493
  44.3708553  59.7624913  49.2346493  43.9528553  60.2124913  49.7216493
  52.2348553  52.2544913  47.4256493  52.5788553  52.4064913  48.2126493
  51.7818553  51.5164913  47.5386493  52.2188553  52.1674913  47.5586493
  39.4248553  59.6894913  40.2276493  40.1808553  59.2574913  40.2856493
  39.4398553  60.2214913  40.9186493  39.5388553  59.7044913  40.3386493
  40.3648553  57.9104913  48.2326493  40.7958553  57.7814913  47.4856493
  40.1598553  58.7584913  48.2066493  40.3978553  58.0164913  48.1186493
  46.7108553  51.4744913  41.8826493  46.7088553  51.3574913  41.0176493
  46.5298553  52.3224913  41.9746493  46.6838553  51.5824913  41.7686493
  55.7648553  63.9014913  53.3796493  55.0938553  64.4154913  53.5976493
  55.8278553  64.0014913  52.5156493  55.6748553  63.9924913  53.2846493
  44.4488553  61.4264913  46.5146493  44.5748553  62.2694913  46.7016493
  45.1168553  61.0274913  46.9106493  44.5668553  61.4924913  46.6006493
  43.0638553  54.3064913  41.5166493  42.9358553  53.8584913  42.2546493
  42.4818553  53.9644913  40.9646493  42.9588553  54.1894913  41.5446493
  43.2308553  56.1364913  48.1156493  42.4498553  56.0774913  47.7326493
  43.3028553  55.3844913  48.5526493  43.1258553  56.0174913  48.1236493
  43.6608553  55.8734913  51.5836493  43.6858553  55.1984913  51.0326493
  43.0148553  56.3694913  51.2716493  43.5698553  55.8464913  51.4566493
  53.5558553  53.5864913  49.9796493  52.8938553  53.9144913  50.4426493
  53.7428553  54.2204913  49.4106493  53.4858553  53.7284913  49.9636493
  47.7608553  64.6504913  50.9756493  47.4838553  64.0094913  50.4526493
  47.5528553  65.3764913  50.5376493  47.6898553  64.6634913  50.8336493
  50.2008553  49.4924913  53.4086493  50.3498553  48.6674913  53.1656493
  50.5798553  49.5474913  54.1926493  50.2788553  49.3784913  53.4886493
  51.7488553  51.5554913  43.4906493  52.2388553  52.2724913  43.4136493
  50.9588553  51.8164913  43.2276493  51.7048553  51.6994913  43.4406493
  41.4598553  57.2284913  57.1426493  41.4228553  57.7294913  56.4286493
  41.7908553  56.4764913  56.8476493  41.5028553  57.1904913  56.9936493
  53.0628553  59.4334913  55.4006493  53.5468553  60.1514913  55.4986493
  53.4568553  59.0064913  54.7496493  53.1928553  59.4764913  55.3186493
  47.3588553  62.2784913  56.5776493  47.7128553  62.1004913  57.3546493
  46.9228553  61.5494913  56.3786493  47.3468553  62.1444913  56.6636493
  48.3308553  53.0254913  49.2156493  48.8108553  53.7244913  49.4236493
  48.7038553  52.3784913  49.6666493  48.4568553  53.0334913  49.3126493
  50.5198553  56.1944913  41.4896493  50.5118553  56.9164913  40.9996493
  49.8808553  56.3294913  42.0666493  50.4248553  56.3214913  41.5026493
  55.4918553  60.0644913  45.4706493  55.8478553  59.7144913  46.1856493
  55.4838553  59.4034913  44.9006493  55.5438553  59.9144913  45.4916493
  51.5368553  63.1304913  49.3146493  50.9338553  62.8344913  48.7576493
  52.0818553  63.5824913  48.8056493  51.5278553  63.1534913  49.1566493
  51.5498553  59.9814913  48.7146493  50.7528553  60.2054913  48.9886493
  51.8078553  59.3874913  49.2996493  51.4698553  59.9264913  48.8416493
  45.4418553  64.7934913  43.1626493  45.2948553  64.0174913  43.5336493
  46.1308553  64.6464913  42.6476493  45.5218553  64.6564913  43.1416493
  47.7338553  64.3094913  41.5646493  48.3558553  64.4724913  42.1546493
  47.7698553  65.0004913  41.0326493  47.8308553  64.4354913  41.5736493
  54.8098553  57.9794913  53.5606493  54.8648553  58.1044913  52.6986493
  55.5628553  58.2994913  53.8626493  54.9288553  58.0444913  53.4776493
  51.0008553  63.3284913  57.8376493  51.1648553  63.6114913  58.6466493
  51.2638553  63.9894913  57.3326493  51.0638553  63.4684913  57.8826493
  55.8418553  48.2774913  56.5476493  55.2048553  47.8774913  56.1056493
  55.8678553  47.8464913  57.3056493  55.7518553  48.1554913  56.5936493
  42.2348553  56.8434913  42.3936493  42.5588553  56.0644913  42.1716493
  42.8808553  57.2114913  42.8486493  42.3778553  56.7824913  42.4276493
  50.5408553  57.7854913  53.1606493  50.3858553  58.3954913  53.7646493
  51.0748553  57.2274913  53.5666493  50.5968553  57.7934913  53.3096493
  48.9248553  56.1854913  43.8186493  48.9838553  56.8354913  44.3976493
  48.7358553  55.4894913  44.3096493  48.9058553  56.1784913  43.9766493
  54.1508553  60.5144913  49.6876493  53.6718553  60.8124913  49.0216493
  53.7948553  59.7384913  49.8656493  54.0278553  60.4434913  49.6156493
  48.1478553  58.2324913  48.2496493  47.3008553  58.0384913  48.3306493
  48.4718553  58.0674913  49.0426493  48.0698553  58.1794913  48.3786493
  44.8998553  64.9624913  39.1356493  45.3388553  64.2654913  39.4236493
  45.1068553  65.5864913  39.7086493  44.9958553  64.9514913  39.2626493
  41.9958553  57.9254913  50.5656493  42.7178553  58.4134913  50.5286493
  41.7258553  57.8954913  49.7366493  42.0628553  57.9934913  50.4376493
  45.2258553  53.0964913  47.3006493  46.0718553  52.9064913  47.3986493
  44.8558553  52.3194913  47.1626493  45.2958553  52.9534913  47.2946493
  57.8428553  64.6804913  41.6276493  58.5368553  64.2134913  41.3796493
  57.3038553  64.0824913  41.9646493  57.8658553  64.5224913  41.6406493
  55.0818553  57.4564913  50.8066493  55.0748553  56.6804913  51.2046493
  54.2408553  57.6904913  50.7996493  54.9568553  57.3764913  50.8646493
  44.5718553  55.8684913  39.4416493  43.9618553  55.4634913  39.9156493
  44.1858553  55.9864913  38.6686493  44.4248553  55.8254913  39.3976493
  41.3908553  58.9774913  54.8436493  40.9698553  58.4594913  54.2826493
  41.0388553  59.7634913  54.7006493  41.2768553  59.0174913  54.7396493
  56.3378553  57.5274913  48.2436493  56.0518553  57.9284913  48.9636493
  57.1978553  57.4654913  48.3706493  56.4228553  57.5774913  48.3686493
  46.0268553  54.3294913  42.1516493  46.2988553  55.1554913  42.2186493
  45.1638553  54.4044913  42.0556493  45.9398553  54.4624913  42.1466493
  53.9998553  51.4514913  56.7836493  53.4748553  51.9104913  57.3076493
  53.6388553  50.6564913  56.7776493  53.8688553  51.4014913  56.8596493
  57.4688553  63.1604913  48.7726493  57.7588553  63.4174913  47.9916493
  58.1638553  63.2564913  49.2916493  57.6148553  63.2124913  48.7336493
  52.4918553  55.0204913  56.8596493  52.5648553  55.1244913  57.7226493
  51.8578553  55.5784913  56.6386493  52.4088553  55.1184913  56.9546493
  54.7598553  55.3394913  55.2246493  55.0788553  56.1254913  55.4276493
  54.3898553  55.0694913  55.9676493  54.7528553  55.4154913  55.3646493
  54.0738553  61.7634913  40.7546493  54.4078553  60.9574913  40.7896493
  53.3188553  61.6914913  41.1846493  54.0118553  61.6334913  40.8236493
  54.5558553  53.5974913  46.4136493  53.8108553  53.2744913  46.7316493
  54.5578553  54.4234913  46.6936493  54.4458553  53.6714913  46.5016493
  57.4578553  55.8814913  57.9596493  57.4058553  55.5404913  57.1586493
  58.1948553  56.3484913  57.9376493  57.5588553  55.9004913  57.8376493
  56.9958553  59.5574913  54.1656493  57.6238553  59.0084913  53.9096493
  56.9348553  60.1224913  53.5036493  57.0798553  59.5604913  54.0296493
  51.4478553  59.6384913  40.1576493  52.1318553  59.1244913  39.9886493
  51.0308553  59.6844913  39.3926493  51.4868553  59.5694913  40.0196493
  46.1298553  60.7884913  51.4616493  45.8318553  61.3804913  52.0286493
  46.1848553  61.2304913  50.7126493  46.0938553  60.9414913  51.4346493
  44.1088553  59.7384913  54.8596493  43.3028553  59.4484913  55.0266493
  44.0198553  60.6064913  54.8656493  43.9768553  59.8234913  54.8846493
  53.4678553  49.9274913  53.8746493  54.2118553  50.3794913  53.8116493
  52.9018553  50.3974913  53.4056493  53.4948553  50.0644913  53.7966493
  48.6458553  57.2114913  50.9526493  49.1218553  57.5854913  51.5806493
  47.8228553  57.3454913  51.2116493  48.5948553  57.2864913  51.0836493
  45.3558553  52.8144913  53.6936493  45.5168553  52.0704913  54.1206493
  45.3108553  52.5654913  52.8586493  45.3728553  52.6674913  53.6336493
  47.9098553  64.6044913  46.1806493  48.4558553  65.2834913  46.2346493
  47.5598553  64.6864913  45.3856493  47.9388553  64.7174913  46.0706493
  54.7528553  47.9074913  51.5446493  54.4728553  48.7324913  51.5006493
  55.4688553  47.9604913  52.0406493  54.8178553  48.0374913  51.6116493
  47.1078553  48.6224913  53.5736493  47.8128553  48.9424913  53.1716493
  47.3488553  47.8154913  53.8006493  47.2468553  48.5504913  53.5476493
  46.0928553  62.8324913  49.5696493  45.4688553  63.4144913  49.3876493
  46.3408553  62.5464913  48.7836493  46.0368553  62.8764913  49.4266493
  50.4018553  59.4664913  56.5586493  51.1588553  59.7524913  56.2326493
  49.8548553  59.5184913  55.8806493  50.4328553  59.5164913  56.4096493
  54.3108553  62.0164913  55.0626493  54.6568553  62.2864913  55.8166493
  54.6048553  62.5984913  54.4826493  54.4058553  62.1424913  55.0886493
  56.1738553  54.1624913  40.4016493  56.5518553  54.8394913  40.0016493
  55.3318553  54.3864913  40.4326493  56.1048553  54.2954913  40.3466493
  47.6868553  57.6084913  39.4846493  46.8818553  57.4314913  39.1996493
  47.6538553  58.4594913  39.6766493  47.5628553  57.7074913  39.4716493
  43.6168553  53.6754913  49.6346493  44.0568553  53.5724913  48.8886493
  44.1618553  53.3624913  50.2396493  43.7618553  53.6144913  49.6136493
  51.6328553  52.7774913  55.2266493  50.9848553  53.2474913  55.5746493
  52.1978553  52.6884913  55.8856493  51.6208553  52.8334913  55.3756493
  51.3208553  54.3144913  51.5246493  51.6228553  54.7344913  52.2276493
  51.3568553  53.4744913  51.7566493  51.3708553  54.2524913  51.6626493
  48.7458553  64.4814913  55.4496493  49.2238553  63.8814913  55.0336493
  48.3948553  64.0384913  56.1146493  48.7648553  64.3274913  55.4866493
  53.8688553  53.7614913  43.7766493  54.0758553  53.5604913  44.6006493
  54.6248553  54.0294913  43.4346493  54.0108553  53.7714913  43.8476493
  47.1638553  48.6604913  49.6816493  46.3378553  48.5114913  49.9186493
  47.1238553  48.6954913  48.8106493  47.0358553  48.6434913  49.5876493
  54.8908553  49.8444913  45.2506493  54.1768553  49.3734913  45.4216493
  54.7288553  50.1854913  44.4646493  54.7618553  49.8254913  45.1596493
  55.3338553  57.7884913  43.6306493  55.8098553  57.0594913  43.5826493
  54.5128553  57.5024913  43.5546493  55.2828553  57.6384913  43.6116493
  48.8048553  59.7004913  54.4696493  48.0098553  59.6364913  54.8206493
  48.8758553  60.5474913  54.2746493  48.6978553  59.8154913  54.4926493
  44.6348553  65.9074913  49.7866493  44.6458553  65.9664913  50.6566493
  44.2098553  65.1604913  49.6366493  44.5738553  65.8054913  49.8926493
  51.5498553  58.9554913  45.9856493  51.6258553  59.2964913  46.7846493
  51.7188553  58.1084913  46.1066493  51.5858553  58.8804913  46.1216493
  49.0718553  58.2294913  45.5506493  48.7738553  57.9144913  46.3076493
  49.7668553  58.7024913  45.7856493  49.1308553  58.2524913  45.6976493
  49.2938553  62.3474913  53.5776493  49.9808553  62.2334913  54.1026493
  49.4278553  63.1384913  53.2336493  49.4148553  62.4474913  53.6046493
  57.4698553  54.9564913  55.3886493  56.6148553  54.8344913  55.5146493
  57.6228553  54.5614913  54.6256493  57.3658553  54.8794913  55.2946493
  51.9828553  55.6214913  53.9646493  51.7278553  54.9024913  54.3866493
  52.8038553  55.7374913  54.2346493  52.0668553  55.5324913  54.0666493
  41.3988553  65.4054913  55.2286493  40.7448553  64.8364913  55.3266493
  41.0238553  66.1784913  55.3796493  41.2468553  65.4354913  55.2656493
  49.9168553  56.8114913  57.1516493  50.2398553  57.4974913  56.7196493
  49.2128553  57.1344913  57.5536493  49.8598553  56.9604913  57.1466493
  53.0008553  65.1854913  48.0806493  52.5498553  65.8284913  48.4596493
  53.7088553  65.1064913  48.5856493  53.0388553  65.2684913  48.2116493
  49.7018553  60.2754913  51.0106493  49.0078553  60.6774913  51.3536493
  50.3788553  60.7084913  51.3496493  49.6988553  60.3984913  51.1116493
  55.0788553  62.8684913  57.5906493  55.8548553  62.4784913  57.6736493
  54.6098553  62.5324913  58.2456493  55.1238553  62.7614913  57.6996493
  56.1038553  54.9014913  43.0726493  56.2068553  54.8434913  42.2086493
  56.8448553  54.5694913  43.3906493  56.2288553  54.8444913  42.9916493
  50.0238553  61.8664913  44.1796493  49.8188553  62.6994913  44.0206493
  49.2488553  61.4844913  44.3016493  49.8788553  61.9334913  44.1746493
  55.2058553  55.0474913  52.4286493  55.2038553  54.1844913  52.5526493
  55.2728553  55.3714913  53.2356493  55.2158553  54.9674913  52.5656493
  51.0848553  49.8474913  56.2106493  51.1768553  50.5594913  56.7046493
  50.4478553  49.4024913  56.6076493  51.0038553  49.8864913  56.3426493
  50.0788553  50.0374913  47.0646493  49.3788553  50.5554913  47.0086493
  50.1168553  49.6574913  46.2806493  49.9808553  50.0584913  46.9406493
  45.3858553  62.1284913  40.5886493  45.8268553  62.2084913  41.3366493
  44.5808553  61.9124913  40.8466493  45.3318553  62.1084913  40.7376493
  53.6768553  50.5534913  49.8646493  54.5318553  50.6524913  50.0096493
  53.3078553  51.1064913  50.4296493  53.7488553  50.6504913  49.9696493
  44.7048553  56.7794913  54.2416493  44.3088553  57.5534913  54.3166493
  44.2988553  56.4064913  53.5656493  44.5868553  56.8384913  54.1526493
  53.9808553  55.8334913  48.3556493  54.6468553  56.3744913  48.5156493
  53.6358553  56.1444913  47.6166493  54.0278553  55.9594913  48.2706493
  54.2938553  63.8994913  44.1626493  54.1198553  63.2454913  44.7126493
  55.0068553  63.6284913  43.7396493  54.3738553  63.7624913  44.1816493
  42.7148553  61.1984913  41.1896493  42.4708553  60.8914913  41.9696493
  42.6818553  60.4954913  40.6736493  42.6738553  61.0494913  41.2286493
  45.5338553  59.4434913  39.9326493  44.7158553  59.1754913  40.0726493
  45.5058553  60.2954913  40.1176493  45.4088553  59.5304913  39.9806493
  45.1338553  49.7564913  51.6916493  44.2698553  49.8404913  51.7716493
  45.3538553  49.2424913  52.3606493  45.0388553  49.6934913  51.8026493
  57.1518553  48.3914913  53.0206493  57.0998553  48.3474913  53.8906493
  57.8388553  47.8884913  52.8306493  57.2458553  48.3114913  53.1206493
  51.9688553  61.3524913  51.8536493  52.1748553  61.6534913  52.6456493
  51.9078553  62.0744913  51.3686493  51.9898553  61.5034913  51.8986493
  51.5028553  65.5664913  56.0996493  50.7498553  65.5484913  55.6586493
  51.6708553  66.4184913  56.1836493  51.4168553  65.6894913  56.0466493
  46.7398553  54.8334913  55.2696493  46.4178553  54.2574913  54.6996493
  46.3808553  55.5884913  55.0236493  46.6398553  54.8594913  55.1496493
  47.5358553  48.0854913  39.8966493  47.6138553  48.3324913  39.0636493
  46.7928553  48.4624913  40.1546493  47.4378553  48.1774913  39.8116493
  56.7808553  59.9914913  51.3116493  56.7488553  59.1294913  51.1766493
  56.0878553  60.2934913  50.8776493  56.6738553  59.9084913  51.2276493
  45.1748553  65.1894913  55.5176493  45.2158553  65.3154913  56.3806493
  45.8258553  64.6294913  55.3616493  45.2768553  65.1254913  55.6226493
  54.8858553  63.2514913  50.1086493  55.4128553  63.1684913  49.4176493
  54.4948553  62.4734913  50.1626493  54.9058553  63.1244913  50.0146493
  51.3998553  48.6954913  49.3166493  52.0698553  49.2394913  49.4436493
  50.8968553  49.1194913  48.7436493  51.4248553  48.8384913  49.2506493
  42.7678553  63.5724913  56.8776493  43.3628553  64.0034913  57.3496493
  42.4038553  64.1964913  56.3886493  42.8018553  63.7284913  56.8746493
  50.7588553  54.5034913  46.8096493  51.3098553  53.8964913  47.1096493
  50.3338553  54.7664913  47.5246493  50.7778553  54.4524913  46.9586493
  40.6948553  61.5614913  53.8066493  40.1208553  61.9774913  54.3156493
  41.4278553  62.0264913  53.9016493  40.7188553  61.6914913  53.8956493
  52.7288553  56.3344913  43.3716493  52.7968553  55.4844913  43.5526493
  51.9058553  56.4204913  43.0936493  52.6168553  56.2214913  43.3576493
  42.4808553  64.8284913  42.5816493  42.3358553  64.9844913  41.7356493
  43.3468553  64.9074913  42.6596493  42.5878553  64.8634913  42.4686493
  46.6478553  57.2254913  42.3096493  46.7478553  57.3644913  41.4546493
  47.4658553  57.1654913  42.6056493  46.7828553  57.2364913  42.2266493
  55.8078553  65.2894913  39.7896493  56.4448553  65.1554913  40.3706493
  55.4668553  64.4954913  39.6726493  55.8518553  65.1524913  39.8576493
  56.0028553  57.7074913  56.5226493  56.6368553  57.5374913  57.0966493
  56.4198553  58.1104913  55.8706493  56.1578553  57.7424913  56.5116493
  51.8828553  61.5544913  42.1116493  51.6318553  61.4264913  42.9376493
  51.5658553  60.8594913  41.6906493  51.7988553  61.4334913  42.1716493
  56.6278553  52.2714913  57.2606493  56.4318553  52.9154913  57.8156493
  55.9058553  51.7814913  57.2526493  56.4928553  52.2944913  57.3416493
  56.5268553  53.2124913  50.2316493  55.6938553  53.4624913  50.1596493
  56.4708553  52.3724913  50.4606493  56.3958553  53.1254913  50.2546493
  45.7868553  50.2004913  55.4256493  46.0208553  49.6244913  54.8126493
  44.9448553  50.0194913  55.5666493  45.6968553  50.0884913  55.3556493
  53.4138553  57.8184913  57.8776493  54.2848553  57.7824913  57.8416493
  53.1948553  58.2384913  57.1456493  53.5108553  57.8744913  57.7646493
  43.1678553  63.6434913  49.0586493  43.0888553  62.8334913  48.7426493
  42.7238553  64.1304913  48.4866493  43.0908553  63.5954913  48.9276493
  48.7688553  59.7624913  41.5416493  49.4858553  59.4154913  41.1856493
  48.7348553  60.5624913  41.1936493  48.8698553  59.8294913  41.4376493
  40.7398553  65.8874913  52.6396493  41.2328553  65.8314913  53.3576493
  40.9278553  65.1544913  52.2046493  40.8408553  65.7704913  52.6816493
  50.1778553  48.4034913  25.7804083  49.9328553  48.8914913  25.1004083
  51.0408553  48.3304913  25.6804083  50.2688553  48.4644913  25.6654083
  49.9868553  55.3194913  30.4514083  49.4628553  55.9154913  30.8144083
  50.3838553  54.9514913  31.1354083  49.9678553  55.3534913  30.6064083
  39.8558553  59.4594913  25.9074083  39.4148553  59.5774913  26.6504083
  39.5728553  58.6844913  25.6224083  39.7488553  59.3624913  25.9754083
  56.1308553  62.7604913  23.4224083  56.8318553  62.2414913  23.4184083
  55.5438553  62.3154913  22.9534083  56.1478553  62.6174913  23.3524083
  39.5988553  53.2514913  22.4144083  38.8208553  53.4134913  22.0544083
  39.6378553  52.3804913  22.4364083  39.4898553  53.1464913  22.3644083
  42.7378553  58.5144913  21.0864083  42.3458553  58.1434913  20.4004083
  42.6578553  57.9164913  21.7154083  42.6678553  58.3714913  21.0774083
  52.6578553  56.3864913  27.1274083  52.7378553  56.3904913  26.2584083
  52.0738553  55.7544913  27.2764083  52.5828553  56.2934913  27.0214083
  42.3648553  60.1554913  24.9864083  42.9728553  59.9854913  25.5894083
  41.6138553  60.0154913  25.4074083  42.3438553  60.1094913  25.1374083
  46.6468553  49.4904913  24.9354083  46.5768553  50.1674913  24.3894083
  47.3878553  49.1024913  24.6864083  46.7458553  49.5334913  24.8174083
  41.2558553  63.2464913  21.0634083  41.7228553  63.3304913  20.3314083
  41.7108553  62.6684913  21.5324083  41.3918553  63.1734913  21.0244083
  39.7958553  62.1944913  32.1624083  39.9248553  61.9144913  32.9784083
  39.1858553  61.6534913  31.8534083  39.7248553  62.0734913  32.2374083
  46.3698553  59.7194913  37.2294083  46.1338553  59.7164913  38.0694083
  45.6218553  59.5714913  36.8054083  46.2238553  59.6964913  37.2904083
  41.2418553  56.7154913  26.3644083  40.7798553  56.3234913  25.7374083
  41.9418553  56.2024913  26.4564083  41.2768553  56.5824913  26.2854083
  45.7498553  52.3254913  31.7114083  46.4278553  52.3434913  31.1624083
  45.7048553  51.4894913  31.9564083  45.8428553  52.2044913  31.6664083
  46.3518553  62.9114913  34.4924083  46.4898553  63.6714913  34.0854083
  47.1428553  62.5464913  34.5194083  46.4888553  62.9704913  34.4364083
  43.2428553  54.8154913  26.3874083  44.0598553  54.6284913  26.6304083
  42.7658553  54.2014913  26.7834083  43.2928553  54.6974913  26.4824083
  47.4468553  60.7964913  28.9974083  47.7948553  59.9974913  29.0274083
  48.1118553  61.3004913  28.7424083  47.5968553  60.7524913  28.9644083
  47.5038553  60.2454913  25.2084083  47.8348553  59.6014913  25.6944083
  47.7438553  60.0344913  24.3974083  47.5878553  60.1194913  25.1604083
  49.4718553  54.3764913  36.5474083  48.6238553  54.2774913  36.3694083
  49.5008553  55.1214913  37.0014083  49.3508553  54.4724913  36.5884083
  43.8398553  49.9094913  25.6534083  43.5438553  50.4104913  25.0034083
  44.7068553  49.9874913  25.5964083  43.9238553  49.9954913  25.5494083
  54.0298553  47.3364913  35.6614083  53.8718553  48.1054913  35.2794083
  53.2578553  47.1164913  36.0054083  53.8918553  47.4174913  35.6564083
  46.8188553  49.0514913  27.8764083  46.8918553  49.9114913  28.0054083
  46.7808553  48.9764913  27.0084083  46.8238553  49.1674913  27.7674083
  51.4918553  51.9774913  20.1754083  51.0418553  52.6584913  20.4824083
  51.6058553  51.4734913  20.8784083  51.4428553  52.0034913  20.3244083
  39.6978553  54.4764913  29.3774083  39.4418553  55.3074913  29.3024083
  39.0338553  54.0934913  29.7944083  39.5618553  54.5424913  29.4284083
  39.6078553  64.1864913  27.2774083  39.0158553  64.7444913  26.9644083
  40.0338553  63.9174913  26.5654083  39.5838553  64.2284913  27.1264083
  45.4478553  62.0304913  24.7574083  44.8688553  61.7554913  25.3494083
  46.0718553  61.4214913  24.7824083  45.4548553  61.9004913  24.8484083
  51.5908553  64.3184913  22.2794083  52.3178553  64.7904913  22.3814083
  51.8198553  63.5244913  22.5594083  51.7328553  64.2714913  22.3364083
  49.7588553  64.7104913  24.2694083  49.9728553  65.2374913  24.9314083
  50.5258553  64.5364913  23.8904083  49.9038553  64.7624913  24.3114083
  42.7268553  49.2934913  29.8684083  42.2058553  48.6654913  29.5604083
  43.3178553  48.8564913  30.3394083  42.7378553  49.1354913  29.8924083
  46.0328553  51.4264913  39.1664083  46.1498553  50.9724913  38.4304083
  46.3208553  52.2244913  38.9634083  46.0928553  51.4774913  39.0274083
  41.1528553  62.8564913  25.2084083  41.8088553  62.2814913  25.2234083
  41.5418553  63.6054913  24.9874083  41.3078553  62.8814913  25.1784083
  56.8858553  51.9504913  26.4704083  56.5398553  52.6284913  26.8964083
  56.2498553  51.3524913  26.4864083  56.7408553  51.9624913  26.5354083
  52.1978553  64.7204913  32.5744083  52.9418553  65.1764913  32.5644083
  52.0768553  64.5064913  31.7374083  52.2898553  64.7564913  32.4494083
  41.9708553  61.3434913  28.7084083  42.3938553  60.9874913  28.0344083
  42.2948553  60.9214913  29.4004083  42.0808553  61.2284913  28.7114083
  45.2018553  64.1954913  28.0044083  46.0458553  64.2994913  27.8094083
  44.9048553  65.0134913  28.0724083  45.2828553  64.3314913  27.9854083
  48.4148553  48.6664913  37.3184083  48.5928553  47.8574913  37.0434083
  48.2718553  49.1074913  36.5794083  48.4198553  48.6124913  37.1684083
  49.0088553  53.5924913  26.0914083  49.2958553  53.3604913  25.3014083
  49.7408553  53.6714913  26.5604083  49.1588553  53.5694913  26.0444083
  49.7308553  53.9314913  21.2124083  50.0118553  54.7194913  21.4614083
  48.9548553  54.0964913  20.8494083  49.6578553  54.0724913  21.1954083
  53.7718553  65.9054913  22.6794083  54.4368553  65.7574913  22.1344083
  54.1318553  65.8224913  23.4694083  53.9238553  65.8714913  22.7154083
  44.1998553  65.4144913  33.7444083  44.4918553  65.3474913  34.5644083
  43.5738553  64.8094913  33.6994083  44.1508553  65.3154913  33.8594083
  56.5608553  50.2734913  31.8394083  57.3178553  50.3454913  31.4114083
  56.6238553  49.5004913  32.2384083  56.6818553  50.1704913  31.8344083
  51.4518553  61.9054913  36.2784083  51.4178553  62.2874913  37.0624083
  52.3058553  61.8634913  36.1074083  51.5728553  61.9554913  36.3694083
  48.5898553  62.1024913  21.0284083  48.4088553  62.6474913  21.6854083
  49.3558553  62.3924913  20.7274083  48.6758553  62.2264913  21.0814083
  52.0968553  49.9984913  22.0824083  52.6368553  49.3164913  22.1584083
  52.1588553  50.3964913  22.8564083  52.1858553  49.9564913  22.2084083
  40.0508553  51.1664913  24.6514083  39.9368553  50.3024913  24.6824083
  39.5758553  51.4604913  25.3214083  39.9638553  51.0824913  24.7544083
  42.1928553  63.5764913  32.8664083  41.4948553  63.0684913  32.9924083
  42.4528553  63.3714913  32.0584083  42.1278553  63.4714913  32.7654083
  49.3548553  52.3744913  23.3964083  48.8468553  51.7124913  23.1424083
  49.4068553  52.8784913  22.6864083  49.2878553  52.3514913  23.2544083
  49.9038553  65.0694913  33.7764083  50.6718553  64.9894913  33.3704083
  49.3208553  64.9484913  33.1384083  49.9308553  65.0394913  33.6224083
  49.3548553  49.3154913  23.2874083  48.8998553  48.9134913  22.6614083
  50.1278553  49.4704913  22.9124083  49.4018553  49.2794913  23.1394083
  56.1808553  65.6724913  26.6774083  55.7258553  66.3894913  26.8784083
  55.5668553  65.1014913  26.4354083  56.0228553  65.6944913  26.6714083
  47.9528553  51.6824913  27.8094083  48.0268553  52.2504913  27.1514083
  48.0738553  52.1744913  28.5194083  47.9808553  51.8394913  27.8174083
  53.1778553  61.5174913  26.2214083  53.8788553  61.0354913  26.4104083
  52.5178553  60.9484913  26.2664083  53.1838553  61.3624913  26.2554083
  43.5538553  62.4274913  35.4334083  44.3948553  62.4904913  35.2114083
  43.5168553  62.8244913  36.2094083  43.6728553  62.4954913  35.5154083
  42.5608553  47.5054913  26.1574083  43.0968553  48.1934913  26.1474083
  42.5638553  47.2314913  25.3294083  42.6398553  47.5664913  26.0334083
  45.5168553  57.9384913  30.1824083  45.6888553  57.7284913  31.0114083
  44.8618553  57.4044913  29.9664083  45.4458553  57.8284913  30.2734083
  51.7448553  51.8524913  33.6974083  51.6498553  52.1714913  34.5034083
  51.1518553  51.2134913  33.6594083  51.6428553  51.8044913  33.8114083
  46.2668553  57.8764913  32.7724083  46.3198553  58.7234913  32.9744083
  45.9818553  57.5064913  33.5094083  46.2328553  57.9464913  32.9104083
  52.4438553  58.5714913  31.9024083  51.9298553  58.1594913  32.4734083
  52.3178553  59.4154913  32.0834083  52.3498553  58.6354913  32.0134083
  53.0008553  47.7964913  26.5334083  53.0498553  47.4784913  27.3444083
  53.3238553  47.1524913  26.0404083  53.0558553  47.6544913  26.5804083
  39.0878553  62.2474913  38.9834083  39.8438553  62.5964913  39.2414083
  39.2648553  61.3944913  38.9264083  39.2258553  62.1724913  39.0134083
  55.4648553  52.0324913  34.8414083  56.2368553  51.8074913  35.1784083
  54.9898553  52.2494913  35.5414083  55.5088553  52.0314913  34.9944083
  43.0088553  51.3154913  27.8114083  43.2808553  50.8854913  27.1034083
  42.8328553  50.6794913  28.3824083  43.0228553  51.1584913  27.7914083
  55.6968553  59.0104913  22.0294083  55.8158553  58.7234913  22.8444083
  56.5038553  59.0314913  21.6994083  55.8328553  58.9714913  22.1014083
  42.8328553  58.7424913  27.3604083  43.6838553  58.6624913  27.1874083
  42.4758553  58.0604913  26.9484083  42.9058553  58.6294913  27.2734083
  41.5998553  65.4674913  28.5974083  40.9268553  64.9694913  28.3524083
  42.0028553  65.6524913  27.8464083  41.5598553  65.4214913  28.4504083
  41.1498553  52.4174913  30.8934083  41.9928553  52.6374913  30.8504083
  40.7608553  52.9904913  30.3624083  41.2168553  52.5344913  30.8084083
  57.9308553  63.5194913  36.2834083  57.2488553  63.8294913  35.8364083
  57.5618553  63.0614913  36.9284083  57.7748553  63.4974913  36.3124083
  53.5918553  55.5474913  21.6144083  53.3718553  56.2784913  21.1924083
  53.1438553  55.5984913  22.3614083  53.4928553  55.6624913  21.6624083
  45.2008553  58.7494913  25.5954083  45.9138553  59.2444913  25.6854083
  45.4228553  58.1824913  24.9694083  45.3388553  58.7384913  25.5164083
  57.7788553  50.4084913  21.0674083  57.1168553  49.8404913  21.0904083
  57.5858553  50.9204913  20.3874083  57.6528553  50.4004913  20.9704083
  39.3568553  60.3924913  28.9154083  38.6898553  60.8804913  29.1914083
  40.0368553  60.9374913  28.9444083  39.3588553  60.5444913  28.9604083
  47.0038553  54.1024913  39.0114083  46.5198553  54.6794913  39.4534083
  46.9758553  54.3974913  38.1904083  46.9278553  54.2314913  38.9554083
  58.1018553  54.7864913  33.6234083  58.3168553  53.9864913  33.3474083
  57.2518553  54.8464913  33.4344083  58.0078553  54.6774913  33.5544083
  39.4228553  57.0764913  24.0184083  39.2378553  56.2374913  24.1704083
  40.0818553  57.0404913  23.4484083  39.4928553  56.9474913  23.9564083
  55.7808553  49.9664913  23.3464083  56.5268553  49.5594913  23.5454083
  56.0438553  50.6814913  22.9214083  55.9298553  50.0124913  23.3134083
  49.7238553  62.4524913  27.9224083  49.2008553  63.0864913  27.6294083
  50.0338553  62.0884913  27.1934083  49.6918553  62.4924913  27.7714083
  39.5948553  61.2404913  23.5934083  40.1468553  61.8094913  23.9574083
  39.3628553  60.7254913  24.2584083  39.6418553  61.2484913  23.7454083
  43.7988553  60.2404913  30.6824083  44.2658553  60.5294913  31.3604083
  44.3708553  59.7624913  30.2284083  43.9528553  60.2124913  30.7154083
  52.2348553  52.2544913  28.4194083  52.5788553  52.4064913  29.2064083
  51.7818553  51.5164913  28.5324083  52.2188553  52.1674913  28.5524083
  39.4248553  59.6894913  21.2214083  40.1808553  59.2574913  21.2794083
  39.4398553  60.2214913  21.9124083  39.5388553  59.7044913  21.3324083
  40.3648553  57.9104913  29.2264083  40.7958553  57.7814913  28.4794083
  40.1598553  58.7584913  29.2004083  40.3978553  58.0164913  29.1124083
  46.7108553  51.4744913  22.8764083  46.7088553  51.3574913  22.0114083
  46.5298553  52.3224913  22.9684083  46.6838553  51.5824913  22.7624083
  55.7648553  63.9014913  34.3734083  55.0938553  64.4154913  34.5914083
  55.8278553  64.0014913  33.5094083  55.6748553  63.9924913  34.2784083
  44.4488553  61.4264913  27.5084083  44.5748553  62.2694913  27.6954083
  45.1168553  61.0274913  27.9044083  44.5668553  61.4924913  27.5944083
  42.5788553  54.9094913  37.3704083  42.0428553  54.4034913  37.8384083
  42.5988553  54.5194913  36.5904083  42.5018553  54.7764913  37.3244083
  43.0638553  54.3064913  22.5104083  42.9358553  53.8584913  23.2484083
  42.4818553  53.9644913  21.9584083  42.9588553  54.1894913  22.5384083
  43.2308553  56.1364913  29.1094083  42.4498553  56.0774913  28.7264083
  43.3028553  55.3844913  29.5464083  43.1258553  56.0174913  29.1174083
  43.6608553  55.8734913  32.5774083  43.6858553  55.1984913  32.0264083
  43.0148553  56.3694913  32.2654083  43.5698553  55.8464913  32.4504083
  53.5558553  53.5864913  30.9734083  52.8938553  53.9144913  31.4364083
  53.7428553  54.2204913  30.4044083  53.4858553  53.7284913  30.9574083
  47.7608553  64.6504913  31.9694083  47.4838553  64.0094913  31.4464083
  47.5528553  65.3764913  31.5314083  47.6898553  64.6634913  31.8274083
  50.2008553  49.4924913  34.4024083  50.3498553  48.6674913  34.1594083
  50.5798553  49.5474913  35.1864083  50.2788553  49.3784913  34.4824083
  51.7488553  51.5554913  24.4844083  52.2388553  52.2724913  24.4074083
  50.9588553  51.8164913  24.2214083  51.7048553  51.6994913  24.4344083
  41.4598553  57.2284913  38.1364083  41.4228553  57.7294913  37.4224083
  41.7908553  56.4764913  37.8414083  41.5028553  57.1904913  37.9874083
  53.0628553  59.4334913  36.3944083  53.5468553  60.1514913  36.4924083
  53.4568553  59.0064913  35.7434083  53.1928553  59.4764913  36.3124083
  47.3588553  62.2784913  37.5714083  47.7128553  62.1004913  38.3484083
  46.9228553  61.5494913  37.3724083  47.3468553  62.1444913  37.6574083
  48.3308553  53.0254913  30.2094083  48.8108553  53.7244913  30.4174083
  48.7038553  52.3784913  30.6604083  48.4568553  53.0334913  30.3064083
  50.5198553  56.1944913  22.4834083  50.5118553  56.9164913  21.9934083
  49.8808553  56.3294913  23.0604083  50.4248553  56.3214913  22.4964083
  55.4918553  60.0644913  26.4644083  55.8478553  59.7144913  27.1794083
  55.4838553  59.4034913  25.8944083  55.5438553  59.9144913  26.4854083
  51.5368553  63.1304913  30.3084083  50.9338553  62.8344913  29.7514083
  52.0818553  63.5824913  29.7994083  51.5278553  63.1534913  30.1504083
  51.5498553  59.9814913  29.7084083  50.7528553  60.2054913  29.9824083
  51.8078553  59.3874913  30.2934083  51.4698553  59.9264913  29.8354083
  45.4418553  64.7934913  24.1564083  45.2948553  64.0174913  24.5274083
  46.1308553  64.6464913  23.6414083  45.5218553  64.6564913  24.1354083
  45.1128553  48.5364913  22.1444083  45.2098553  48.4294913  23.0054083
  44.4048553  49.0424913  22.0794083  45.0228553  48.5954913  22.2624083
  47.7338553  64.3094913  22.5584083  48.3558553  64.4724913  23.1484083
  47.7698553  65.0004913  22.0264083  47.8308553  64.4354913  22.5674083
  54.8098553  57.9794913  34.5544083  54.8648553  58.1044913  33.6924083
  55.5628553  58.2994913  34.8564083  54.9288553  58.0444913  34.4714083
  51.0008553  63.3284913  38.8314083  51.1648553  63.6114913  39.6404083
  51.2638553  63.9894913  38.3264083  51.0638553  63.4684913  38.8764083
  55.8418553  48.2774913  37.5414083  55.2048553  47.8774913  37.0994083
  55.8678553  47.8464913  38.2994083  55.7518553  48.1554913  37.5874083
  42.2348553  56.8434913  23.3874083  42.5588553  56.0644913  23.1654083
  42.8808553  57.2114913  23.8424083  42.3778553  56.7824913  23.4214083
  50.5408553  57.7854913  34.1544083  50.3858553  58.3954913  34.7584083
  51.0748553  57.2274913  34.5604083  50.5968553  57.7934913  34.3034083
  39.2318553  48.5044913  24.3554083  39.3608553  47.7964913  23.8634083
  38.8648553  48.1864913  25.0804083  39.1968553  48.3524913  24.3904083
  48.9248553  56.1854913  24.8124083  48.9838553  56.8354913  25.3914083
  48.7358553  55.4894913  25.3034083  48.9058553  56.1784913  24.9704083
  54.1508553  60.5144913  30.6814083  53.6718553  60.8124913  30.0154083
  53.7948553  59.7384913  30.8594083  54.0278553  60.4434913  30.6094083
  43.4208553  50.7024913  21.3244083  42.9098553  50.7554913  20.6184083
  44.2048553  50.9424913  21.0284083  43.4608553  50.7454913  21.1764083
  48.1478553  58.2324913  29.2434083  47.3008553  58.0384913  29.3244083
  48.4718553  58.0674913  30.0364083  48.0698553  58.1794913  29.3724083
  44.8998553  64.9624913  20.1294083  45.3388553  64.2654913  20.4174083
  45.1068553  65.5864913  20.7024083  44.9958553  64.9514913  20.2564083
  41.9958553  57.9254913  31.5594083  42.7178553  58.4134913  31.5224083
  41.7258553  57.8954913  30.7304083  42.0628553  57.9934913  31.4314083
  45.2258553  53.0964913  28.2944083  46.0718553  52.9064913  28.3924083
  44.8558553  52.3194913  28.1564083  45.2958553  52.9534913  28.2884083
  57.8428553  64.6804913  22.6214083  58.5368553  64.2134913  22.3734083
  57.3038553  64.0824913  22.9584083  57.8658553  64.5224913  22.6344083
  40.0468553  54.4344913  24.9494083  40.5358553  54.1424913  25.6104083
  40.1758553  53.8414913  24.3224083  40.1378553  54.3034913  24.9544083
  55.0818553  57.4564913  31.8004083  55.0748553  56.6804913  32.1984083
  54.2408553  57.6904913  31.7934083  54.9568553  57.3764913  31.8584083
  44.5718553  55.8684913  20.4354083  43.9618553  55.4634913  20.9094083
  44.1858553  55.9864913  19.6624083  44.4248553  55.8254913  20.3914083
  41.3908553  58.9774913  35.8374083  40.9698553  58.4594913  35.2764083
  41.0388553  59.7634913  35.6944083  41.2768553  59.0174913  35.7334083
  56.3378553  57.5274913  29.2374083  56.0518553  57.9284913  29.9574083
  57.1978553  57.4654913  29.3644083  56.4228553  57.5774913  29.3624083
  46.0268553  54.3294913  23.1454083  46.2988553  55.1554913  23.2124083
  45.1638553  54.4044913  23.0494083  45.9398553  54.4624913  23.1404083
  53.9998553  51.4514913  37.7774083  53.4748553  51.9104913  38.3014083
  53.6388553  50.6564913  37.7714083  53.8688553  51.4014913  37.8534083
  39.5068553  50.2994913  29.6814083  39.5508553  50.6434913  28.8804083
  40.2618553  50.5364913  30.0484083  39.6248553  50.3854913  29.6174083
  57.4688553  63.1604913  29.7664083  57.7588553  63.4174913  28.9854083
  58.1638553  63.2564913  30.2854083  57.6148553  63.2124913  29.7274083
  52.4918553  55.0204913  37.8534083  52.5648553  55.1244913  38.7164083
  51.8578553  55.5784913  37.6324083  52.4088553  55.1184913  37.9484083
  54.7598553  55.3394913  36.2184083  55.0788553  56.1254913  36.4214083
  54.3898553  55.0694913  36.9614083  54.7528553  55.4154913  36.3584083
  54.0738553  61.7634913  21.7484083  54.4078553  60.9574913  21.7834083
  53.3188553  61.6914913  22.1784083  54.0118553  61.6334913  21.8174083
  54.5558553  53.5974913  27.4074083  53.8108553  53.2744913  27.7254083
  54.5578553  54.4234913  27.6874083  54.4458553  53.6714913  27.4954083
  57.4578553  55.8814913  38.9534083  57.4058553  55.5404913  38.1524083
  58.1948553  56.3484913  38.9314083  57.5588553  55.9004913  38.8314083
  56.9958553  59.5574913  35.1594083  57.6238553  59.0084913  34.9034083
  56.9348553  60.1224913  34.4974083  57.0798553  59.5604913  35.0234083
  51.4478553  59.6384913  21.1514083  52.1318553  59.1244913  20.9824083
  51.0308553  59.6844913  20.3864083  51.4868553  59.5694913  21.0134083
  46.1298553  60.7884913  32.4554083  45.8318553  61.3804913  33.0224083
  46.1848553  61.2304913  31.7064083  46.0938553  60.9414913  32.4284083
  44.1088553  59.7384913  35.8534083  43.3028553  59.4484913  36.0204083
  44.0198553  60.6064913  35.8594083  43.9768553  59.8234913  35.8784083
  53.4678553  49.9274913  34.8684083  54.2118553  50.3794913  34.8054083
  52.9018553  50.3974913  34.3994083  53.4948553  50.0644913  34.7904083
  48.6458553  57.2114913  31.9464083  49.1218553  57.5854913  32.5744083
  47.8228553  57.3454913  32.2054083  48.5948553  57.2864913  32.0774083
  45.3558553  52.8144913  34.6874083  45.5168553  52.0704913  35.1144083
  45.3108553  52.5654913  33.8524083  45.3728553  52.6674913  34.6274083
  47.9098553  64.6044913  27.1744083  48.4558553  65.2834913  27.2284083
  47.5598553  64.6864913  26.3794083  47.9388553  64.7174913  27.0644083
  54.7528553  47.9074913  32.5384083  54.4728553  48.7324913  32.4944083
  55.4688553  47.9604913  33.0344083  54.8178553  48.0374913  32.6054083
  47.1078553  48.6224913  34.5674083  47.8128553  48.9424913  34.1654083
  47.3488553  47.8154913  34.7944083  47.2468553  48.5504913  34.5414083
  46.0928553  62.8324913  30.5634083  45.4688553  63.4144913  30.3814083
  46.3408553  62.5464913  29.7774083  46.0368553  62.8764913  30.4204083
  50.4018553  59.4664913  37.5524083  51.1588553  59.7524913  37.2264083
  49.8548553  59.5184913  36.8744083  50.4328553  59.5164913  37.4034083
  54.3108553  62.0164913  36.0564083  54.6568553  62.2864913  36.8104083
  54.6048553  62.5984913  35.4764083  54.4058553  62.1424913  36.0824083
  56.1738553  54.1624913  21.3954083  56.5518553  54.8394913  20.9954083
  55.3318553  54.3864913  21.4264083  56.1048553  54.2954913  21.3404083
  47.6868553  57.6084913  20.4784083  46.8818553  57.4314913  20.1934083
  47.6538553  58.4594913  20.6704083  47.5628553  57.7074913  20.4654083
  51.6328553  52.7774913  36.2204083  50.9848553  53.2474913  36.5684083
  52.1978553  52.6884913  36.8794083  51.6208553  52.8334913  36.3694083
  51.3208553  54.3144913  32.5184083  51.6228553  54.7344913  33.2214083
  51.3568553  53.4744913  32.7504083  51.3708553  54.2524913  32.6564083
  48.7458553  64.4814913  36.4434083  49.2238553  63.8814913  36.0274083
  48.3948553  64.0384913  37.1084083  48.7648553  64.3274913  36.4804083
  53.8688553  53.7614913  24.7704083  54.0758553  53.5604913  25.5944083
  54.6248553  54.0294913  24.4284083  54.0108553  53.7714913  24.8414083
  54.8908553  49.8444913  26.2444083  54.1768553  49.3734913  26.4154083
  54.7288553  50.1854913  25.4584083  54.7618553  49.8254913  26.1534083
  55.3338553  57.7884913  24.6244083  55.8098553  57.0594913  24.5764083
  54.5128553  57.5024913  24.5484083  55.2828553  57.6384913  24.6054083
  48.8048553  59.7004913  35.4634083  48.0098553  59.6364913  35.8144083
  48.8758553  60.5474913  35.2684083  48.6978553  59.8154913  35.4864083
  44.6348553  65.9074913  30.7804083  44.6458553  65.9664913  31.6504083
  44.2098553  65.1604913  30.6304083  44.5738553  65.8054913  30.8864083
  42.7928553  51.8024913  23.9354083  42.9188553  51.4734913  23.1374083
  41.9808553  51.5534913  24.1344083  42.6918553  51.7174913  23.8474083
  51.5498553  58.9554913  26.9794083  51.6258553  59.2964913  27.7784083
  51.7188553  58.1084913  27.1004083  51.5858553  58.8804913  27.1154083
  49.0718553  58.2294913  26.5444083  48.7738553  57.9144913  27.3014083
  49.7668553  58.7024913  26.7794083  49.1308553  58.2524913  26.6914083
  49.2938553  62.3474913  34.5714083  49.9808553  62.2334913  35.0964083
  49.4278553  63.1384913  34.2274083  49.4148553  62.4474913  34.5984083
  57.4698553  54.9564913  36.3824083  56.6148553  54.8344913  36.5084083
  57.6228553  54.5614913  35.6194083  57.3658553  54.8794913  36.2884083
  51.9828553  55.6214913  34.9584083  51.7278553  54.9024913  35.3804083
  52.8038553  55.7374913  35.2284083  52.0668553  55.5324913  35.0604083
  41.3988553  65.4054913  36.2224083  40.7448553  64.8364913  36.3204083
  41.0238553  66.1784913  36.3734083  41.2468553  65.4354913  36.2594083
  49.9168553  56.8114913  38.1454083  50.2398553  57.4974913  37.7134083
  49.2128553  57.1344913  38.5474083  49.8598553  56.9604913  38.1404083
  53.0008553  65.1854913  29.0744083  52.5498553  65.8284913  29.4534083
  53.7088553  65.1064913  29.5794083  53.0388553  65.2684913  29.2054083
  49.7018553  60.2754913  32.0044083  49.0078553  60.6774913  32.3474083
  50.3788553  60.7084913  32.3434083  49.6988553  60.3984913  32.1054083
  55.0788553  62.8684913  38.5844083  55.8548553  62.4784913  38.6674083
  54.6098553  62.5324913  39.2394083  55.1238553  62.7614913  38.6934083
  42.7698553  53.8134913  34.3514083  43.1448553  54.4324913  33.8644083
  43.4438553  53.3394913  34.6364083  42.9248553  53.8354913  34.3214083
  56.1038553  54.9014913  24.0664083  56.2068553  54.8434913  23.2024083
  56.8448553  54.5694913  24.3844083  56.2288553  54.8444913  23.9854083
  43.0988553  49.6714913  36.0374083  43.0178553  48.8274913  36.2434083
  42.7848553  49.7154913  35.2244083  43.0408553  49.5534913  35.9474083
  50.0238553  61.8664913  25.1734083  49.8188553  62.6994913  25.0144083
  49.2488553  61.4844913  25.2954083  49.8788553  61.9334913  25.1684083
  55.2058553  55.0474913  33.4224083  55.2038553  54.1844913  33.5464083
  55.2728553  55.3714913  34.2294083  55.2158553  54.9674913  33.5594083
  39.9418553  57.4874913  33.8504083  40.2618553  57.7064913  33.0694083
  39.8418553  56.6224913  33.7954083  39.9738553  57.3924913  33.7274083
  41.3978553  53.4234913  20.4684083  40.7258553  53.4374913  21.0244083
  41.4928553  52.5754913  20.2844083  41.3128553  53.3004913  20.5234083
  51.0848553  49.8474913  37.2044083  51.1768553  50.5594913  37.6984083
  50.4478553  49.4024913  37.6014083  51.0038553  49.8864913  37.3364083
  50.0788553  50.0374913  28.0584083  49.3788553  50.5554913  28.0024083
  50.1168553  49.6574913  27.2744083  49.9808553  50.0584913  27.9344083
  45.3858553  62.1284913  21.5824083  45.8268553  62.2084913  22.3304083
  44.5808553  61.9124913  21.8404083  45.3318553  62.1084913  21.7314083
  53.6768553  50.5534913  30.8584083  54.5318553  50.6524913  31.0034083
  53.3078553  51.1064913  31.4234083  53.7488553  50.6504913  30.9634083
  44.7048553  56.7794913  35.2354083  44.3088553  57.5534913  35.3104083
  44.2988553  56.4064913  34.5594083  44.5868553  56.8384913  35.1464083
  53.9808553  55.8334913  29.3494083  54.6468553  56.3744913  29.5094083
  53.6358553  56.1444913  28.6104083  54.0278553  55.9594913  29.2644083
  54.2938553  63.8994913  25.1564083  54.1198553  63.2454913  25.7064083
  55.0068553  63.6284913  24.7334083  54.3738553  63.7624913  25.1754083
  42.7148553  61.1984913  22.1834083  42.4708553  60.8914913  22.9634083
  42.6818553  60.4954913  21.6674083  42.6738553  61.0494913  22.2224083
  45.5338553  59.4434913  20.9264083  44.7158553  59.1754913  21.0664083
  45.5058553  60.2954913  21.1114083  45.4088553  59.5304913  20.9744083
  45.1338553  49.7564913  32.6854083  44.2698553  49.8404913  32.7654083
  45.3538553  49.2424913  33.3544083  45.0388553  49.6934913  32.7964083
  57.1518553  48.3914913  34.0144083  57.0998553  48.3474913  34.8844083
  57.8388553  47.8884913  33.8244083  57.2458553  48.3114913  34.1144083
  49.2368553  50.5044913  31.0594083  48.4998553  50.0504913  31.1724083
  49.8078553  50.1024913  31.5824083  49.2118553  50.3774913  31.1534083
  51.9688553  61.3524913  32.8474083  52.1748553  61.6534913  33.6394083
  51.9078553  62.0744913  32.3624083  51.9898553  61.5034913  32.8924083
  51.5028553  65.5664913  37.0934083  50.7498553  65.5484913  36.6524083
  51.6708553  66.4184913  37.1774083  51.4168553  65.6894913  37.0404083
  46.7398553  54.8334913  36.2634083  46.4178553  54.2574913  35.6934083
  46.3808553  55.5884913  36.0174083  46.6398553  54.8594913  36.1434083
  47.5358553  48.0854913  20.8904083  47.6138553  48.3324913  20.0574083
  46.7928553  48.4624913  21.1484083  47.4378553  48.1774913  20.8054083
  56.7808553  59.9914913  32.3054083  56.7488553  59.1294913  32.1704083
  56.0878553  60.2934913  31.8714083  56.6738553  59.9084913  32.2214083
  45.1748553  65.1894913  36.5114083  45.2158553  65.3154913  37.3744083
  45.8258553  64.6294913  36.3554083  45.2768553  65.1254913  36.6164083
  54.8858553  63.2514913  31.1024083  55.4128553  63.1684913  30.4114083
  54.4948553  62.4734913  31.1564083  54.9058553  63.1244913  31.0084083
  42.3538553  49.8394913  33.3334083  42.0108553  49.0724913  33.0994083
  41.6588553  50.3634913  33.3974083  42.2008553  49.8034913  33.3084083
  51.3998553  48.6954913  30.3104083  52.0698553  49.2394913  30.4374083
  50.8968553  49.1194913  29.7374083  51.4248553  48.8384913  30.2444083
  42.7678553  63.5724913  37.8714083  43.3628553  64.0034913  38.3434083
  42.4038553  64.1964913  37.3824083  42.8018553  63.7284913  37.8684083
  50.7588553  54.5034913  27.8034083  51.3098553  53.8964913  28.1034083
  50.3338553  54.7664913  28.5184083  50.7778553  54.4524913  27.9524083
  41.0068553  53.1534913  27.2894083  40.6388553  53.4554913  28.0204083
  41.5408553  52.5244913  27.5734083  41.0308553  53.1054913  27.4394083
  52.7288553  56.3344913  24.3654083  52.7968553  55.4844913  24.5464083
  51.9058553  56.4204913  24.0874083  52.6168553  56.2214913  24.3514083
  42.4808553  64.8284913  23.5754083  42.3358553  64.9844913  22.7294083
  43.3468553  64.9074913  23.6534083  42.5878553  64.8634913  23.4624083
  46.6478553  57.2254913  23.3034083  46.7478553  57.3644913  22.4484083
  47.4658553  57.1654913  23.5994083  46.7828553  57.2364913  23.2204083
  55.8078553  65.2894913  20.7834083  56.4448553  65.1554913  21.3644083
  55.4668553  64.4954913  20.6664083  55.8518553  65.1524913  20.8514083
  56.0028553  57.7074913  37.5164083  56.6368553  57.5374913  38.0904083
  56.4198553  58.1104913  36.8644083  56.1578553  57.7424913  37.5054083
  51.8828553  61.5544913  23.1054083  51.6318553  61.4264913  23.9314083
  51.5658553  60.8594913  22.6844083  51.7988553  61.4334913  23.1654083
  56.6278553  52.2714913  38.2544083  56.4318553  52.9154913  38.8094083
  55.9058553  51.7814913  38.2464083  56.4928553  52.2944913  38.3354083
  56.5268553  53.2124913  31.2254083  55.6938553  53.4624913  31.1534083
  56.4708553  52.3724913  31.4544083  56.3958553  53.1254913  31.2484083
  45.7868553  50.2004913  36.4194083  46.0208553  49.6244913  35.8064083
  44.9448553  50.0194913  36.5604083  45.6968553  50.0884913  36.3494083
  53.4138553  57.8184913  38.8714083  54.2848553  57.7824913  38.8354083
  53.1948553  58.2384913  38.1394083  53.5108553  57.8744913  38.7584083
  43.1678553  63.6434913  30.0524083  43.0888553  62.8334913  29.7364083
  42.7238553  64.1304913  29.4804083  43.0908553  63.5954913  29.9214083
  48.7688553  59.7624913  22.5354083  49.4858553  59.4154913  22.1794083
  48.7348553  60.5624913  22.1874083  48.8698553  59.8294913  22.4314083
  40.7398553  65.8874913  33.6334083  41.2328553  65.8314913  34.3514083
  40.9278553  65.1544913  33.1984083  40.8408553  65.7704913  33.6754083
  50.1778553  48.4034913   6.7741673  49.9328553  48.8914913   6.0941673
  51.0408553  48.3304913   6.6741673  50.2688553  48.4644913   6.6591673
  49.9868553  55.3194913  11.4451673  49.4628553  55.9154913  11.8081673
  50.3838553  54.9514913  12.1291673  49.9678553  55.3534913  11.6001673
  39.8558553  59.4594913   6.9011673  39.4148553  59.5774913   7.6441673
  39.5728553  58.6844913   6.6161673  39.7488553  59.3624913   6.9691673
  56.1308553  62.7604913   4.4161673  56.8318553  62.2414913   4.4121673
  55.5438553  62.3154913   3.9471673  56.1478553  62.6174913   4.3461673
  39.5988553  53.2514913   3.4081673  38.8208553  53.4134913   3.0481673
  39.6378553  52.3804913   3.4301673  39.4898553  53.1464913   3.3581673
  42.7378553  58.5144913   2.0801673  42.3458553  58.1434913   1.3941673
  42.6578553  57.9164913   2.7091673  42.6678553  58.3714913   2.0711673
  52.6578553  56.3864913   8.1211673  52.7378553  56.3904913   7.2521673
  52.0738553  55.7544913   8.2701673  52.5828553  56.2934913   8.0151673
  42.3648553  60.1554913   5.9801673  42.9728553  59.9854913   6.5831673
  41.6138553  60.0154913   6.4011673  42.3438553  60.1094913   6.1311673
  46.6468553  49.4904913   5.9291673  46.5768553  50.1674913   5.3831673
  47.3878553  49.1024913   5.6801673  46.7458553  49.5334913   5.8111673
  41.2558553  63.2464913   2.0571673  41.7228553  63.3304913   1.3251673
  41.7108553  62.6684913   2.5261673  41.3918553  63.1734913   2.0181673
  39.7958553  62.1944913  13.1561673  39.9248553  61.9144913  13.9721673
  39.1858553  61.6534913  12.8471673  39.7248553  62.0734913  13.2311673
  46.3698553  59.7194913  18.2231673  46.1338553  59.7164913  19.0631673
  45.6218553  59.5714913  17.7991673  46.2238553  59.6964913  18.2841673
  41.2418553  56.7154913   7.3581673  40.7798553  56.3234913   6.7311673
  41.9418553  56.2024913   7.4501673  41.2768553  56.5824913   7.2791673
  45.7498553  52.3254913  12.7051673  46.4278553  52.3434913  12.1561673
  45.7048553  51.4894913  12.9501673  45.8428553  52.2044913  12.6601673
  46.3518553  62.9114913  15.4861673  46.4898553  63.6714913  15.0791673
  47.1428553  62.5464913  15.5131673  46.4888553  62.9704913  15.4301673
  43.2428553  54.8154913   7.3811673  44.0598553  54.6284913   7.6241673
  42.7658553  54.2014913   7.7771673  43.2928553  54.6974913   7.4761673
  47.4468553  60.7964913   9.9911673  47.7948553  59.9974913  10.0211673
  48.1118553  61.3004913   9.7361673  47.5968553  60.7524913   9.9581673
  47.5038553  60.2454913   6.2021673  47.8348553  59.6014913   6.6881673
  47.7438553  60.0344913   5.3911673  47.5878553  60.1194913   6.1541673
  49.4718553  54.3764913  17.5411673  48.6238553  54.2774913  17.3631673
  49.5008553  55.1214913  17.9951673  49.3508553  54.4724913  17.5821673
  43.8398553  49.9094913   6.6471673  43.5438553  50.4104913   5.9971673
  44.7068553  49.9874913   6.5901673  43.9238553  49.9954913   6.5431673
  54.0298553  47.3364913  16.6551673  53.8718553  48.1054913  16.2731673
  53.2578553  47.1164913  16.9991673  53.8918553  47.4174913  16.6501673
  46.8188553  49.0514913   8.8701673  46.8918553  49.9114913   8.9991673
  46.7808553  48.9764913   8.0021673  46.8238553  49.1674913   8.7611673
  39.6978553  54.4764913  10.3711673  39.4418553  55.3074913  10.2961673
  39.0338553  54.0934913  10.7881673  39.5618553  54.5424913  10.4221673
  39.6078553  64.1864913   8.2711673  39.0158553  64.7444913   7.9581673
  40.0338553  63.9174913   7.5591673  39.5838553  64.2284913   8.1201673
  45.4478553  62.0304913   5.7511673  44.8688553  61.7554913   6.3431673
  46.0718553  61.4214913   5.7761673  45.4548553  61.9004913   5.8421673
  51.5908553  64.3184913   3.2731673  52.3178553  64.7904913   3.3751673
  51.8198553  63.5244913   3.5531673  51.7328553  64.2714913   3.3301673
  49.7588553  64.7104913   5.2631673  49.9728553  65.2374913   5.9251673
  50.5258553  64.5364913   4.8841673  49.9038553  64.7624913   5.3051673
  42.7268553  49.2934913  10.8621673  42.2058553  48.6654913  10.5541673
  43.3178553  48.8564913  11.3331673  42.7378553  49.1354913  10.8861673
  46.0328553  51.4264913  20.1601673  46.1498553  50.9724913  19.4241673
  46.3208553  52.2244913  19.9571673  46.0928553  51.4774913  20.0211673
  41.1528553  62.8564913   6.2021673  41.8088553  62.2814913   6.2171673
  41.5418553  63.6054913   5.9811673  41.3078553  62.8814913   6.1721673
  56.8858553  51.9504913   7.4641673  56.5398553  52.6284913   7.8901673
  56.2498553  51.3524913   7.4801673  56.7408553  51.9624913   7.5291673
  52.1978553  64.7204913  13.5681673  52.9418553  65.1764913  13.5581673
  52.0768553  64.5064913  12.7311673  52.2898553  64.7564913  13.4431673
  41.7658553  51.0234913  19.1441673  40.9878553  50.6334913  19.0721673
  42.2568553  50.6114913  18.5531673  41.7228553  50.9044913  19.0461673
  41.9708553  61.3434913   9.7021673  42.3938553  60.9874913   9.0281673
  42.2948553  60.9214913  10.3941673  42.0808553  61.2284913   9.7051673
  45.2018553  64.1954913   8.9981673  46.0458553  64.2994913   8.8031673
  44.9048553  65.0134913   9.0661673  45.2828553  64.3314913   8.9791673
  48.4148553  48.6664913  18.3121673  48.5928553  47.8574913  18.0371673
  48.2718553  49.1074913  17.5731673  48.4198553  48.6124913  18.1621673
  49.0088553  53.5924913   7.0851673  49.2958553  53.3604913   6.2951673
  49.7408553  53.6714913   7.5541673  49.1588553  53.5694913   7.0381673
  49.7308553  53.9314913   2.2061673  50.0118553  54.7194913   2.4551673
  48.9548553  54.0964913   1.8431673  49.6578553  54.0724913   2.1891673
  53.7718553  65.9054913   3.6731673  54.4368553  65.7574913   3.1281673
  54.1318553  65.8224913   4.4631673  53.9238553  65.8714913   3.7091673
  44.1998553  65.4144913  14.7381673  44.4918553  65.3474913  15.5581673
  43.5738553  64.8094913  14.6931673  44.1508553  65.3154913  14.8531673
  56.5608553  50.2734913  12.8331673  57.3178553  50.3454913  12.4051673
  56.6238553  49.5004913  13.2321673  56.6818553  50.1704913  12.8281673
  39.1138553  51.5714913  16.7301673  39.1098553  52.1584913  17.3761673
  39.7078553  51.8834913  16.1731673  39.2008553  51.7044913  16.7431673
  51.4518553  61.9054913  17.2721673  51.4178553  62.2874913  18.0561673
  52.3058553  61.8634913  17.1011673  51.5728553  61.9554913  17.3631673
  48.5898553  62.1024913   2.0221673  48.4088553  62.6474913   2.6791673
  49.3558553  62.3924913   1.7211673  48.6758553  62.2264913   2.0751673
  52.0968553  49.9984913   3.0761673  52.6368553  49.3164913   3.1521673
  52.1588553  50.3964913   3.8501673  52.1858553  49.9564913   3.2021673
  40.0508553  51.1664913   5.6451673  39.9368553  50.3024913   5.6761673
  39.5758553  51.4604913   6.3151673  39.9638553  51.0824913   5.7481673
  42.1928553  63.5764913  13.8601673  41.4948553  63.0684913  13.9861673
  42.4528553  63.3714913  13.0521673  42.1278553  63.4714913  13.7591673
  49.3548553  52.3744913   4.3901673  48.8468553  51.7124913   4.1361673
  49.4068553  52.8784913   3.6801673  49.2878553  52.3514913   4.2481673
  49.9038553  65.0694913  14.7701673  50.6718553  64.9894913  14.3641673
  49.3208553  64.9484913  14.1321673  49.9308553  65.0394913  14.6161673
  49.3548553  49.3154913   4.2811673  48.8998553  48.9134913   3.6551673
  50.1278553  49.4704913   3.9061673  49.4018553  49.2794913   4.1331673
  56.1808553  65.6724913   7.6711673  55.7258553  66.3894913   7.8721673
  55.5668553  65.1014913   7.4291673  56.0228553  65.6944913   7.6651673
  47.9528553  51.6824913   8.8031673  48.0268553  52.2504913   8.1451673
  48.0738553  52.1744913   9.5131673  47.9808553  51.8394913   8.8111673
  53.1778553  61.5174913   7.2151673  53.8788553  61.0354913   7.4041673
  52.5178553  60.9484913   7.2601673  53.1838553  61.3624913   7.2491673
  43.5538553  62.4274913  16.4271673  44.3948553  62.4904913  16.2051673
  43.5168553  62.8244913  17.2031673  43.6728553  62.4954913  16.5091673
  42.5608553  47.5054913   7.1511673  43.0968553  48.1934913   7.1411673
  42.5638553  47.2314913   6.3231673  42.6398553  47.5664913   7.0271673
  45.5168553  57.9384913  11.1761673  45.6888553  57.7284913  12.0051673
  44.8618553  57.4044913  10.9601673  45.4458553  57.8284913  11.2671673
  51.7448553  51.8524913  14.6911673  51.6498553  52.1714913  15.4971673
  51.1518553  51.2134913  14.6531673  51.6428553  51.8044913  14.8051673
  46.2668553  57.8764913  13.7661673  46.3198553  58.7234913  13.9681673
  45.9818553  57.5064913  14.5031673  46.2328553  57.9464913  13.9041673
  52.4438553  58.5714913  12.8961673  51.9298553  58.1594913  13.4671673
  52.3178553  59.4154913  13.0771673  52.3498553  58.6354913  13.0071673
  53.0008553  47.7964913   7.5271673  53.0498553  47.4784913   8.3381673
  53.3238553  47.1524913   7.0341673  53.0558553  47.6544913   7.5741673
  39.0878553  62.2474913  19.9771673  39.8438553  62.5964913  20.2351673
  39.2648553  61.3944913  19.9201673  39.2258553  62.1724913  20.0071673
  55.4648553  52.0324913  15.8351673  56.2368553  51.8074913  16.1721673
  54.9898553  52.2494913  16.5351673  55.5088553  52.0314913  15.9881673
  43.0088553  51.3154913   8.8051673  43.2808553  50.8854913   8.0971673
  42.8328553  50.6794913   9.3761673  43.0228553  51.1584913   8.7851673
  55.6968553  59.0104913   3.0231673  55.8158553  58.7234913   3.8381673
  56.5038553  59.0314913   2.6931673  55.8328553  58.9714913   3.0951673
  42.8328553  58.7424913   8.3541673  43.6838553  58.6624913   8.1811673
  42.4758553  58.0604913   7.9421673  42.9058553  58.6294913   8.2671673
  41.5998553  65.4674913   9.5911673  40.9268553  64.9694913   9.3461673
  42.0028553  65.6524913   8.8401673  41.5598553  65.4214913   9.4441673
  41.1498553  52.4174913  11.8871673  41.9928553  52.6374913  11.8441673
  40.7608553  52.9904913  11.3561673  41.2168553  52.5344913  11.8021673
  57.9308553  63.5194913  17.2771673  57.2488553  63.8294913  16.8301673
  57.5618553  63.0614913  17.9221673  57.7748553  63.4974913  17.3061673
  53.5918553  55.5474913   2.6081673  53.3718553  56.2784913   2.1861673
  53.1438553  55.5984913   3.3551673  53.4928553  55.6624913   2.6561673
  45.2008553  58.7494913   6.5891673  45.9138553  59.2444913   6.6791673
  45.4228553  58.1824913   5.9631673  45.3388553  58.7384913   6.5101673
  57.7788553  50.4084913   2.0611673  57.1168553  49.8404913   2.0841673
  57.5858553  50.9204913   1.3811673  57.6528553  50.4004913   1.9641673
  39.3568553  60.3924913   9.9091673  38.6898553  60.8804913  10.1851673
  40.0368553  60.9374913   9.9381673  39.3588553  60.5444913   9.9541673
  47.0038553  54.1024913  20.0051673  46.5198553  54.6794913  20.4471673
  46.9758553  54.3974913  19.1841673  46.9278553  54.2314913  19.9491673
  58.1018553  54.7864913  14.6171673  58.3168553  53.9864913  14.3411673
  57.2518553  54.8464913  14.4281673  58.0078553  54.6774913  14.5481673
  39.4228553  57.0764913   5.0121673  39.2378553  56.2374913   5.1641673
  40.0818553  57.0404913   4.4421673  39.4928553  56.9474913   4.9501673
  55.7808553  49.9664913   4.3401673  56.5268553  49.5594913   4.5391673
  56.0438553  50.6814913   3.9151673  55.9298553  50.0124913   4.3071673
  49.7238553  62.4524913   8.9161673  49.2008553  63.0864913   8.6231673
  50.0338553  62.0884913   8.1871673  49.6918553  62.4924913   8.7651673
  39.5948553  61.2404913   4.5871673  40.1468553  61.8094913   4.9511673
  39.3628553  60.7254913   5.2521673  39.6418553  61.2484913   4.7391673
  43.7988553  60.2404913  11.6761673  44.2658553  60.5294913  12.3541673
  44.3708553  59.7624913  11.2221673  43.9528553  60.2124913  11.7091673
  52.2348553  52.2544913   9.4131673  52.5788553  52.4064913  10.2001673
  51.7818553  51.5164913   9.5261673  52.2188553  52.1674913   9.5461673
  39.4248553  59.6894913   2.2151673  40.1808553  59.2574913   2.2731673
  39.4398553  60.2214913   2.9061673  39.5388553  59.7044913   2.3261673
  40.3648553  57.9104913  10.2201673  40.7958553  57.7814913   9.4731673
  40.1598553  58.7584913  10.1941673  40.3978553  58.0164913  10.1061673
  46.7108553  51.4744913   3.8701673  46.7088553  51.3574913   3.0051673
  46.5298553  52.3224913   3.9621673  46.6838553  51.5824913   3.7561673
  55.7648553  63.9014913  15.3671673  55.0938553  64.4154913  15.5851673
  55.8278553  64.0014913  14.5031673  55.6748553  63.9924913  15.2721673
  44.4488553  61.4264913   8.5021673  44.5748553  62.2694913   8.6891673
  45.1168553  61.0274913   8.8981673  44.5668553  61.4924913   8.5881673
  42.5788553  54.9094913  18.3641673  42.0428553  54.4034913  18.8321673
  42.5988553  54.5194913  17.5841673  42.5018553  54.7764913  18.3181673
  43.0638553  54.3064913   3.5041673  42.9358553  53.8584913   4.2421673
  42.4818553  53.9644913   2.9521673  42.9588553  54.1894913   3.5321673
  43.2308553  56.1364913  10.1031673  42.4498553  56.0774913   9.7201673
  43.3028553  55.3844913  10.5401673  43.1258553  56.0174913  10.1111673
  43.6608553  55.8734913  13.5711673  43.6858553  55.1984913  13.0201673
  43.0148553  56.3694913  13.2591673  43.5698553  55.8464913  13.4441673
  53.5558553  53.5864913  11.9671673  52.8938553  53.9144913  12.4301673
  53.7428553  54.2204913  11.3981673  53.4858553  53.7284913  11.9511673
  47.7608553  64.6504913  12.9631673  47.4838553  64.0094913  12.4401673
  47.5528553  65.3764913  12.5251673  47.6898553  64.6634913  12.8211673
  50.2008553  49.4924913  15.3961673  50.3498553  48.6674913  15.1531673
  50.5798553  49.5474913  16.1801673  50.2788553  49.3784913  15.4761673
  51.7488553  51.5554913   5.4781673  52.2388553  52.2724913   5.4011673
  50.9588553  51.8164913   5.2151673  51.7048553  51.6994913   5.4281673
  41.4598553  57.2284913  19.1301673  41.4228553  57.7294913  18.4161673
  41.7908553  56.4764913  18.8351673  41.5028553  57.1904913  18.9811673
  53.0628553  59.4334913  17.3881673  53.5468553  60.1514913  17.4861673
  53.4568553  59.0064913  16.7371673  53.1928553  59.4764913  17.3061673
  47.3588553  62.2784913  18.5651673  47.7128553  62.1004913  19.3421673
  46.9228553  61.5494913  18.3661673  47.3468553  62.1444913  18.6511673
  48.3308553  53.0254913  11.2031673  48.8108553  53.7244913  11.4111673
  48.7038553  52.3784913  11.6541673  48.4568553  53.0334913  11.3001673
  50.5198553  56.1944913   3.4771673  50.5118553  56.9164913   2.9871673
  49.8808553  56.3294913   4.0541673  50.4248553  56.3214913   3.4901673
  55.4918553  60.0644913   7.4581673  55.8478553  59.7144913   8.1731673
  55.4838553  59.4034913   6.8881673  55.5438553  59.9144913   7.4791673
  51.5368553  63.1304913  11.3021673  50.9338553  62.8344913  10.7451673
  52.0818553  63.5824913  10.7931673  51.5278553  63.1534913  11.1441673
  51.5498553  59.9814913  10.7021673  50.7528553  60.2054913  10.9761673
  51.8078553  59.3874913  11.2871673  51.4698553  59.9264913  10.8291673
  45.4418553  64.7934913   5.1501673  45.2948553  64.0174913   5.5211673
  46.1308553  64.6464913   4.6351673  45.5218553  64.6564913   5.1291673
  45.1128553  48.5364913   3.1381673  45.2098553  48.4294913   3.9991673
  44.4048553  49.0424913   3.0731673  45.0228553  48.5954913   3.2561673
  47.7338553  64.3094913   3.5521673  48.3558553  64.4724913   4.1421673
  47.7698553  65.0004913   3.0201673  47.8308553  64.4354913   3.5611673
  54.8098553  57.9794913  15.5481673  54.8648553  58.1044913  14.6861673
  55.5628553  58.2994913  15.8501673  54.9288553  58.0444913  15.4651673
  51.0008553  63.3284913  19.8251673  51.1648553  63.6114913  20.6341673
  51.2638553  63.9894913  19.3201673  51.0638553  63.4684913  19.8701673
  55.8418553  48.2774913  18.5351673  55.2048553  47.8774913  18.0931673
  55.8678553  47.8464913  19.2931673  55.7518553  48.1554913  18.5811673
  42.2348553  56.8434913   4.3811673  42.5588553  56.0644913   4.1591673
  42.8808553  57.2114913   4.8361673  42.3778553  56.7824913   4.4151673
  50.5408553  57.7854913  15.1481673  50.3858553  58.3954913  15.7521673
  51.0748553  57.2274913  15.5541673  50.5968553  57.7934913  15.2971673
  39.2318553  48.5044913   5.3491673  39.3608553  47.7964913   4.8571673
  38.8648553  48.1864913   6.0741673  39.1968553  48.3524913   5.3841673
  48.9248553  56.1854913   5.8061673  48.9838553  56.8354913   6.3851673
  48.7358553  55.4894913   6.2971673  48.9058553  56.1784913   5.9641673
  54.1508553  60.5144913  11.6751673  53.6718553  60.8124913  11.0091673
  53.7948553  59.7384913  11.8531673  54.0278553  60.4434913  11.6031673
  43.4208553  50.7024913   2.3181673  42.9098553  50.7554913   1.6121673
  44.2048553  50.9424913   2.0221673  43.4608553  50.7454913   2.1701673
  48.1478553  58.2324913  10.2371673  47.3008553  58.0384913  10.3181673
  48.4718553  58.0674913  11.0301673  48.0698553  58.1794913  10.3661673
  41.9958553  57.9254913  12.5531673  42.7178553  58.4134913  12.5161673
  41.7258553  57.8954913  11.7241673  42.0628553  57.9934913  12.4251673
  45.2258553  53.0964913   9.2881673  46.0718553  52.9064913   9.3861673
  44.8558553  52.3194913   9.1501673  45.2958553  52.9534913   9.2821673
  57.8428553  64.6804913   3.6151673  58.5368553  64.2134913   3.3671673
  57.3038553  64.0824913   3.9521673  57.8658553  64.5224913   3.6281673
  40.0468553  54.4344913   5.9431673  40.5358553  54.1424913   6.6041673
  40.1758553  53.8414913   5.3161673  40.1378553  54.3034913   5.9481673
  55.0818553  57.4564913  12.7941673  55.0748553  56.6804913  13.1921673
  54.2408553  57.6904913  12.7871673  54.9568553  57.3764913  12.8521673
  41.3908553  58.9774913  16.8311673  40.9698553  58.4594913  16.2701673
  41.0388553  59.7634913  16.6881673  41.2768553  59.0174913  16.7271673
  56.3378553  57.5274913  10.2311673  56.0518553  57.9284913  10.9511673
  57.1978553  57.4654913  10.3581673  56.4228553  57.5774913  10.3561673
  46.0268553  54.3294913   4.1391673  46.2988553  55.1554913   4.2061673
  45.1638553  54.4044913   4.0431673  45.9398553  54.4624913   4.1341673
  53.9998553  51.4514913  18.7711673  53.4748553  51.9104913  19.2951673
  53.6388553  50.6564913  18.7651673  53.8688553  51.4014913  18.8471673
  39.5068553  50.2994913  10.6751673  39.5508553  50.6434913   9.8741673
  40.2618553  50.5364913  11.0421673  39.6248553  50.3854913  10.6111673
  57.4688553  63.1604913  10.7601673  57.7588553  63.4174913   9.9791673
  58.1638553  63.2564913  11.2791673  57.6148553  63.2124913  10.7211673
  52.4918553  55.0204913  18.8471673  52.5648553  55.1244913  19.7101673
  51.8578553  55.5784913  18.6261673  52.4088553  55.1184913  18.9421673
  54.7598553  55.3394913  17.2121673  55.0788553  56.1254913  17.4151673
  54.3898553  55.0694913  17.9551673  54.7528553  55.4154913  17.3521673
  54.0738553  61.7634913   2.7421673  54.4078553  60.9574913   2.7771673
  53.3188553  61.6914913   3.1721673  54.0118553  61.6334913   2.8111673
  54.5558553  53.5974913   8.4011673  53.8108553  53.2744913   8.7191673
  54.5578553  54.4234913   8.6811673  54.4458553  53.6714913   8.4891673
  57.4578553  55.8814913  19.9471673  57.4058553  55.5404913  19.1461673
  58.1948553  56.3484913  19.9251673  57.5588553  55.9004913  19.8251673
  56.9958553  59.5574913  16.1531673  57.6238553  59.0084913  15.8971673
  56.9348553  60.1224913  15.4911673  57.0798553  59.5604913  16.0171673
  51.4478553  59.6384913   2.1451673  52.1318553  59.1244913   1.9761673
  51.0308553  59.6844913   1.3801673  51.4868553  59.5694913   2.0071673
  46.1298553  60.7884913  13.4491673  45.8318553  61.3804913  14.0161673
  46.1848553  61.2304913  12.7001673  46.0938553  60.9414913  13.4221673
  44.1088553  59.7384913  16.8471673  43.3028553  59.4484913  17.0141673
  44.0198553  60.6064913  16.8531673  43.9768553  59.8234913  16.8721673
  53.4678553  49.9274913  15.8621673  54.2118553  50.3794913  15.7991673
  52.9018553  50.3974913  15.3931673  53.4948553  50.0644913  15.7841673
  48.6458553  57.2114913  12.9401673  49.1218553  57.5854913  13.5681673
  47.8228553  57.3454913  13.1991673  48.5948553  57.2864913  13.0711673
  45.3558553  52.8144913  15.6811673  45.5168553  52.0704913  16.1081673
  45.3108553  52.5654913  14.8461673  45.3728553  52.6674913  15.6211673
  47.9098553  64.6044913   8.1681673  48.4558553  65.2834913   8.2221673
  47.5598553  64.6864913   7.3731673  47.9388553  64.7174913   8.0581673
  54.7528553  47.9074913  13.5321673  54.4728553  48.7324913  13.4881673
  55.4688553  47.9604913  14.0281673  54.8178553  48.0374913  13.5991673
  47.1078553  48.6224913  15.5611673  47.8128553  48.9424913  15.1591673
  47.3488553  47.8154913  15.7881673  47.2468553  48.5504913  15.5351673
  46.0928553  62.8324913  11.5571673  45.4688553  63.4144913  11.3751673
  46.3408553  62.5464913  10.7711673  46.0368553  62.8764913  11.4141673
  50.4018553  59.4664913  18.5461673  51.1588553  59.7524913  18.2201673
  49.8548553  59.5184913  17.8681673  50.4328553  59.5164913  18.3971673
  54.3108553  62.0164913  17.0501673  54.6568553  62.2864913  17.8041673
  54.6048553  62.5984913  16.4701673  54.4058553  62.1424913  17.0761673
  56.1738553  54.1624913   2.3891673  56.5518553  54.8394913   1.9891673
  55.3318553  54.3864913   2.4201673  56.1048553  54.2954913   2.3341673
  43.6168553  53.6754913  11.6221673  44.0568553  53.5724913  10.8761673
  44.1618553  53.3624913  12.2271673  43.7618553  53.6144913  11.6011673
  51.6328553  52.7774913  17.2141673  50.9848553  53.2474913  17.5621673
  52.1978553  52.6884913  17.8731673  51.6208553  52.8334913  17.3631673
  51.3208553  54.3144913  13.5121673  51.6228553  54.7344913  14.2151673
  51.3568553  53.4744913  13.7441673  51.3708553  54.2524913  13.6501673
  48.7458553  64.4814913  17.4371673  49.2238553  63.8814913  17.0211673
  48.3948553  64.0384913  18.1021673  48.7648553  64.3274913  17.4741673
  53.8688553  53.7614913   5.7641673  54.0758553  53.5604913   6.5881673
  54.6248553  54.0294913   5.4221673  54.0108553  53.7714913   5.8351673
  47.1638553  48.6604913  11.6691673  46.3378553  48.5114913  11.9061673
  47.1238553  48.6954913  10.7981673  47.0358553  48.6434913  11.5751673
  54.8908553  49.8444913   7.2381673  54.1768553  49.3734913   7.4091673
  54.7288553  50.1854913   6.4521673  54.7618553  49.8254913   7.1471673
  55.3338553  57.7884913   5.6181673  55.8098553  57.0594913   5.5701673
  54.5128553  57.5024913   5.5421673  55.2828553  57.6384913   5.5991673
  48.8048553  59.7004913  16.4571673  48.0098553  59.6364913  16.8081673
  48.8758553  60.5474913  16.2621673  48.6978553  59.8154913  16.4801673
  39.7288553  49.0584913  17.7041673  39.5888553  49.8534913  17.3731673
  38.9428553  48.8154913  17.9931673  39.5918553  49.1404913  17.6981673
  44.6348553  65.9074913  11.7741673  44.6458553  65.9664913  12.6441673
  44.2098553  65.1604913  11.6241673  44.5738553  65.8054913  11.8801673
  42.7928553  51.8024913   4.9291673  42.9188553  51.4734913   4.1311673
  41.9808553  51.5534913   5.1281673  42.6918553  51.7174913   4.8411673
  51.5498553  58.9554913   7.9731673  51.6258553  59.2964913   8.7721673
  51.7188553  58.1084913   8.0941673  51.5858553  58.8804913   8.1091673
  49.0718553  58.2294913   7.5381673  48.7738553  57.9144913   8.2951673
  49.7668553  58.7024913   7.7731673  49.1308553  58.2524913   7.6851673
  49.2938553  62.3474913  15.5651673  49.9808553  62.2334913  16.0901673
  49.4278553  63.1384913  15.2211673  49.4148553  62.4474913  15.5921673
  57.4698553  54.9564913  17.3761673  56.6148553  54.8344913  17.5021673
  57.6228553  54.5614913  16.6131673  57.3658553  54.8794913  17.2821673
  51.9828553  55.6214913  15.9521673  51.7278553  54.9024913  16.3741673
  52.8038553  55.7374913  16.2221673  52.0668553  55.5324913  16.0541673
  41.3988553  65.4054913  17.2161673  40.7448553  64.8364913  17.3141673
  41.0238553  66.1784913  17.3671673  41.2468553  65.4354913  17.2531673
  49.9168553  56.8114913  19.1391673  50.2398553  57.4974913  18.7071673
  49.2128553  57.1344913  19.5411673  49.8598553  56.9604913  19.1341673
  53.0008553  65.1854913  10.0681673  52.5498553  65.8284913  10.4471673
  53.7088553  65.1064913  10.5731673  53.0388553  65.2684913  10.1991673
  49.7018553  60.2754913  12.9981673  49.0078553  60.6774913  13.3411673
  50.3788553  60.7084913  13.3371673  49.6988553  60.3984913  13.0991673
  55.0788553  62.8684913  19.5781673  55.8548553  62.4784913  19.6611673
  54.6098553  62.5324913  20.2331673  55.1238553  62.7614913  19.6871673
  42.7698553  53.8134913  15.3451673  43.1448553  54.4324913  14.8581673
  43.4438553  53.3394913  15.6301673  42.9248553  53.8354913  15.3151673
  40.5448553  52.2614913  14.6201673  40.6218553  52.0924913  13.7671673
  41.2908553  52.6674913  14.8171673  40.6658553  52.2964913  14.5231673
  56.1038553  54.9014913   5.0601673  56.2068553  54.8434913   4.1961673
  56.8448553  54.5694913   5.3781673  56.2288553  54.8444913   4.9791673
  43.0988553  49.6714913  17.0311673  43.0178553  48.8274913  17.2371673
  42.7848553  49.7154913  16.2181673  43.0408553  49.5534913  16.9411673
  50.0238553  61.8664913   6.1671673  49.8188553  62.6994913   6.0081673
  49.2488553  61.4844913   6.2891673  49.8788553  61.9334913   6.1621673
  55.2058553  55.0474913  14.4161673  55.2038553  54.1844913  14.5401673
  55.2728553  55.3714913  15.2231673  55.2158553  54.9674913  14.5531673
  39.9418553  57.4874913  14.8441673  40.2618553  57.7064913  14.0631673
  39.8418553  56.6224913  14.7891673  39.9738553  57.3924913  14.7211673
  51.0848553  49.8474913  18.1981673  51.1768553  50.5594913  18.6921673
  50.4478553  49.4024913  18.5951673  51.0038553  49.8864913  18.3301673
  50.0788553  50.0374913   9.0521673  49.3788553  50.5554913   8.9961673
  50.1168553  49.6574913   8.2681673  49.9808553  50.0584913   8.9281673
  45.3858553  62.1284913   2.5761673  45.8268553  62.2084913   3.3241673
  44.5808553  61.9124913   2.8341673  45.3318553  62.1084913   2.7251673
  53.6768553  50.5534913  11.8521673  54.5318553  50.6524913  11.9971673
  53.3078553  51.1064913  12.4171673  53.7488553  50.6504913  11.9571673
  44.7048553  56.7794913  16.2291673  44.3088553  57.5534913  16.3041673
  44.2988553  56.4064913  15.5531673  44.5868553  56.8384913  16.1401673
  53.9808553  55.8334913  10.3431673  54.6468553  56.3744913  10.5031673
  53.6358553  56.1444913   9.6041673  54.0278553  55.9594913  10.2581673
  54.2938553  63.8994913   6.1501673  54.1198553  63.2454913   6.7001673
  55.0068553  63.6284913   5.7271673  54.3738553  63.7624913   6.1691673
  42.7148553  61.1984913   3.1771673  42.4708553  60.8914913   3.9571673
  42.6818553  60.4954913   2.6611673  42.6738553  61.0494913   3.2161673
  45.5338553  59.4434913   1.9201673  44.7158553  59.1754913   2.0601673
  45.5058553  60.2954913   2.1051673  45.4088553  59.5304913   1.9681673
  45.1338553  49.7564913  13.6791673  44.2698553  49.8404913  13.7591673
  45.3538553  49.2424913  14.3481673  45.0388553  49.6934913  13.7901673
  57.1518553  48.3914913  15.0081673  57.0998553  48.3474913  15.8781673
  57.8388553  47.8884913  14.8181673  57.2458553  48.3114913  15.1081673
  49.2368553  50.5044913  12.0531673  48.4998553  50.0504913  12.1661673
  49.8078553  50.1024913  12.5761673  49.2118553  50.3774913  12.1471673
  51.9688553  61.3524913  13.8411673  52.1748553  61.6534913  14.6331673
  51.9078553  62.0744913  13.3561673  51.9898553  61.5034913  13.8861673
  51.5028553  65.5664913  18.0871673  50.7498553  65.5484913  17.6461673
  51.6708553  66.4184913  18.1711673  51.4168553  65.6894913  18.0341673
  46.7398553  54.8334913  17.2571673  46.4178553  54.2574913  16.6871673
  46.3808553  55.5884913  17.0111673  46.6398553  54.8594913  17.1371673
  56.7808553  59.9914913  13.2991673  56.7488553  59.1294913  13.1641673
  56.0878553  60.2934913  12.8651673  56.6738553  59.9084913  13.2151673
  45.1748553  65.1894913  17.5051673  45.2158553  65.3154913  18.3681673
  45.8258553  64.6294913  17.3491673  45.2768553  65.1254913  17.6101673
  54.8858553  63.2514913  12.0961673  55.4128553  63.1684913  11.4051673
  54.4948553  62.4734913  12.1501673  54.9058553  63.1244913  12.0021673
  42.3538553  49.8394913  14.3271673  42.0108553  49.0724913  14.0931673
  41.6588553  50.3634913  14.3911673  42.2008553  49.8034913  14.3021673
  51.3998553  48.6954913  11.3041673  52.0698553  49.2394913  11.4311673
  50.8968553  49.1194913  10.7311673  51.4248553  48.8384913  11.2381673
  42.7678553  63.5724913  18.8651673  43.3628553  64.0034913  19.3371673
  42.4038553  64.1964913  18.3761673  42.8018553  63.7284913  18.8621673
  50.7588553  54.5034913   8.7971673  51.3098553  53.8964913   9.0971673
  50.3338553  54.7664913   9.5121673  50.7778553  54.4524913   8.9461673
  41.0068553  53.1534913   8.2831673  40.6388553  53.4554913   9.0141673
  41.5408553  52.5244913   8.5671673  41.0308553  53.1054913   8.4331673
  40.6948553  61.5614913  15.7941673  40.1208553  61.9774913  16.3031673
  41.4278553  62.0264913  15.8891673  40.7188553  61.6914913  15.8831673
  52.7288553  56.3344913   5.3591673  52.7968553  55.4844913   5.5401673
  51.9058553  56.4204913   5.0811673  52.6168553  56.2214913   5.3451673
  42.4808553  64.8284913   4.5691673  42.3358553  64.9844913   3.7231673
  43.3468553  64.9074913   4.6471673  42.5878553  64.8634913   4.4561673
  46.6478553  57.2254913   4.2971673  46.7478553  57.3644913   3.4421673
  47.4658553  57.1654913   4.5931673  46.7828553  57.2364913   4.2141673
  55.8078553  65.2894913   1.7771673  56.4448553  65.1554913   2.3581673
  55.4668553  64.4954913   1.6601673  55.8518553  65.1524913   1.8451673
  56.0028553  57.7074913  18.5101673  56.6368553  57.5374913  19.0841673
  56.4198553  58.1104913  17.8581673  56.1578553  57.7424913  18.4991673
  51.8828553  61.5544913   4.0991673  51.6318553  61.4264913   4.9251673
  51.5658553  60.8594913   3.6781673  51.7988553  61.4334913   4.1591673
  56.6278553  52.2714913  19.2481673  56.4318553  52.9154913  19.8031673
  55.9058553  51.7814913  19.2401673  56.4928553  52.2944913  19.3291673
  56.5268553  53.2124913  12.2191673  55.6938553  53.4624913  12.1471673
  56.4708553  52.3724913  12.4481673  56.3958553  53.1254913  12.2421673
  45.7868553  50.2004913  17.4131673  46.0208553  49.6244913  16.8001673
  44.9448553  50.0194913  17.5541673  45.6968553  50.0884913  17.3431673
  53.4138553  57.8184913  19.8651673  54.2848553  57.7824913  19.8291673
  53.1948553  58.2384913  19.1331673  53.5108553  57.8744913  19.7521673
  43.1678553  63.6434913  11.0461673  43.0888553  62.8334913  10.7301673
  42.7238553  64.1304913  10.4741673  43.0908553  63.5954913  10.9151673
  48.7688553  59.7624913   3.5291673  49.4858553  59.4154913   3.1731673
  48.7348553  60.5624913   3.1811673  48.8698553  59.8294913   3.4251673
  40.7398553  65.8874913  14.6271673  41.2328553  65.8314913  15.3451673
  40.9278553  65.1544913  14.1921673  40.8408553  65.7704913  14.6691673
  50.1778553  29.9253833  63.7928903  49.9328553  30.4133833  63.1128903
  51.0408553  29.8523833  63.6928903  50.2688553  29.9863833  63.6778903
  49.9868553  36.8413833  68.4638903  49.4628553  37.4373833  68.8268903
  50.3838553  36.4733833  69.1478903  49.9678553  36.8753833  68.6188903
  39.8558553  40.9813833  63.9198903  39.4148553  41.0993833  64.6628903
  39.5728553  40.2063833  63.6348903  39.7488553  40.8843833  63.9878903
  56.1308553  44.2823833  61.4348903  56.8318553  43.7633833  61.4308903
  55.5438553  43.8373833  60.9658903  56.1478553  44.1393833  61.3648903
  39.5988553  34.7733833  60.4268903  38.8208553  34.9353833  60.0668903
  39.6378553  33.9023833  60.4488903  39.4898553  34.6683833  60.3768903
  42.7378553  40.0363833  59.0988903  42.3458553  39.6653833  58.4128903
  42.6578553  39.4383833  59.7278903  42.6678553  39.8933833  59.0898903
  52.6578553  37.9083833  65.1398903  52.7378553  37.9123833  64.2708903
  52.0738553  37.2763833  65.2888903  52.5828553  37.8153833  65.0338903
  46.6468553  31.0123833  62.9478903  46.5768553  31.6893833  62.4018903
  47.3878553  30.6243833  62.6988903  46.7458553  31.0553833  62.8298903
  41.2558553  44.7683833  59.0758903  41.7228553  44.8523833  58.3438903
  41.7108553  44.1903833  59.5448903  41.3918553  44.6953833  59.0368903
  39.7958553  43.7163833  70.1748903  39.9248553  43.4363833  70.9908903
  39.1858553  43.1753833  69.8658903  39.7248553  43.5953833  70.2498903
  46.3698553  41.2413833  75.2418903  46.1338553  41.2383833  76.0818903
  45.6218553  41.0933833  74.8178903  46.2238553  41.2183833  75.3028903
  41.2418553  38.2373833  64.3768903  40.7798553  37.8453833  63.7498903
  41.9418553  37.7243833  64.4688903  41.2768553  38.1043833  64.2978903
  45.7498553  33.8473833  69.7238903  46.4278553  33.8653833  69.1748903
  45.7048553  33.0113833  69.9688903  45.8428553  33.7263833  69.6788903
  46.3518553  44.4333833  72.5048903  46.4898553  45.1933833  72.0978903
  47.1428553  44.0683833  72.5318903  46.4888553  44.4923833  72.4488903
  43.2428553  36.3373833  64.3998903  44.0598553  36.1503833  64.6428903
  42.7658553  35.7233833  64.7958903  43.2928553  36.2193833  64.4948903
  47.4468553  42.3183833  67.0098903  47.7948553  41.5193833  67.0398903
  48.1118553  42.8223833  66.7548903  47.5968553  42.2743833  66.9768903
  47.5038553  41.7673833  63.2208903  47.8348553  41.1233833  63.7068903
  47.7438553  41.5563833  62.4098903  47.5878553  41.6413833  63.1728903
  49.4718553  35.8983833  74.5598903  48.6238553  35.7993833  74.3818903
  49.5008553  36.6433833  75.0138903  49.3508553  35.9943833  74.6008903
  43.8398553  31.4313833  63.6658903  43.5438553  31.9323833  63.0158903
  44.7068553  31.5093833  63.6088903  43.9238553  31.5173833  63.5618903
  54.0298553  28.8583833  73.6738903  53.8718553  29.6273833  73.2918903
  53.2578553  28.6383833  74.0178903  53.8918553  28.9393833  73.6688903
  46.8188553  30.5733833  65.8888903  46.8918553  31.4333833  66.0178903
  46.7808553  30.4983833  65.0208903  46.8238553  30.6893833  65.7798903
  51.4918553  33.4993833  58.1878903  51.0418553  34.1803833  58.4948903
  51.6058553  32.9953833  58.8908903  51.4428553  33.5253833  58.3368903
  39.6978553  35.9983833  67.3898903  39.4418553  36.8293833  67.3148903
  39.0338553  35.6153833  67.8068903  39.5618553  36.0643833  67.4408903
  39.6078553  45.7083833  65.2898903  39.0158553  46.2663833  64.9768903
  40.0338553  45.4393833  64.5778903  39.5838553  45.7503833  65.1388903
  45.4478553  43.5523833  62.7698903  44.8688553  43.2773833  63.3618903
  46.0718553  42.9433833  62.7948903  45.4548553  43.4223833  62.8608903
  51.5908553  45.8403833  60.2918903  52.3178553  46.3123833  60.3938903
  51.8198553  45.0463833  60.5718903  51.7328553  45.7933833  60.3488903
  49.7588553  46.2323833  62.2818903  49.9728553  46.7593833  62.9438903
  50.5258553  46.0583833  61.9028903  49.9038553  46.2843833  62.3238903
  42.7268553  30.8153833  67.8808903  42.2058553  30.1873833  67.5728903
  43.3178553  30.3783833  68.3518903  42.7378553  30.6573833  67.9048903
  41.1528553  44.3783833  63.2208903  41.8088553  43.8033833  63.2358903
  41.5418553  45.1273833  62.9998903  41.3078553  44.4033833  63.1908903
  56.8858553  33.4723833  64.4828903  56.5398553  34.1503833  64.9088903
  56.2498553  32.8743833  64.4988903  56.7408553  33.4843833  64.5478903
  52.1978553  46.2423833  70.5868903  52.9418553  46.6983833  70.5768903
  52.0768553  46.0283833  69.7498903  52.2898553  46.2783833  70.4618903
  41.7658553  32.5453833  76.1628903  40.9878553  32.1553833  76.0908903
  42.2568553  32.1333833  75.5718903  41.7228553  32.4263833  76.0648903
  41.9708553  42.8653833  66.7208903  42.3938553  42.5093833  66.0468903
  42.2948553  42.4433833  67.4128903  42.0808553  42.7503833  66.7238903
  45.2018553  45.7173833  66.0168903  46.0458553  45.8213833  65.8218903
  44.9048553  46.5353833  66.0848903  45.2828553  45.8533833  65.9978903
  48.4148553  30.1883833  75.3308903  48.5928553  29.3793833  75.0558903
  48.2718553  30.6293833  74.5918903  48.4198553  30.1343833  75.1808903
  49.0088553  35.1143833  64.1038903  49.2958553  34.8823833  63.3138903
  49.7408553  35.1933833  64.5728903  49.1588553  35.0913833  64.0568903
  49.7308553  35.4533833  59.2248903  50.0118553  36.2413833  59.4738903
  48.9548553  35.6183833  58.8618903  49.6578553  35.5943833  59.2078903
  53.7718553  47.4273833  60.6918903  54.4368553  47.2793833  60.1468903
  54.1318553  47.3443833  61.4818903  53.9238553  47.3933833  60.7278903
  44.1998553  46.9363833  71.7568903  44.4918553  46.8693833  72.5768903
  43.5738553  46.3313833  71.7118903  44.1508553  46.8373833  71.8718903
  56.5608553  31.7953833  69.8518903  57.3178553  31.8673833  69.4238903
  56.6238553  31.0223833  70.2508903  56.6818553  31.6923833  69.8468903
  39.1138553  33.0933833  73.7488903  39.1098553  33.6803833  74.3948903
  39.7078553  33.4053833  73.1918903  39.2008553  33.2263833  73.7618903
  51.4518553  43.4273833  74.2908903  51.4178553  43.8093833  75.0748903
  52.3058553  43.3853833  74.1198903  51.5728553  43.4773833  74.3818903
  48.5898553  43.6243833  59.0408903  48.4088553  44.1693833  59.6978903
  49.3558553  43.9143833  58.7398903  48.6758553  43.7483833  59.0938903
  52.0968553  31.5203833  60.0948903  52.6368553  30.8383833  60.1708903
  52.1588553  31.9183833  60.8688903  52.1858553  31.4783833  60.2208903
  42.1928553  45.0983833  70.8788903  41.4948553  44.5903833  71.0048903
  42.4528553  44.8933833  70.0708903  42.1278553  44.9933833  70.7778903
  49.3548553  33.8963833  61.4088903  48.8468553  33.2343833  61.1548903
  49.4068553  34.4003833  60.6988903  49.2878553  33.8733833  61.2668903
  49.9038553  46.5913833  71.7888903  50.6718553  46.5113833  71.3828903
  49.3208553  46.4703833  71.1508903  49.9308553  46.5613833  71.6348903
  49.3548553  30.8373833  61.2998903  48.8998553  30.4353833  60.6738903
  50.1278553  30.9923833  60.9248903  49.4018553  30.8013833  61.1518903
  56.1808553  47.1943833  64.6898903  55.7258553  47.9113833  64.8908903
  55.5668553  46.6233833  64.4478903  56.0228553  47.2163833  64.6838903
  47.9528553  33.2043833  65.8218903  48.0268553  33.7723833  65.1638903
  48.0738553  33.6963833  66.5318903  47.9808553  33.3613833  65.8298903
  53.1778553  43.0393833  64.2338903  53.8788553  42.5573833  64.4228903
  52.5178553  42.4703833  64.2788903  53.1838553  42.8843833  64.2678903
  43.5538553  43.9493833  73.4458903  44.3948553  44.0123833  73.2238903
  43.5168553  44.3463833  74.2218903  43.6728553  44.0173833  73.5278903
  42.5608553  29.0273833  64.1698903  43.0968553  29.7153833  64.1598903
  42.5638553  28.7533833  63.3418903  42.6398553  29.0883833  64.0458903
  45.5168553  39.4603833  68.1948903  45.6888553  39.2503833  69.0238903
  44.8618553  38.9263833  67.9788903  45.4458553  39.3503833  68.2858903
  51.7448553  33.3743833  71.7098903  51.6498553  33.6933833  72.5158903
  51.1518553  32.7353833  71.6718903  51.6428553  33.3263833  71.8238903
  46.2668553  39.3983833  70.7848903  46.3198553  40.2453833  70.9868903
  45.9818553  39.0283833  71.5218903  46.2328553  39.4683833  70.9228903
  52.4438553  40.0933833  69.9148903  51.9298553  39.6813833  70.4858903
  52.3178553  40.9373833  70.0958903  52.3498553  40.1573833  70.0258903
  53.0008553  29.3183833  64.5458903  53.0498553  29.0003833  65.3568903
  53.3238553  28.6743833  64.0528903  53.0558553  29.1763833  64.5928903
  55.4648553  33.5543833  72.8538903  56.2368553  33.3293833  73.1908903
  54.9898553  33.7713833  73.5538903  55.5088553  33.5533833  73.0068903
  43.0088553  32.8373833  65.8238903  43.2808553  32.4073833  65.1158903
  42.8328553  32.2013833  66.3948903  43.0228553  32.6803833  65.8038903
  55.6968553  40.5323833  60.0418903  55.8158553  40.2453833  60.8568903
  56.5038553  40.5533833  59.7118903  55.8328553  40.4933833  60.1138903
  42.8328553  40.2643833  65.3728903  43.6838553  40.1843833  65.1998903
  42.4758553  39.5823833  64.9608903  42.9058553  40.1513833  65.2858903
  41.5998553  46.9893833  66.6098903  40.9268553  46.4913833  66.3648903
  42.0028553  47.1743833  65.8588903  41.5598553  46.9433833  66.4628903
  41.1498553  33.9393833  68.9058903  41.9928553  34.1593833  68.8628903
  40.7608553  34.5123833  68.3748903  41.2168553  34.0563833  68.8208903
  57.9308553  45.0413833  74.2958903  57.2488553  45.3513833  73.8488903
  57.5618553  44.5833833  74.9408903  57.7748553  45.0193833  74.3248903
  53.5918553  37.0693833  59.6268903  53.3718553  37.8003833  59.2048903
  53.1438553  37.1203833  60.3738903  53.4928553  37.1843833  59.6748903
  45.2008553  40.2713833  63.6078903  45.9138553  40.7663833  63.6978903
  45.4228553  39.7043833  62.9818903  45.3388553  40.2603833  63.5288903
  57.7788553  31.9303833  59.0798903  57.1168553  31.3623833  59.1028903
  57.5858553  32.4423833  58.3998903  57.6528553  31.9223833  58.9828903
  39.3568553  41.9143833  66.9278903  38.6898553  42.4023833  67.2038903
  40.0368553  42.4593833  66.9568903  39.3588553  42.0663833  66.9728903
  58.1018553  36.3083833  71.6358903  58.3168553  35.5083833  71.3598903
  57.2518553  36.3683833  71.4468903  58.0078553  36.1993833  71.5668903
  39.4228553  38.5983833  62.0308903  39.2378553  37.7593833  62.1828903
  40.0818553  38.5623833  61.4608903  39.4928553  38.4693833  61.9688903
  55.7808553  31.4883833  61.3588903  56.5268553  31.0813833  61.5578903
  56.0438553  32.2033833  60.9338903  55.9298553  31.5343833  61.3258903
  49.7238553  43.9743833  65.9348903  49.2008553  44.6083833  65.6418903
  50.0338553  43.6103833  65.2058903  49.6918553  44.0143833  65.7838903
  39.5948553  42.7623833  61.6058903  40.1468553  43.3313833  61.9698903
  39.3628553  42.2473833  62.2708903  39.6418553  42.7703833  61.7578903
  43.7988553  41.7623833  68.6948903  44.2658553  42.0513833  69.3728903
  44.3708553  41.2843833  68.2408903  43.9528553  41.7343833  68.7278903
  52.2348553  33.7763833  66.4318903  52.5788553  33.9283833  67.2188903
  51.7818553  33.0383833  66.5448903  52.2188553  33.6893833  66.5648903
  39.4248553  41.2113833  59.2338903  40.1808553  40.7793833  59.2918903
  39.4398553  41.7433833  59.9248903  39.5388553  41.2263833  59.3448903
  40.3648553  39.4323833  67.2388903  40.7958553  39.3033833  66.4918903
  40.1598553  40.2803833  67.2128903  40.3978553  39.5383833  67.1248903
  46.7108553  32.9963833  60.8888903  46.7088553  32.8793833  60.0238903
  46.5298553  33.8443833  60.9808903  46.6838553  33.1043833  60.7748903
  55.7648553  45.4233833  72.3858903  55.0938553  45.9373833  72.6038903
  55.8278553  45.5233833  71.5218903  55.6748553  45.5143833  72.2908903
  44.4488553  42.9483833  65.5208903  44.5748553  43.7913833  65.7078903
  45.1168553  42.5493833  65.9168903  44.5668553  43.0143833  65.6068903
  42.5788553  36.4313833  75.3828903  42.0428553  35.9253833  75.8508903
  42.5988553  36.0413833  74.6028903  42.5018553  36.2983833  75.3368903
  43.0638553  35.8283833  60.5228903  42.9358553  35.3803833  61.2608903
  42.4818553  35.4863833  59.9708903  42.9588553  35.7113833  60.5508903
  43.2308553  37.6583833  67.1218903  42.4498553  37.5993833  66.7388903
  43.3028553  36.9063833  67.5588903  43.1258553  37.5393833  67.1298903
  43.6608553  37.3953833  70.5898903  43.6858553  36.7203833  70.0388903
  43.0148553  37.8913833  70.2778903  43.5698553  37.3683833  70.4628903
  53.5558553  35.1083833  68.9858903  52.8938553  35.4363833  69.4488903
  53.7428553  35.7423833  68.4168903  53.4858553  35.2503833  68.9698903
  47.7608553  46.1723833  69.9818903  47.4838553  45.5313833  69.4588903
  47.5528553  46.8983833  69.5438903  47.6898553  46.1853833  69.8398903
  50.2008553  31.0143833  72.4148903  50.3498553  30.1893833  72.1718903
  50.5798553  31.0693833  73.1988903  50.2788553  30.9003833  72.4948903
  51.7488553  33.0773833  62.4968903  52.2388553  33.7943833  62.4198903
  50.9588553  33.3383833  62.2338903  51.7048553  33.2213833  62.4468903
  41.4598553  38.7503833  76.1488903  41.4228553  39.2513833  75.4348903
  41.7908553  37.9983833  75.8538903  41.5028553  38.7123833  75.9998903
  53.0628553  40.9553833  74.4068903  53.5468553  41.6733833  74.5048903
  53.4568553  40.5283833  73.7558903  53.1928553  40.9983833  74.3248903
  47.3588553  43.8003833  75.5838903  47.7128553  43.6223833  76.3608903
  46.9228553  43.0713833  75.3848903  47.3468553  43.6663833  75.6698903
  48.3308553  34.5473833  68.2218903  48.8108553  35.2463833  68.4298903
  48.7038553  33.9003833  68.6728903  48.4568553  34.5553833  68.3188903
  50.5198553  37.7163833  60.4958903  50.5118553  38.4383833  60.0058903
  49.8808553  37.8513833  61.0728903  50.4248553  37.8433833  60.5088903
  55.4918553  41.5863833  64.4768903  55.8478553  41.2363833  65.1918903
  55.4838553  40.9253833  63.9068903  55.5438553  41.4363833  64.4978903
  51.5368553  44.6523833  68.3208903  50.9338553  44.3563833  67.7638903
  52.0818553  45.1043833  67.8118903  51.5278553  44.6753833  68.1628903
  51.5498553  41.5033833  67.7208903  50.7528553  41.7273833  67.9948903
  51.8078553  40.9093833  68.3058903  51.4698553  41.4483833  67.8478903
  45.4418553  46.3153833  62.1688903  45.2948553  45.5393833  62.5398903
  46.1308553  46.1683833  61.6538903  45.5218553  46.1783833  62.1478903
  45.1128553  30.0583833  60.1568903  45.2098553  29.9513833  61.0178903
  44.4048553  30.5643833  60.0918903  45.0228553  30.1173833  60.2748903
  47.7338553  45.8313833  60.5708903  48.3558553  45.9943833  61.1608903
  47.7698553  46.5223833  60.0388903  47.8308553  45.9573833  60.5798903
  54.8098553  39.5013833  72.5668903  54.8648553  39.6263833  71.7048903
  55.5628553  39.8213833  72.8688903  54.9288553  39.5663833  72.4838903
  55.8418553  29.7993833  75.5538903  55.2048553  29.3993833  75.1118903
  55.8678553  29.3683833  76.3118903  55.7518553  29.6773833  75.5998903
  42.2348553  38.3653833  61.3998903  42.5588553  37.5863833  61.1778903
  42.8808553  38.7333833  61.8548903  42.3778553  38.3043833  61.4338903
  50.5408553  39.3073833  72.1668903  50.3858553  39.9173833  72.7708903
  51.0748553  38.7493833  72.5728903  50.5968553  39.3153833  72.3158903
  39.2318553  30.0263833  62.3678903  39.3608553  29.3183833  61.8758903
  38.8648553  29.7083833  63.0928903  39.1968553  29.8743833  62.4028903
  48.9248553  37.7073833  62.8248903  48.9838553  38.3573833  63.4038903
  48.7358553  37.0113833  63.3158903  48.9058553  37.7003833  62.9828903
  54.1508553  42.0363833  68.6938903  53.6718553  42.3343833  68.0278903
  53.7948553  41.2603833  68.8718903  54.0278553  41.9653833  68.6218903
  43.4208553  32.2243833  59.3368903  42.9098553  32.2773833  58.6308903
  44.2048553  32.4643833  59.0408903  43.4608553  32.2673833  59.1888903
  48.1478553  39.7543833  67.2558903  47.3008553  39.5603833  67.3368903
  48.4718553  39.5893833  68.0488903  48.0698553  39.7013833  67.3848903
  44.8998553  46.4843833  58.1418903  45.3388553  45.7873833  58.4298903
  45.1068553  47.1083833  58.7148903  44.9958553  46.4733833  58.2688903
  41.9958553  39.4473833  69.5718903  42.7178553  39.9353833  69.5348903
  41.7258553  39.4173833  68.7428903  42.0628553  39.5153833  69.4438903
  45.2258553  34.6183833  66.3068903  46.0718553  34.4283833  66.4048903
  44.8558553  33.8413833  66.1688903  45.2958553  34.4753833  66.3008903
  57.8428553  46.2023833  60.6338903  58.5368553  45.7353833  60.3858903
  57.3038553  45.6043833  60.9708903  57.8658553  46.0443833  60.6468903
  40.0468553  35.9563833  62.9618903  40.5358553  35.6643833  63.6228903
  40.1758553  35.3633833  62.3348903  40.1378553  35.8253833  62.9668903
  55.0818553  38.9783833  69.8128903  55.0748553  38.2023833  70.2108903
  54.2408553  39.2123833  69.8058903  54.9568553  38.8983833  69.8708903
  44.5718553  37.3903833  58.4478903  43.9618553  36.9853833  58.9218903
  44.1858553  37.5083833  57.6748903  44.4248553  37.3473833  58.4038903
  41.3908553  40.4993833  73.8498903  40.9698553  39.9813833  73.2888903
  41.0388553  41.2853833  73.7068903  41.2768553  40.5393833  73.7458903
  56.3378553  39.0493833  67.2498903  56.0518553  39.4503833  67.9698903
  57.1978553  38.9873833  67.3768903  56.4228553  39.0993833  67.3748903
  46.0268553  35.8513833  61.1578903  46.2988553  36.6773833  61.2248903
  45.1638553  35.9263833  61.0618903  45.9398553  35.9843833  61.1528903
  53.9998553  32.9733833  75.7898903  53.4748553  33.4323833  76.3138903
  53.6388553  32.1783833  75.7838903  53.8688553  32.9233833  75.8658903
  39.5068553  31.8213833  67.6938903  39.5508553  32.1653833  66.8928903
  40.2618553  32.0583833  68.0608903  39.6248553  31.9073833  67.6298903
  57.4688553  44.6823833  67.7788903  57.7588553  44.9393833  66.9978903
  58.1638553  44.7783833  68.2978903  57.6148553  44.7343833  67.7398903
  52.4918553  36.5423833  75.8658903  52.5648553  36.6463833  76.7288903
  51.8578553  37.1003833  75.6448903  52.4088553  36.6403833  75.9608903
  54.7598553  36.8613833  74.2308903  55.0788553  37.6473833  74.4338903
  54.3898553  36.5913833  74.9738903  54.7528553  36.9373833  74.3708903
  54.0738553  43.2853833  59.7608903  54.4078553  42.4793833  59.7958903
  53.3188553  43.2133833  60.1908903  54.0118553  43.1553833  59.8298903
  54.5558553  35.1193833  65.4198903  53.8108553  34.7963833  65.7378903
  54.5578553  35.9453833  65.6998903  54.4458553  35.1933833  65.5078903
  56.9958553  41.0793833  73.1718903  57.6238553  40.5303833  72.9158903
  56.9348553  41.6443833  72.5098903  57.0798553  41.0823833  73.0358903
  51.4478553  41.1603833  59.1638903  52.1318553  40.6463833  58.9948903
  51.0308553  41.2063833  58.3988903  51.4868553  41.0913833  59.0258903
  46.1298553  42.3103833  70.4678903  45.8318553  42.9023833  71.0348903
  46.1848553  42.7523833  69.7188903  46.0938553  42.4633833  70.4408903
  44.1088553  41.2603833  73.8658903  43.3028553  40.9703833  74.0328903
  44.0198553  42.1283833  73.8718903  43.9768553  41.3453833  73.8908903
  53.4678553  31.4493833  72.8808903  54.2118553  31.9013833  72.8178903
  52.9018553  31.9193833  72.4118903  53.4948553  31.5863833  72.8028903
  48.6458553  38.7333833  69.9588903  49.1218553  39.1073833  70.5868903
  47.8228553  38.8673833  70.2178903  48.5948553  38.8083833  70.0898903
  45.3558553  34.3363833  72.6998903  45.5168553  33.5923833  73.1268903
  45.3108553  34.0873833  71.8648903  45.3728553  34.1893833  72.6398903
  47.9098553  46.1263833  65.1868903  48.4558553  46.8053833  65.2408903
  47.5598553  46.2083833  64.3918903  47.9388553  46.2393833  65.0768903
  54.7528553  29.4293833  70.5508903  54.4728553  30.2543833  70.5068903
  55.4688553  29.4823833  71.0468903  54.8178553  29.5593833  70.6178903
  47.1078553  30.1443833  72.5798903  47.8128553  30.4643833  72.1778903
  47.3488553  29.3373833  72.8068903  47.2468553  30.0723833  72.5538903
  46.0928553  44.3543833  68.5758903  45.4688553  44.9363833  68.3938903
  46.3408553  44.0683833  67.7898903  46.0368553  44.3983833  68.4328903
  50.4018553  40.9883833  75.5648903  51.1588553  41.2743833  75.2388903
  49.8548553  41.0403833  74.8868903  50.4328553  41.0383833  75.4158903
  54.3108553  43.5383833  74.0688903  54.6568553  43.8083833  74.8228903
  54.6048553  44.1203833  73.4888903  54.4058553  43.6643833  74.0948903
  56.1738553  35.6843833  59.4078903  56.5518553  36.3613833  59.0078903
  55.3318553  35.9083833  59.4388903  56.1048553  35.8173833  59.3528903
  47.6868553  39.1303833  58.4908903  46.8818553  38.9533833  58.2058903
  47.6538553  39.9813833  58.6828903  47.5628553  39.2293833  58.4778903
  43.6168553  35.1973833  68.6408903  44.0568553  35.0943833  67.8948903
  44.1618553  34.8843833  69.2458903  43.7618553  35.1363833  68.6198903
  51.6328553  34.2993833  74.2328903  50.9848553  34.7693833  74.5808903
  52.1978553  34.2103833  74.8918903  51.6208553  34.3553833  74.3818903
  51.3208553  35.8363833  70.5308903  51.6228553  36.2563833  71.2338903
  51.3568553  34.9963833  70.7628903  51.3708553  35.7743833  70.6688903
  48.7458553  46.0033833  74.4558903  49.2238553  45.4033833  74.0398903
  48.3948553  45.5603833  75.1208903  48.7648553  45.8493833  74.4928903
  53.8688553  35.2833833  62.7828903  54.0758553  35.0823833  63.6068903
  54.6248553  35.5513833  62.4408903  54.0108553  35.2933833  62.8538903
  47.1638553  30.1823833  68.6878903  46.3378553  30.0333833  68.9248903
  47.1238553  30.2173833  67.8168903  47.0358553  30.1653833  68.5938903
  54.8908553  31.3663833  64.2568903  54.1768553  30.8953833  64.4278903
  54.7288553  31.7073833  63.4708903  54.7618553  31.3473833  64.1658903
  55.3338553  39.3103833  62.6368903  55.8098553  38.5813833  62.5888903
  54.5128553  39.0243833  62.5608903  55.2828553  39.1603833  62.6178903
  48.8048553  41.2223833  73.4758903  48.0098553  41.1583833  73.8268903
  48.8758553  42.0693833  73.2808903  48.6978553  41.3373833  73.4988903
  39.7288553  30.5803833  74.7228903  39.5888553  31.3753833  74.3918903
  38.9428553  30.3373833  75.0118903  39.5918553  30.6623833  74.7168903
  44.6348553  47.4293833  68.7928903  44.6458553  47.4883833  69.6628903
  44.2098553  46.6823833  68.6428903  44.5738553  47.3273833  68.8988903
  42.7928553  33.3243833  61.9478903  42.9188553  32.9953833  61.1498903
  41.9808553  33.0753833  62.1468903  42.6918553  33.2393833  61.8598903
  51.5498553  40.4773833  64.9918903  51.6258553  40.8183833  65.7908903
  51.7188553  39.6303833  65.1128903  51.5858553  40.4023833  65.1278903
  49.0718553  39.7513833  64.5568903  48.7738553  39.4363833  65.3138903
  49.7668553  40.2243833  64.7918903  49.1308553  39.7743833  64.7038903
  49.2938553  43.8693833  72.5838903  49.9808553  43.7553833  73.1088903
  49.4278553  44.6603833  72.2398903  49.4148553  43.9693833  72.6108903
  57.4698553  36.4783833  74.3948903  56.6148553  36.3563833  74.5208903
  57.6228553  36.0833833  73.6318903  57.3658553  36.4013833  74.3008903
  51.9828553  37.1433833  72.9708903  51.7278553  36.4243833  73.3928903
  52.8038553  37.2593833  73.2408903  52.0668553  37.0543833  73.0728903
  41.3988553  46.9273833  74.2348903  40.7448553  46.3583833  74.3328903
  41.0238553  47.7003833  74.3858903  41.2468553  46.9573833  74.2718903
  49.9168553  38.3333833  76.1578903  50.2398553  39.0193833  75.7258903
  49.2128553  38.6563833  76.5598903  49.8598553  38.4823833  76.1528903
  53.0008553  46.7073833  67.0868903  52.5498553  47.3503833  67.4658903
  53.7088553  46.6283833  67.5918903  53.0388553  46.7903833  67.2178903
  49.7018553  41.7973833  70.0168903  49.0078553  42.1993833  70.3598903
  50.3788553  42.2303833  70.3558903  49.6988553  41.9203833  70.1178903
  42.7698553  35.3353833  72.3638903  43.1448553  35.9543833  71.8768903
  43.4438553  34.8613833  72.6488903  42.9248553  35.3573833  72.3338903
  40.5448553  33.7833833  71.6388903  40.6218553  33.6143833  70.7858903
  41.2908553  34.1893833  71.8358903  40.6658553  33.8183833  71.5418903
  56.1038553  36.4233833  62.0788903  56.2068553  36.3653833  61.2148903
  56.8448553  36.0913833  62.3968903  56.2288553  36.3663833  61.9978903
  43.0988553  31.1933833  74.0498903  43.0178553  30.3493833  74.2558903
  42.7848553  31.2373833  73.2368903  43.0408553  31.0753833  73.9598903
  50.0238553  43.3883833  63.1858903  49.8188553  44.2213833  63.0268903
  49.2488553  43.0063833  63.3078903  49.8788553  43.4553833  63.1808903
  55.2058553  36.5693833  71.4348903  55.2038553  35.7063833  71.5588903
  55.2728553  36.8933833  72.2418903  55.2158553  36.4893833  71.5718903
  39.9418553  39.0093833  71.8628903  40.2618553  39.2283833  71.0818903
  39.8418553  38.1443833  71.8078903  39.9738553  38.9143833  71.7398903
  41.3978553  34.9453833  58.4808903  40.7258553  34.9593833  59.0368903
  41.4928553  34.0973833  58.2968903  41.3128553  34.8223833  58.5358903
  51.0848553  31.3693833  75.2168903  51.1768553  32.0813833  75.7108903
  50.4478553  30.9243833  75.6138903  51.0038553  31.4083833  75.3488903
  50.0788553  31.5593833  66.0708903  49.3788553  32.0773833  66.0148903
  50.1168553  31.1793833  65.2868903  49.9808553  31.5803833  65.9468903
  45.3858553  43.6503833  59.5948903  45.8268553  43.7303833  60.3428903
  44.5808553  43.4343833  59.8528903  45.3318553  43.6303833  59.7438903
  53.6768553  32.0753833  68.8708903  54.5318553  32.1743833  69.0158903
  53.3078553  32.6283833  69.4358903  53.7488553  32.1723833  68.9758903
  44.7048553  38.3013833  73.2478903  44.3088553  39.0753833  73.3228903
  44.2988553  37.9283833  72.5718903  44.5868553  38.3603833  73.1588903
  53.9808553  37.3553833  67.3618903  54.6468553  37.8963833  67.5218903
  53.6358553  37.6663833  66.6228903  54.0278553  37.4813833  67.2768903
  54.2938553  45.4213833  63.1688903  54.1198553  44.7673833  63.7188903
  55.0068553  45.1503833  62.7458903  54.3738553  45.2843833  63.1878903
  42.7148553  42.7203833  60.1958903  42.4708553  42.4133833  60.9758903
  42.6818553  42.0173833  59.6798903  42.6738553  42.5713833  60.2348903
  45.5338553  40.9653833  58.9388903  44.7158553  40.6973833  59.0788903
  45.5058553  41.8173833  59.1238903  45.4088553  41.0523833  58.9868903
  45.1338553  31.2783833  70.6978903  44.2698553  31.3623833  70.7778903
  45.3538553  30.7643833  71.3668903  45.0388553  31.2153833  70.8088903
  57.1518553  29.9133833  72.0268903  57.0998553  29.8693833  72.8968903
  57.8388553  29.4103833  71.8368903  57.2458553  29.8333833  72.1268903
  49.2368553  32.0263833  69.0718903  48.4998553  31.5723833  69.1848903
  49.8078553  31.6243833  69.5948903  49.2118553  31.8993833  69.1658903
  51.9688553  42.8743833  70.8598903  52.1748553  43.1753833  71.6518903
  51.9078553  43.5963833  70.3748903  51.9898553  43.0253833  70.9048903
  51.5028553  47.0883833  75.1058903  50.7498553  47.0703833  74.6648903
  51.6708553  47.9403833  75.1898903  51.4168553  47.2113833  75.0528903
  46.7398553  36.3553833  74.2758903  46.4178553  35.7793833  73.7058903
  46.3808553  37.1103833  74.0298903  46.6398553  36.3813833  74.1558903
  47.5358553  29.6073833  58.9028903  47.6138553  29.8543833  58.0698903
  46.7928553  29.9843833  59.1608903  47.4378553  29.6993833  58.8178903
  56.7808553  41.5133833  70.3178903  56.7488553  40.6513833  70.1828903
  56.0878553  41.8153833  69.8838903  56.6738553  41.4303833  70.2338903
  45.1748553  46.7113833  74.5238903  45.2158553  46.8373833  75.3868903
  45.8258553  46.1513833  74.3678903  45.2768553  46.6473833  74.6288903
  54.8858553  44.7733833  69.1148903  55.4128553  44.6903833  68.4238903
  54.4948553  43.9953833  69.1688903  54.9058553  44.6463833  69.0208903
  42.3538553  31.3613833  71.3458903  42.0108553  30.5943833  71.1118903
  41.6588553  31.8853833  71.4098903  42.2008553  31.3253833  71.3208903
  51.3998553  30.2173833  68.3228903  52.0698553  30.7613833  68.4498903
  50.8968553  30.6413833  67.7498903  51.4248553  30.3603833  68.2568903
  42.7678553  45.0943833  75.8838903  43.3628553  45.5253833  76.3558903
  42.4038553  45.7183833  75.3948903  42.8018553  45.2503833  75.8808903
  50.7588553  36.0253833  65.8158903  51.3098553  35.4183833  66.1158903
  50.3338553  36.2883833  66.5308903  50.7778553  35.9743833  65.9648903
  41.0068553  34.6753833  65.3018903  40.6388553  34.9773833  66.0328903
  41.5408553  34.0463833  65.5858903  41.0308553  34.6273833  65.4518903
  40.6948553  43.0833833  72.8128903  40.1208553  43.4993833  73.3218903
  41.4278553  43.5483833  72.9078903  40.7188553  43.2133833  72.9018903
  52.7288553  37.8563833  62.3778903  52.7968553  37.0063833  62.5588903
  51.9058553  37.9423833  62.0998903  52.6168553  37.7433833  62.3638903
  42.4808553  46.3503833  61.5878903  42.3358553  46.5063833  60.7418903
  43.3468553  46.4293833  61.6658903  42.5878553  46.3853833  61.4748903
  46.6478553  38.7473833  61.3158903  46.7478553  38.8863833  60.4608903
  47.4658553  38.6873833  61.6118903  46.7828553  38.7583833  61.2328903
  55.8078553  46.8113833  58.7958903  56.4448553  46.6773833  59.3768903
  55.4668553  46.0173833  58.6788903  55.8518553  46.6743833  58.8638903
  56.0028553  39.2293833  75.5288903  56.6368553  39.0593833  76.1028903
  56.4198553  39.6323833  74.8768903  56.1578553  39.2643833  75.5178903
  51.8828553  43.0763833  61.1178903  51.6318553  42.9483833  61.9438903
  51.5658553  42.3813833  60.6968903  51.7988553  42.9553833  61.1778903
  56.6278553  33.7933833  76.2668903  56.4318553  34.4373833  76.8218903
  55.9058553  33.3033833  76.2588903  56.4928553  33.8163833  76.3478903
  56.5268553  34.7343833  69.2378903  55.6938553  34.9843833  69.1658903
  56.4708553  33.8943833  69.4668903  56.3958553  34.6473833  69.2608903
  45.7868553  31.7223833  74.4318903  46.0208553  31.1463833  73.8188903
  44.9448553  31.5413833  74.5728903  45.6968553  31.6103833  74.3618903
  53.4138553  39.3403833  76.8838903  54.2848553  39.3043833  76.8478903
  53.1948553  39.7603833  76.1518903  53.5108553  39.3963833  76.7708903
  43.1678553  45.1653833  68.0648903  43.0888553  44.3553833  67.7488903
  42.7238553  45.6523833  67.4928903  43.0908553  45.1173833  67.9338903
  48.7688553  41.2843833  60.5478903  49.4858553  40.9373833  60.1918903
  48.7348553  42.0843833  60.1998903  48.8698553  41.3513833  60.4438903
  40.7398553  47.4093833  71.6458903  41.2328553  47.3533833  72.3638903
  40.9278553  46.6763833  71.2108903  40.8408553  47.2923833  71.6878903
  49.9868553  36.8413833  49.4576493  49.4628553  37.4373833  49.8206493
  50.3838553  36.4733833  50.1416493  49.9678553  36.8753833  49.6126493
  56.1308553  44.2823833  42.4286493  56.8318553  43.7633833  42.4246493
  55.5438553  43.8373833  41.9596493  56.1478553  44.1393833  42.3586493
  52.6578553  37.9083833  46.1336493  52.7378553  37.9123833  45.2646493
  52.0738553  37.2763833  46.2826493  52.5828553  37.8153833  46.0276493
  46.6468553  31.0123833  43.9416493  46.5768553  31.6893833  43.3956493
  47.3878553  30.6243833  43.6926493  46.7458553  31.0553833  43.8236493
  41.2558553  44.7683833  40.0696493  41.7228553  44.8523833  39.3376493
  41.7108553  44.1903833  40.5386493  41.3918553  44.6953833  40.0306493
  46.3698553  41.2413833  56.2356493  46.1338553  41.2383833  57.0756493
  45.6218553  41.0933833  55.8116493  46.2238553  41.2183833  56.2966493
  45.7498553  33.8473833  50.7176493  46.4278553  33.8653833  50.1686493
  45.7048553  33.0113833  50.9626493  45.8428553  33.7263833  50.6726493
  46.3518553  44.4333833  53.4986493  46.4898553  45.1933833  53.0916493
  47.1428553  44.0683833  53.5256493  46.4888553  44.4923833  53.4426493
  47.4468553  42.3183833  48.0036493  47.7948553  41.5193833  48.0336493
  48.1118553  42.8223833  47.7486493  47.5968553  42.2743833  47.9706493
  47.5038553  41.7673833  44.2146493  47.8348553  41.1233833  44.7006493
  47.7438553  41.5563833  43.4036493  47.5878553  41.6413833  44.1666493
  49.4718553  35.8983833  55.5536493  48.6238553  35.7993833  55.3756493
  49.5008553  36.6433833  56.0076493  49.3508553  35.9943833  55.5946493
  54.0298553  28.8583833  54.6676493  53.8718553  29.6273833  54.2856493
  53.2578553  28.6383833  55.0116493  53.8918553  28.9393833  54.6626493
  46.8188553  30.5733833  46.8826493  46.8918553  31.4333833  47.0116493
  46.7808553  30.4983833  46.0146493  46.8238553  30.6893833  46.7736493
  51.4918553  33.4993833  39.1816493  51.0418553  34.1803833  39.4886493
  51.6058553  32.9953833  39.8846493  51.4428553  33.5253833  39.3306493
  51.5908553  45.8403833  41.2856493  52.3178553  46.3123833  41.3876493
  51.8198553  45.0463833  41.5656493  51.7328553  45.7933833  41.3426493
  49.7588553  46.2323833  43.2756493  49.9728553  46.7593833  43.9376493
  50.5258553  46.0583833  42.8966493  49.9038553  46.2843833  43.3176493
  46.0328553  32.9483833  58.1726493  46.1498553  32.4943833  57.4366493
  46.3208553  33.7463833  57.9696493  46.0928553  32.9993833  58.0336493
  56.8858553  33.4723833  45.4766493  56.5398553  34.1503833  45.9026493
  56.2498553  32.8743833  45.4926493  56.7408553  33.4843833  45.5416493
  52.1978553  46.2423833  51.5806493  52.9418553  46.6983833  51.5706493
  52.0768553  46.0283833  50.7436493  52.2898553  46.2783833  51.4556493
  41.7658553  32.5453833  57.1566493  40.9878553  32.1553833  57.0846493
  42.2568553  32.1333833  56.5656493  41.7228553  32.4263833  57.0586493
  48.4148553  30.1883833  56.3246493  48.5928553  29.3793833  56.0496493
  48.2718553  30.6293833  55.5856493  48.4198553  30.1343833  56.1746493
  49.0088553  35.1143833  45.0976493  49.2958553  34.8823833  44.3076493
  49.7408553  35.1933833  45.5666493  49.1588553  35.0913833  45.0506493
  49.7308553  35.4533833  40.2186493  50.0118553  36.2413833  40.4676493
  48.9548553  35.6183833  39.8556493  49.6578553  35.5943833  40.2016493
  53.7718553  47.4273833  41.6856493  54.4368553  47.2793833  41.1406493
  54.1318553  47.3443833  42.4756493  53.9238553  47.3933833  41.7216493
  56.5608553  31.7953833  50.8456493  57.3178553  31.8673833  50.4176493
  56.6238553  31.0223833  51.2446493  56.6818553  31.6923833  50.8406493
  51.4518553  43.4273833  55.2846493  51.4178553  43.8093833  56.0686493
  52.3058553  43.3853833  55.1136493  51.5728553  43.4773833  55.3756493
  48.5898553  43.6243833  40.0346493  48.4088553  44.1693833  40.6916493
  49.3558553  43.9143833  39.7336493  48.6758553  43.7483833  40.0876493
  52.0968553  31.5203833  41.0886493  52.6368553  30.8383833  41.1646493
  52.1588553  31.9183833  41.8626493  52.1858553  31.4783833  41.2146493
  49.3548553  33.8963833  42.4026493  48.8468553  33.2343833  42.1486493
  49.4068553  34.4003833  41.6926493  49.2878553  33.8733833  42.2606493
  49.9038553  46.5913833  52.7826493  50.6718553  46.5113833  52.3766493
  49.3208553  46.4703833  52.1446493  49.9308553  46.5613833  52.6286493
  49.3548553  30.8373833  42.2936493  48.8998553  30.4353833  41.6676493
  50.1278553  30.9923833  41.9186493  49.4018553  30.8013833  42.1456493
  56.1808553  47.1943833  45.6836493  55.7258553  47.9113833  45.8846493
  55.5668553  46.6233833  45.4416493  56.0228553  47.2163833  45.6776493
  47.9528553  33.2043833  46.8156493  48.0268553  33.7723833  46.1576493
  48.0738553  33.6963833  47.5256493  47.9808553  33.3613833  46.8236493
  43.5538553  43.9493833  54.4396493  44.3948553  44.0123833  54.2176493
  43.5168553  44.3463833  55.2156493  43.6728553  44.0173833  54.5216493
  51.7448553  33.3743833  52.7036493  51.6498553  33.6933833  53.5096493
  51.1518553  32.7353833  52.6656493  51.6428553  33.3263833  52.8176493
  46.2668553  39.3983833  51.7786493  46.3198553  40.2453833  51.9806493
  45.9818553  39.0283833  52.5156493  46.2328553  39.4683833  51.9166493
  52.4438553  40.0933833  50.9086493  51.9298553  39.6813833  51.4796493
  52.3178553  40.9373833  51.0896493  52.3498553  40.1573833  51.0196493
  53.0008553  29.3183833  45.5396493  53.0498553  29.0003833  46.3506493
  53.3238553  28.6743833  45.0466493  53.0558553  29.1763833  45.5866493
  39.0878553  43.7693833  57.9896493  39.8438553  44.1183833  58.2476493
  39.2648553  42.9163833  57.9326493  39.2258553  43.6943833  58.0196493
  55.4648553  33.5543833  53.8476493  56.2368553  33.3293833  54.1846493
  54.9898553  33.7713833  54.5476493  55.5088553  33.5533833  54.0006493
  55.6968553  40.5323833  41.0356493  55.8158553  40.2453833  41.8506493
  56.5038553  40.5533833  40.7056493  55.8328553  40.4933833  41.1076493
  57.9308553  45.0413833  55.2896493  57.2488553  45.3513833  54.8426493
  57.5618553  44.5833833  55.9346493  57.7748553  45.0193833  55.3186493
  53.5918553  37.0693833  40.6206493  53.3718553  37.8003833  40.1986493
  53.1438553  37.1203833  41.3676493  53.4928553  37.1843833  40.6686493
  57.7788553  31.9303833  40.0736493  57.1168553  31.3623833  40.0966493
  57.5858553  32.4423833  39.3936493  57.6528553  31.9223833  39.9766493
  47.0038553  35.6243833  58.0176493  46.5198553  36.2013833  58.4596493
  46.9758553  35.9193833  57.1966493  46.9278553  35.7533833  57.9616493
  58.1018553  36.3083833  52.6296493  58.3168553  35.5083833  52.3536493
  57.2518553  36.3683833  52.4406493  58.0078553  36.1993833  52.5606493
  55.7808553  31.4883833  42.3526493  56.5268553  31.0813833  42.5516493
  56.0438553  32.2033833  41.9276493  55.9298553  31.5343833  42.3196493
  49.7238553  43.9743833  46.9286493  49.2008553  44.6083833  46.6356493
  50.0338553  43.6103833  46.1996493  49.6918553  44.0143833  46.7776493
  43.7988553  41.7623833  49.6886493  44.2658553  42.0513833  50.3666493
  44.3708553  41.2843833  49.2346493  43.9528553  41.7343833  49.7216493
  52.2348553  33.7763833  47.4256493  52.5788553  33.9283833  48.2126493
  51.7818553  33.0383833  47.5386493  52.2188553  33.6893833  47.5586493
  46.7108553  32.9963833  41.8826493  46.7088553  32.8793833  41.0176493
  46.5298553  33.8443833  41.9746493  46.6838553  33.1043833  41.7686493
  42.5788553  36.4313833  56.3766493  42.0428553  35.9253833  56.8446493
  42.5988553  36.0413833  55.5966493  42.5018553  36.2983833  56.3306493
  43.6608553  37.3953833  51.5836493  43.6858553  36.7203833  51.0326493
  43.0148553  37.8913833  51.2716493  43.5698553  37.3683833  51.4566493
  53.5558553  35.1083833  49.9796493  52.8938553  35.4363833  50.4426493
  53.7428553  35.7423833  49.4106493  53.4858553  35.2503833  49.9636493
  47.7608553  46.1723833  50.9756493  47.4838553  45.5313833  50.4526493
  47.5528553  46.8983833  50.5376493  47.6898553  46.1853833  50.8336493
  50.2008553  31.0143833  53.4086493  50.3498553  30.1893833  53.1656493
  50.5798553  31.0693833  54.1926493  50.2788553  30.9003833  53.4886493
  51.7488553  33.0773833  43.4906493  52.2388553  33.7943833  43.4136493
  50.9588553  33.3383833  43.2276493  51.7048553  33.2213833  43.4406493
  41.4598553  38.7503833  57.1426493  41.4228553  39.2513833  56.4286493
  41.7908553  37.9983833  56.8476493  41.5028553  38.7123833  56.9936493
  53.0628553  40.9553833  55.4006493  53.5468553  41.6733833  55.4986493
  53.4568553  40.5283833  54.7496493  53.1928553  40.9983833  55.3186493
  47.3588553  43.8003833  56.5776493  47.7128553  43.6223833  57.3546493
  46.9228553  43.0713833  56.3786493  47.3468553  43.6663833  56.6636493
  48.3308553  34.5473833  49.2156493  48.8108553  35.2463833  49.4236493
  48.7038553  33.9003833  49.6666493  48.4568553  34.5553833  49.3126493
  55.4918553  41.5863833  45.4706493  55.8478553  41.2363833  46.1856493
  55.4838553  40.9253833  44.9006493  55.5438553  41.4363833  45.4916493
  51.5368553  44.6523833  49.3146493  50.9338553  44.3563833  48.7576493
  52.0818553  45.1043833  48.8056493  51.5278553  44.6753833  49.1566493
  51.5498553  41.5033833  48.7146493  50.7528553  41.7273833  48.9886493
  51.8078553  40.9093833  49.2996493  51.4698553  41.4483833  48.8416493
  47.7338553  45.8313833  41.5646493  48.3558553  45.9943833  42.1546493
  47.7698553  46.5223833  41.0326493  47.8308553  45.9573833  41.5736493
  54.8098553  39.5013833  53.5606493  54.8648553  39.6263833  52.6986493
  55.5628553  39.8213833  53.8626493  54.9288553  39.5663833  53.4776493
  51.0008553  44.8503833  57.8376493  51.1648553  45.1333833  58.6466493
  51.2638553  45.5113833  57.3326493  51.0638553  44.9903833  57.8826493
  55.8418553  29.7993833  56.5476493  55.2048553  29.3993833  56.1056493
  55.8678553  29.3683833  57.3056493  55.7518553  29.6773833  56.5936493
  50.5408553  39.3073833  53.1606493  50.3858553  39.9173833  53.7646493
  51.0748553  38.7493833  53.5666493  50.5968553  39.3153833  53.3096493
  48.9248553  37.7073833  43.8186493  48.9838553  38.3573833  44.3976493
  48.7358553  37.0113833  44.3096493  48.9058553  37.7003833  43.9766493
  54.1508553  42.0363833  49.6876493  53.6718553  42.3343833  49.0216493
  53.7948553  41.2603833  49.8656493  54.0278553  41.9653833  49.6156493
  48.1478553  39.7543833  48.2496493  47.3008553  39.5603833  48.3306493
  48.4718553  39.5893833  49.0426493  48.0698553  39.7013833  48.3786493
  44.8998553  46.4843833  39.1356493  45.3388553  45.7873833  39.4236493
  45.1068553  47.1083833  39.7086493  44.9958553  46.4733833  39.2626493
  41.9958553  39.4473833  50.5656493  42.7178553  39.9353833  50.5286493
  41.7258553  39.4173833  49.7366493  42.0628553  39.5153833  50.4376493
  57.8428553  46.2023833  41.6276493  58.5368553  45.7353833  41.3796493
  57.3038553  45.6043833  41.9646493  57.8658553  46.0443833  41.6406493
  55.0818553  38.9783833  50.8066493  55.0748553  38.2023833  51.2046493
  54.2408553  39.2123833  50.7996493  54.9568553  38.8983833  50.8646493
  56.3378553  39.0493833  48.2436493  56.0518553  39.4503833  48.9636493
  57.1978553  38.9873833  48.3706493  56.4228553  39.0993833  48.3686493
  46.0268553  35.8513833  42.1516493  46.2988553  36.6773833  42.2186493
  45.1638553  35.9263833  42.0556493  45.9398553  35.9843833  42.1466493
  53.9998553  32.9733833  56.7836493  53.4748553  33.4323833  57.3076493
  53.6388553  32.1783833  56.7776493  53.8688553  32.9233833  56.8596493
  57.4688553  44.6823833  48.7726493  57.7588553  44.9393833  47.9916493
  58.1638553  44.7783833  49.2916493  57.6148553  44.7343833  48.7336493
  52.4918553  36.5423833  56.8596493  52.5648553  36.6463833  57.7226493
  51.8578553  37.1003833  56.6386493  52.4088553  36.6403833  56.9546493
  54.7598553  36.8613833  55.2246493  55.0788553  37.6473833  55.4276493
  54.3898553  36.5913833  55.9676493  54.7528553  36.9373833  55.3646493
  54.0738553  43.2853833  40.7546493  54.4078553  42.4793833  40.7896493
  53.3188553  43.2133833  41.1846493  54.0118553  43.1553833  40.8236493
  54.5558553  35.1193833  46.4136493  53.8108553  34.7963833  46.7316493
  54.5578553  35.9453833  46.6936493  54.4458553  35.1933833  46.5016493
  57.4578553  37.4033833  57.9596493  57.4058553  37.0623833  57.1586493
  58.1948553  37.8703833  57.9376493  57.5588553  37.4223833  57.8376493
  56.9958553  41.0793833  54.1656493  57.6238553  40.5303833  53.9096493
  56.9348553  41.6443833  53.5036493  57.0798553  41.0823833  54.0296493
  51.4478553  41.1603833  40.1576493  52.1318553  40.6463833  39.9886493
  51.0308553  41.2063833  39.3926493  51.4868553  41.0913833  40.0196493
  46.1298553  42.3103833  51.4616493  45.8318553  42.9023833  52.0286493
  46.1848553  42.7523833  50.7126493  46.0938553  42.4633833  51.4346493
  44.1088553  41.2603833  54.8596493  43.3028553  40.9703833  55.0266493
  44.0198553  42.1283833  54.8656493  43.9768553  41.3453833  54.8846493
  53.4678553  31.4493833  53.8746493  54.2118553  31.9013833  53.8116493
  52.9018553  31.9193833  53.4056493  53.4948553  31.5863833  53.7966493
  48.6458553  38.7333833  50.9526493  49.1218553  39.1073833  51.5806493
  47.8228553  38.8673833  51.2116493  48.5948553  38.8083833  51.0836493
  45.3558553  34.3363833  53.6936493  45.5168553  33.5923833  54.1206493
  45.3108553  34.0873833  52.8586493  45.3728553  34.1893833  53.6336493
  54.7528553  29.4293833  51.5446493  54.4728553  30.2543833  51.5006493
  55.4688553  29.4823833  52.0406493  54.8178553  29.5593833  51.6116493
  46.0928553  44.3543833  49.5696493  45.4688553  44.9363833  49.3876493
  46.3408553  44.0683833  48.7836493  46.0368553  44.3983833  49.4266493
  50.4018553  40.9883833  56.5586493  51.1588553  41.2743833  56.2326493
  49.8548553  41.0403833  55.8806493  50.4328553  41.0383833  56.4096493
  54.3108553  43.5383833  55.0626493  54.6568553  43.8083833  55.8166493
  54.6048553  44.1203833  54.4826493  54.4058553  43.6643833  55.0886493
  56.1738553  35.6843833  40.4016493  56.5518553  36.3613833  40.0016493
  55.3318553  35.9083833  40.4326493  56.1048553  35.8173833  40.3466493
  47.6868553  39.1303833  39.4846493  46.8818553  38.9533833  39.1996493
  47.6538553  39.9813833  39.6766493  47.5628553  39.2293833  39.4716493
  43.6168553  35.1973833  49.6346493  44.0568553  35.0943833  48.8886493
  44.1618553  34.8843833  50.2396493  43.7618553  35.1363833  49.6136493
  51.6328553  34.2993833  55.2266493  50.9848553  34.7693833  55.5746493
  52.1978553  34.2103833  55.8856493  51.6208553  34.3553833  55.3756493
  51.3208553  35.8363833  51.5246493  51.6228553  36.2563833  52.2276493
  51.3568553  34.9963833  51.7566493  51.3708553  35.7743833  51.6626493
  48.7458553  46.0033833  55.4496493  49.2238553  45.4033833  55.0336493
  48.3948553  45.5603833  56.1146493  48.7648553  45.8493833  55.4866493
  53.8688553  35.2833833  43.7766493  54.0758553  35.0823833  44.6006493
  54.6248553  35.5513833  43.4346493  54.0108553  35.2933833  43.8476493
  47.1638553  30.1823833  49.6816493  46.3378553  30.0333833  49.9186493
  47.1238553  30.2173833  48.8106493  47.0358553  30.1653833  49.5876493
  54.8908553  31.3663833  45.2506493  54.1768553  30.8953833  45.4216493
  54.7288553  31.7073833  44.4646493  54.7618553  31.3473833  45.1596493
  55.3338553  39.3103833  43.6306493  55.8098553  38.5813833  43.5826493
  54.5128553  39.0243833  43.5546493  55.2828553  39.1603833  43.6116493
  44.6348553  47.4293833  49.7866493  44.6458553  47.4883833  50.6566493
  44.2098553  46.6823833  49.6366493  44.5738553  47.3273833  49.8926493
  51.5498553  40.4773833  45.9856493  51.6258553  40.8183833  46.7846493
  51.7188553  39.6303833  46.1066493  51.5858553  40.4023833  46.1216493
  49.0718553  39.7513833  45.5506493  48.7738553  39.4363833  46.3076493
  49.7668553  40.2243833  45.7856493  49.1308553  39.7743833  45.6976493
  49.2938553  43.8693833  53.5776493  49.9808553  43.7553833  54.1026493
  49.4278553  44.6603833  53.2336493  49.4148553  43.9693833  53.6046493
  57.4698553  36.4783833  55.3886493  56.6148553  36.3563833  55.5146493
  57.6228553  36.0833833  54.6256493  57.3658553  36.4013833  55.2946493
  51.9828553  37.1433833  53.9646493  51.7278553  36.4243833  54.3866493
  52.8038553  37.2593833  54.2346493  52.0668553  37.0543833  54.0666493
  49.9168553  38.3333833  57.1516493  50.2398553  39.0193833  56.7196493
  49.2128553  38.6563833  57.5536493  49.8598553  38.4823833  57.1466493
  53.0008553  46.7073833  48.0806493  52.5498553  47.3503833  48.4596493
  53.7088553  46.6283833  48.5856493  53.0388553  46.7903833  48.2116493
  49.7018553  41.7973833  51.0106493  49.0078553  42.1993833  51.3536493
  50.3788553  42.2303833  51.3496493  49.6988553  41.9203833  51.1116493
  55.0788553  44.3903833  57.5906493  55.8548553  44.0003833  57.6736493
  54.6098553  44.0543833  58.2456493  55.1238553  44.2833833  57.6996493
  42.7698553  35.3353833  53.3576493  43.1448553  35.9543833  52.8706493
  43.4438553  34.8613833  53.6426493  42.9248553  35.3573833  53.3276493
  56.1038553  36.4233833  43.0726493  56.2068553  36.3653833  42.2086493
  56.8448553  36.0913833  43.3906493  56.2288553  36.3663833  42.9916493
  43.0988553  31.1933833  55.0436493  43.0178553  30.3493833  55.2496493
  42.7848553  31.2373833  54.2306493  43.0408553  31.0753833  54.9536493
  50.0238553  43.3883833  44.1796493  49.8188553  44.2213833  44.0206493
  49.2488553  43.0063833  44.3016493  49.8788553  43.4553833  44.1746493
  55.2058553  36.5693833  52.4286493  55.2038553  35.7063833  52.5526493
  55.2728553  36.8933833  53.2356493  55.2158553  36.4893833  52.5656493
  51.0848553  31.3693833  56.2106493  51.1768553  32.0813833  56.7046493
  50.4478553  30.9243833  56.6076493  51.0038553  31.4083833  56.3426493
  50.0788553  31.5593833  47.0646493  49.3788553  32.0773833  47.0086493
  50.1168553  31.1793833  46.2806493  49.9808553  31.5803833  46.9406493
  45.3858553  43.6503833  40.5886493  45.8268553  43.7303833  41.3366493
  44.5808553  43.4343833  40.8466493  45.3318553  43.6303833  40.7376493
  53.6768553  32.0753833  49.8646493  54.5318553  32.1743833  50.0096493
  53.3078553  32.6283833  50.4296493  53.7488553  32.1723833  49.9696493
  44.7048553  38.3013833  54.2416493  44.3088553  39.0753833  54.3166493
  44.2988553  37.9283833  53.5656493  44.5868553  38.3603833  54.1526493
  53.9808553  37.3553833  48.3556493  54.6468553  37.8963833  48.5156493
  53.6358553  37.6663833  47.6166493  54.0278553  37.4813833  48.2706493
  54.2938553  45.4213833  44.1626493  54.1198553  44.7673833  44.7126493
  55.0068553  45.1503833  43.7396493  54.3738553  45.2843833  44.1816493
  45.5338553  40.9653833  39.9326493  44.7158553  40.6973833  40.0726493
  45.5058553  41.8173833  40.1176493  45.4088553  41.0523833  39.9806493
  45.1338553  31.2783833  51.6916493  44.2698553  31.3623833  51.7716493
  45.3538553  30.7643833  52.3606493  45.0388553  31.2153833  51.8026493
  57.1518553  29.9133833  53.0206493  57.0998553  29.8693833  53.8906493
  57.8388553  29.4103833  52.8306493  57.2458553  29.8333833  53.1206493
  49.2368553  32.0263833  50.0656493  48.4998553  31.5723833  50.1786493
  49.8078553  31.6243833  50.5886493  49.2118553  31.8993833  50.1596493
  51.9688553  42.8743833  51.8536493  52.1748553  43.1753833  52.6456493
  51.9078553  43.5963833  51.3686493  51.9898553  43.0253833  51.8986493
  51.5028553  47.0883833  56.0996493  50.7498553  47.0703833  55.6586493
  51.6708553  47.9403833  56.1836493  51.4168553  47.2113833  56.0466493
  46.7398553  36.3553833  55.2696493  46.4178553  35.7793833  54.6996493
  46.3808553  37.1103833  55.0236493  46.6398553  36.3813833  55.1496493
  56.7808553  41.5133833  51.3116493  56.7488553  40.6513833  51.1766493
  56.0878553  41.8153833  50.8776493  56.6738553  41.4303833  51.2276493
  45.1748553  46.7113833  55.5176493  45.2158553  46.8373833  56.3806493
  45.8258553  46.1513833  55.3616493  45.2768553  46.6473833  55.6226493
  54.8858553  44.7733833  50.1086493  55.4128553  44.6903833  49.4176493
  54.4948553  43.9953833  50.1626493  54.9058553  44.6463833  50.0146493
  51.3998553  30.2173833  49.3166493  52.0698553  30.7613833  49.4436493
  50.8968553  30.6413833  48.7436493  51.4248553  30.3603833  49.2506493
  42.7678553  45.0943833  56.8776493  43.3628553  45.5253833  57.3496493
  42.4038553  45.7183833  56.3886493  42.8018553  45.2503833  56.8746493
  50.7588553  36.0253833  46.8096493  51.3098553  35.4183833  47.1096493
  50.3338553  36.2883833  47.5246493  50.7778553  35.9743833  46.9586493
  52.7288553  37.8563833  43.3716493  52.7968553  37.0063833  43.5526493
  51.9058553  37.9423833  43.0936493  52.6168553  37.7433833  43.3576493
  55.8078553  46.8113833  39.7896493  56.4448553  46.6773833  40.3706493
  55.4668553  46.0173833  39.6726493  55.8518553  46.6743833  39.8576493
  56.0028553  39.2293833  56.5226493  56.6368553  39.0593833  57.0966493
  56.4198553  39.6323833  55.8706493  56.1578553  39.2643833  56.5116493
  51.8828553  43.0763833  42.1116493  51.6318553  42.9483833  42.9376493
  51.5658553  42.3813833  41.6906493  51.7988553  42.9553833  42.1716493
  56.6278553  33.7933833  57.2606493  56.4318553  34.4373833  57.8156493
  55.9058553  33.3033833  57.2526493  56.4928553  33.8163833  57.3416493
  56.5268553  34.7343833  50.2316493  55.6938553  34.9843833  50.1596493
  56.4708553  33.8943833  50.4606493  56.3958553  34.6473833  50.2546493
  45.7868553  31.7223833  55.4256493  46.0208553  31.1463833  54.8126493
  44.9448553  31.5413833  55.5666493  45.6968553  31.6103833  55.3556493
  53.4138553  39.3403833  57.8776493  54.2848553  39.3043833  57.8416493
  53.1948553  39.7603833  57.1456493  53.5108553  39.3963833  57.7646493
  48.7688553  41.2843833  41.5416493  49.4858553  40.9373833  41.1856493
  48.7348553  42.0843833  41.1936493  48.8698553  41.3513833  41.4376493
  49.9868553  36.8413833  30.4514083  49.4628553  37.4373833  30.8144083
  50.3838553  36.4733833  31.1354083  49.9678553  36.8753833  30.6064083
  56.1308553  44.2823833  23.4224083  56.8318553  43.7633833  23.4184083
  55.5438553  43.8373833  22.9534083  56.1478553  44.1393833  23.3524083
  52.6578553  37.9083833  27.1274083  52.7378553  37.9123833  26.2584083
  52.0738553  37.2763833  27.2764083  52.5828553  37.8153833  27.0214083
  41.2558553  44.7683833  21.0634083  41.7228553  44.8523833  20.3314083
  41.7108553  44.1903833  21.5324083  41.3918553  44.6953833  21.0244083
  47.5038553  41.7673833  25.2084083  47.8348553  41.1233833  25.6944083
  47.7438553  41.5563833  24.3974083  47.5878553  41.6413833  25.1604083
  54.0298553  28.8583833  35.6614083  53.8718553  29.6273833  35.2794083
  53.2578553  28.6383833  36.0054083  53.8918553  28.9393833  35.6564083
  51.4918553  33.4993833  20.1754083  51.0418553  34.1803833  20.4824083
  51.6058553  32.9953833  20.8784083  51.4428553  33.5253833  20.3244083
  45.4478553  43.5523833  24.7574083  44.8688553  43.2773833  25.3494083
  46.0718553  42.9433833  24.7824083  45.4548553  43.4223833  24.8484083
  51.5908553  45.8403833  22.2794083  52.3178553  46.3123833  22.3814083
  51.8198553  45.0463833  22.5594083  51.7328553  45.7933833  22.3364083
  49.7588553  46.2323833  24.2694083  49.9728553  46.7593833  24.9314083
  50.5258553  46.0583833  23.8904083  49.9038553  46.2843833  24.3114083
  56.8858553  33.4723833  26.4704083  56.5398553  34.1503833  26.8964083
  56.2498553  32.8743833  26.4864083  56.7408553  33.4843833  26.5354083
  52.1978553  46.2423833  32.5744083  52.9418553  46.6983833  32.5644083
  52.0768553  46.0283833  31.7374083  52.2898553  46.2783833  32.4494083
  49.0088553  35.1143833  26.0914083  49.2958553  34.8823833  25.3014083
  49.7408553  35.1933833  26.5604083  49.1588553  35.0913833  26.0444083
  53.7718553  47.4273833  22.6794083  54.4368553  47.2793833  22.1344083
  54.1318553  47.3443833  23.4694083  53.9238553  47.3933833  22.7154083
  44.1998553  46.9363833  33.7444083  44.4918553  46.8693833  34.5644083
  43.5738553  46.3313833  33.6994083  44.1508553  46.8373833  33.8594083
  56.5608553  31.7953833  31.8394083  57.3178553  31.8673833  31.4114083
  56.6238553  31.0223833  32.2384083  56.6818553  31.6923833  31.8344083
  51.4518553  43.4273833  36.2784083  51.4178553  43.8093833  37.0624083
  52.3058553  43.3853833  36.1074083  51.5728553  43.4773833  36.3694083
  52.0968553  31.5203833  22.0824083  52.6368553  30.8383833  22.1584083
  52.1588553  31.9183833  22.8564083  52.1858553  31.4783833  22.2084083
  49.9038553  46.5913833  33.7764083  50.6718553  46.5113833  33.3704083
  49.3208553  46.4703833  33.1384083  49.9308553  46.5613833  33.6224083
  49.3548553  30.8373833  23.2874083  48.8998553  30.4353833  22.6614083
  50.1278553  30.9923833  22.9124083  49.4018553  30.8013833  23.1394083
  56.1808553  47.1943833  26.6774083  55.7258553  47.9113833  26.8784083
  55.5668553  46.6233833  26.4354083  56.0228553  47.2163833  26.6714083
  53.1778553  43.0393833  26.2214083  53.8788553  42.5573833  26.4104083
  52.5178553  42.4703833  26.2664083  53.1838553  42.8843833  26.2554083
  51.7448553  33.3743833  33.6974083  51.6498553  33.6933833  34.5034083
  51.1518553  32.7353833  33.6594083  51.6428553  33.3263833  33.8114083
  52.4438553  40.0933833  31.9024083  51.9298553  39.6813833  32.4734083
  52.3178553  40.9373833  32.0834083  52.3498553  40.1573833  32.0134083
  53.0008553  29.3183833  26.5334083  53.0498553  29.0003833  27.3444083
  53.3238553  28.6743833  26.0404083  53.0558553  29.1763833  26.5804083
  55.4648553  33.5543833  34.8414083  56.2368553  33.3293833  35.1784083
  54.9898553  33.7713833  35.5414083  55.5088553  33.5533833  34.9944083
  57.9308553  45.0413833  36.2834083  57.2488553  45.3513833  35.8364083
  57.5618553  44.5833833  36.9284083  57.7748553  45.0193833  36.3124083
  53.5918553  37.0693833  21.6144083  53.3718553  37.8003833  21.1924083
  53.1438553  37.1203833  22.3614083  53.4928553  37.1843833  21.6624083
  57.7788553  31.9303833  21.0674083  57.1168553  31.3623833  21.0904083
  57.5858553  32.4423833  20.3874083  57.6528553  31.9223833  20.9704083
  47.0038553  35.6243833  39.0114083  46.5198553  36.2013833  39.4534083
  46.9758553  35.9193833  38.1904083  46.9278553  35.7533833  38.9554083
  58.1018553  36.3083833  33.6234083  58.3168553  35.5083833  33.3474083
  57.2518553  36.3683833  33.4344083  58.0078553  36.1993833  33.5544083
  55.7808553  31.4883833  23.3464083  56.5268553  31.0813833  23.5454083
  56.0438553  32.2033833  22.9214083  55.9298553  31.5343833  23.3134083
  52.2348553  33.7763833  28.4194083  52.5788553  33.9283833  29.2064083
  51.7818553  33.0383833  28.5324083  52.2188553  33.6893833  28.5524083
  39.4248553  41.2113833  21.2214083  40.1808553  40.7793833  21.2794083
  39.4398553  41.7433833  21.9124083  39.5388553  41.2263833  21.3324083
  55.7648553  45.4233833  34.3734083  55.0938553  45.9373833  34.5914083
  55.8278553  45.5233833  33.5094083  55.6748553  45.5143833  34.2784083
  53.5558553  35.1083833  30.9734083  52.8938553  35.4363833  31.4364083
  53.7428553  35.7423833  30.4044083  53.4858553  35.2503833  30.9574083
  51.7488553  33.0773833  24.4844083  52.2388553  33.7943833  24.4074083
  50.9588553  33.3383833  24.2214083  51.7048553  33.2213833  24.4344083
  53.0628553  40.9553833  36.3944083  53.5468553  41.6733833  36.4924083
  53.4568553  40.5283833  35.7434083  53.1928553  40.9983833  36.3124083
  47.3588553  43.8003833  37.5714083  47.7128553  43.6223833  38.3484083
  46.9228553  43.0713833  37.3724083  47.3468553  43.6663833  37.6574083
  50.5198553  37.7163833  22.4834083  50.5118553  38.4383833  21.9934083
  49.8808553  37.8513833  23.0604083  50.4248553  37.8433833  22.4964083
  55.4918553  41.5863833  26.4644083  55.8478553  41.2363833  27.1794083
  55.4838553  40.9253833  25.8944083  55.5438553  41.4363833  26.4854083
  45.4418553  46.3153833  24.1564083  45.2948553  45.5393833  24.5274083
  46.1308553  46.1683833  23.6414083  45.5218553  46.1783833  24.1354083
  47.7338553  45.8313833  22.5584083  48.3558553  45.9943833  23.1484083
  47.7698553  46.5223833  22.0264083  47.8308553  45.9573833  22.5674083
  54.8098553  39.5013833  34.5544083  54.8648553  39.6263833  33.6924083
  55.5628553  39.8213833  34.8564083  54.9288553  39.5663833  34.4714083
  51.0008553  44.8503833  38.8314083  51.1648553  45.1333833  39.6404083
  51.2638553  45.5113833  38.3264083  51.0638553  44.9903833  38.8764083
  55.8418553  29.7993833  37.5414083  55.2048553  29.3993833  37.0994083
  55.8678553  29.3683833  38.2994083  55.7518553  29.6773833  37.5874083
  50.5408553  39.3073833  34.1544083  50.3858553  39.9173833  34.7584083
  51.0748553  38.7493833  34.5604083  50.5968553  39.3153833  34.3034083
  48.9248553  37.7073833  24.8124083  48.9838553  38.3573833  25.3914083
  48.7358553  37.0113833  25.3034083  48.9058553  37.7003833  24.9704083
  54.1508553  42.0363833  30.6814083  53.6718553  42.3343833  30.0154083
  53.7948553  41.2603833  30.8594083  54.0278553  41.9653833  30.6094083
  44.8998553  46.4843833  20.1294083  45.3388553  45.7873833  20.4174083
  45.1068553  47.1083833  20.7024083  44.9958553  46.4733833  20.2564083
  57.8428553  46.2023833  22.6214083  58.5368553  45.7353833  22.3734083
  57.3038553  45.6043833  22.9584083  57.8658553  46.0443833  22.6344083
  55.0818553  38.9783833  31.8004083  55.0748553  38.2023833  32.1984083
  54.2408553  39.2123833  31.7934083  54.9568553  38.8983833  31.8584083
  56.3378553  39.0493833  29.2374083  56.0518553  39.4503833  29.9574083
  57.1978553  38.9873833  29.3644083  56.4228553  39.0993833  29.3624083
  57.4688553  44.6823833  29.7664083  57.7588553  44.9393833  28.9854083
  58.1638553  44.7783833  30.2854083  57.6148553  44.7343833  29.7274083
  52.4918553  36.5423833  37.8534083  52.5648553  36.6463833  38.7164083
  51.8578553  37.1003833  37.6324083  52.4088553  36.6403833  37.9484083
  54.7598553  36.8613833  36.2184083  55.0788553  37.6473833  36.4214083
  54.3898553  36.5913833  36.9614083  54.7528553  36.9373833  36.3584083
  54.0738553  43.2853833  21.7484083  54.4078553  42.4793833  21.7834083
  53.3188553  43.2133833  22.1784083  54.0118553  43.1553833  21.8174083
  57.4578553  37.4033833  38.9534083  57.4058553  37.0623833  38.1524083
  58.1948553  37.8703833  38.9314083  57.5588553  37.4223833  38.8314083
  56.9958553  41.0793833  35.1594083  57.6238553  40.5303833  34.9034083
  56.9348553  41.6443833  34.4974083  57.0798553  41.0823833  35.0234083
  51.4478553  41.1603833  21.1514083  52.1318553  40.6463833  20.9824083
  51.0308553  41.2063833  20.3864083  51.4868553  41.0913833  21.0134083
  53.4678553  31.4493833  34.8684083  54.2118553  31.9013833  34.8054083
  52.9018553  31.9193833  34.3994083  53.4948553  31.5863833  34.7904083
  54.7528553  29.4293833  32.5384083  54.4728553  30.2543833  32.4944083
  55.4688553  29.4823833  33.0344083  54.8178553  29.5593833  32.6054083
  50.4018553  40.9883833  37.5524083  51.1588553  41.2743833  37.2264083
  49.8548553  41.0403833  36.8744083  50.4328553  41.0383833  37.4034083
  54.3108553  43.5383833  36.0564083  54.6568553  43.8083833  36.8104083
  54.6048553  44.1203833  35.4764083  54.4058553  43.6643833  36.0824083
  56.1738553  35.6843833  21.3954083  56.5518553  36.3613833  20.9954083
  55.3318553  35.9083833  21.4264083  56.1048553  35.8173833  21.3404083
  47.6868553  39.1303833  20.4784083  46.8818553  38.9533833  20.1934083
  47.6538553  39.9813833  20.6704083  47.5628553  39.2293833  20.4654083
  51.6328553  34.2993833  36.2204083  50.9848553  34.7693833  36.5684083
  52.1978553  34.2103833  36.8794083  51.6208553  34.3553833  36.3694083
  51.3208553  35.8363833  32.5184083  51.6228553  36.2563833  33.2214083
  51.3568553  34.9963833  32.7504083  51.3708553  35.7743833  32.6564083
  48.7458553  46.0033833  36.4434083  49.2238553  45.4033833  36.0274083
  48.3948553  45.5603833  37.1084083  48.7648553  45.8493833  36.4804083
  53.8688553  35.2833833  24.7704083  54.0758553  35.0823833  25.5944083
  54.6248553  35.5513833  24.4284083  54.0108553  35.2933833  24.8414083
  54.8908553  31.3663833  26.2444083  54.1768553  30.8953833  26.4154083
  54.7288553  31.7073833  25.4584083  54.7618553  31.3473833  26.1534083
  55.3338553  39.3103833  24.6244083  55.8098553  38.5813833  24.5764083
  54.5128553  39.0243833  24.5484083  55.2828553  39.1603833  24.6054083
  51.5498553  40.4773833  26.9794083  51.6258553  40.8183833  27.7784083
  51.7188553  39.6303833  27.1004083  51.5858553  40.4023833  27.1154083
  49.0718553  39.7513833  26.5444083  48.7738553  39.4363833  27.3014083
  49.7668553  40.2243833  26.7794083  49.1308553  39.7743833  26.6914083
  49.2938553  43.8693833  34.5714083  49.9808553  43.7553833  35.0964083
  49.4278553  44.6603833  34.2274083  49.4148553  43.9693833  34.5984083
  57.4698553  36.4783833  36.3824083  56.6148553  36.3563833  36.5084083
  57.6228553  36.0833833  35.6194083  57.3658553  36.4013833  36.2884083
  51.9828553  37.1433833  34.9584083  51.7278553  36.4243833  35.3804083
  52.8038553  37.2593833  35.2284083  52.0668553  37.0543833  35.0604083
  41.3988553  46.9273833  36.2224083  40.7448553  46.3583833  36.3204083
  41.0238553  47.7003833  36.3734083  41.2468553  46.9573833  36.2594083
  49.9168553  38.3333833  38.1454083  50.2398553  39.0193833  37.7134083
  49.2128553  38.6563833  38.5474083  49.8598553  38.4823833  38.1404083
  53.0008553  46.7073833  29.0744083  52.5498553  47.3503833  29.4534083
  53.7088553  46.6283833  29.5794083  53.0388553  46.7903833  29.2054083
  55.0788553  44.3903833  38.5844083  55.8548553  44.0003833  38.6674083
  54.6098553  44.0543833  39.2394083  55.1238553  44.2833833  38.6934083
  56.1038553  36.4233833  24.0664083  56.2068553  36.3653833  23.2024083
  56.8448553  36.0913833  24.3844083  56.2288553  36.3663833  23.9854083
  50.0238553  43.3883833  25.1734083  49.8188553  44.2213833  25.0144083
  49.2488553  43.0063833  25.2954083  49.8788553  43.4553833  25.1684083
  55.2058553  36.5693833  33.4224083  55.2038553  35.7063833  33.5464083
  55.2728553  36.8933833  34.2294083  55.2158553  36.4893833  33.5594083
  51.0848553  31.3693833  37.2044083  51.1768553  32.0813833  37.6984083
  50.4478553  30.9243833  37.6014083  51.0038553  31.4083833  37.3364083
  45.3858553  43.6503833  21.5824083  45.8268553  43.7303833  22.3304083
  44.5808553  43.4343833  21.8404083  45.3318553  43.6303833  21.7314083
  53.6768553  32.0753833  30.8584083  54.5318553  32.1743833  31.0034083
  53.3078553  32.6283833  31.4234083  53.7488553  32.1723833  30.9634083
  53.9808553  37.3553833  29.3494083  54.6468553  37.8963833  29.5094083
  53.6358553  37.6663833  28.6104083  54.0278553  37.4813833  29.2644083
  54.2938553  45.4213833  25.1564083  54.1198553  44.7673833  25.7064083
  55.0068553  45.1503833  24.7334083  54.3738553  45.2843833  25.1754083
  42.7148553  42.7203833  22.1834083  42.4708553  42.4133833  22.9634083
  42.6818553  42.0173833  21.6674083  42.6738553  42.5713833  22.2224083
  45.5338553  40.9653833  20.9264083  44.7158553  40.6973833  21.0664083
  45.5058553  41.8173833  21.1114083  45.4088553  41.0523833  20.9744083
  57.1518553  29.9133833  34.0144083  57.0998553  29.8693833  34.8844083
  57.8388553  29.4103833  33.8244083  57.2458553  29.8333833  34.1144083
  56.7808553  41.5133833  32.3054083  56.7488553  40.6513833  32.1704083
  56.0878553  41.8153833  31.8714083  56.6738553  41.4303833  32.2214083
  45.1748553  46.7113833  36.5114083  45.2158553  46.8373833  37.3744083
  45.8258553  46.1513833  36.3554083  45.2768553  46.6473833  36.6164083
  54.8858553  44.7733833  31.1024083  55.4128553  44.6903833  30.4114083
  54.4948553  43.9953833  31.1564083  54.9058553  44.6463833  31.0084083
  51.3998553  30.2173833  30.3104083  52.0698553  30.7613833  30.4374083
  50.8968553  30.6413833  29.7374083  51.4248553  30.3603833  30.2444083
  42.7678553  45.0943833  37.8714083  43.3628553  45.5253833  38.3434083
  42.4038553  45.7183833  37.3824083  42.8018553  45.2503833  37.8684083
  50.7588553  36.0253833  27.8034083  51.3098553  35.4183833  28.1034083
  50.3338553  36.2883833  28.5184083  50.7778553  35.9743833  27.9524083
  52.7288553  37.8563833  24.3654083  52.7968553  37.0063833  24.5464083
  51.9058553  37.9423833  24.0874083  52.6168553  37.7433833  24.3514083
  42.4808553  46.3503833  23.5754083  42.3358553  46.5063833  22.7294083
  43.3468553  46.4293833  23.6534083  42.5878553  46.3853833  23.4624083
  46.6478553  38.7473833  23.3034083  46.7478553  38.8863833  22.4484083
  47.4658553  38.6873833  23.5994083  46.7828553  38.7583833  23.2204083
  55.8078553  46.8113833  20.7834083  56.4448553  46.6773833  21.3644083
  55.4668553  46.0173833  20.6664083  55.8518553  46.6743833  20.8514083
  56.0028553  39.2293833  37.5164083  56.6368553  39.0593833  38.0904083
  56.4198553  39.6323833  36.8644083  56.1578553  39.2643833  37.5054083
  51.8828553  43.0763833  23.1054083  51.6318553  42.9483833  23.9314083
  51.5658553  42.3813833  22.6844083  51.7988553  42.9553833  23.1654083
  56.6278553  33.7933833  38.2544083  56.4318553  34.4373833  38.8094083
  55.9058553  33.3033833  38.2464083  56.4928553  33.8163833  38.3354083
  56.5268553  34.7343833  31.2254083  55.6938553  34.9843833  31.1534083
  56.4708553  33.8943833  31.4544083  56.3958553  34.6473833  31.2484083
  53.4138553  39.3403833  38.8714083  54.2848553  39.3043833  38.8354083
  53.1948553  39.7603833  38.1394083  53.5108553  39.3963833  38.7584083
  48.7688553  41.2843833  22.5354083  49.4858553  40.9373833  22.1794083
  48.7348553  42.0843833  22.1874083  48.8698553  41.3513833  22.4314083
  50.1778553  29.9253833   6.7741673  49.9328553  30.4133833   6.0941673
  51.0408553  29.8523833   6.6741673  50.2688553  29.9863833   6.6591673
  49.9868553  36.8413833  11.4451673  49.4628553  37.4373833  11.8081673
  50.3838553  36.4733833  12.1291673  49.9678553  36.8753833  11.6001673
  39.8558553  40.9813833   6.9011673  39.4148553  41.0993833   7.6441673
  39.5728553  40.2063833   6.6161673  39.7488553  40.8843833   6.9691673
  56.1308553  44.2823833   4.4161673  56.8318553  43.7633833   4.4121673
  55.5438553  43.8373833   3.9471673  56.1478553  44.1393833   4.3461673
  39.5988553  34.7733833   3.4081673  38.8208553  34.9353833   3.0481673
  39.6378553  33.9023833   3.4301673  39.4898553  34.6683833   3.3581673
  42.7378553  40.0363833   2.0801673  42.3458553  39.6653833   1.3941673
  42.6578553  39.4383833   2.7091673  42.6678553  39.8933833   2.0711673
  52.6578553  37.9083833   8.1211673  52.7378553  37.9123833   7.2521673
  52.0738553  37.2763833   8.2701673  52.5828553  37.8153833   8.0151673
  42.3648553  41.6773833   5.9801673  42.9728553  41.5073833   6.5831673
  41.6138553  41.5373833   6.4011673  42.3438553  41.6313833   6.1311673
  46.6468553  31.0123833   5.9291673  46.5768553  31.6893833   5.3831673
  47.3878553  30.6243833   5.6801673  46.7458553  31.0553833   5.8111673
  41.2558553  44.7683833   2.0571673  41.7228553  44.8523833   1.3251673
  41.7108553  44.1903833   2.5261673  41.3918553  44.6953833   2.0181673
  39.7958553  43.7163833  13.1561673  39.9248553  43.4363833  13.9721673
  39.1858553  43.1753833  12.8471673  39.7248553  43.5953833  13.2311673
  46.3698553  41.2413833  18.2231673  46.1338553  41.2383833  19.0631673
  45.6218553  41.0933833  17.7991673  46.2238553  41.2183833  18.2841673
  41.2418553  38.2373833   7.3581673  40.7798553  37.8453833   6.7311673
  41.9418553  37.7243833   7.4501673  41.2768553  38.1043833   7.2791673
  45.7498553  33.8473833  12.7051673  46.4278553  33.8653833  12.1561673
  45.7048553  33.0113833  12.9501673  45.8428553  33.7263833  12.6601673
  46.3518553  44.4333833  15.4861673  46.4898553  45.1933833  15.0791673
  47.1428553  44.0683833  15.5131673  46.4888553  44.4923833  15.4301673
  43.2428553  36.3373833   7.3811673  44.0598553  36.1503833   7.6241673
  42.7658553  35.7233833   7.7771673  43.2928553  36.2193833   7.4761673
  47.4468553  42.3183833   9.9911673  47.7948553  41.5193833  10.0211673
  48.1118553  42.8223833   9.7361673  47.5968553  42.2743833   9.9581673
  47.5038553  41.7673833   6.2021673  47.8348553  41.1233833   6.6881673
  47.7438553  41.5563833   5.3911673  47.5878553  41.6413833   6.1541673
  49.4718553  35.8983833  17.5411673  48.6238553  35.7993833  17.3631673
  49.5008553  36.6433833  17.9951673  49.3508553  35.9943833  17.5821673
  43.8398553  31.4313833   6.6471673  43.5438553  31.9323833   5.9971673
  44.7068553  31.5093833   6.5901673  43.9238553  31.5173833   6.5431673
  54.0298553  28.8583833  16.6551673  53.8718553  29.6273833  16.2731673
  53.2578553  28.6383833  16.9991673  53.8918553  28.9393833  16.6501673
  46.8188553  30.5733833   8.8701673  46.8918553  31.4333833   8.9991673
  46.7808553  30.4983833   8.0021673  46.8238553  30.6893833   8.7611673
  39.6978553  35.9983833  10.3711673  39.4418553  36.8293833  10.2961673
  39.0338553  35.6153833  10.7881673  39.5618553  36.0643833  10.4221673
  39.6078553  45.7083833   8.2711673  39.0158553  46.2663833   7.9581673
  40.0338553  45.4393833   7.5591673  39.5838553  45.7503833   8.1201673
  45.4478553  43.5523833   5.7511673  44.8688553  43.2773833   6.3431673
  46.0718553  42.9433833   5.7761673  45.4548553  43.4223833   5.8421673
  51.5908553  45.8403833   3.2731673  52.3178553  46.3123833   3.3751673
  51.8198553  45.0463833   3.5531673  51.7328553  45.7933833   3.3301673
  49.7588553  46.2323833   5.2631673  49.9728553  46.7593833   5.9251673
  50.5258553  46.0583833   4.8841673  49.9038553  46.2843833   5.3051673
  41.1528553  44.3783833   6.2021673  41.8088553  43.8033833   6.2171673
  41.5418553  45.1273833   5.9811673  41.3078553  44.4033833   6.1721673
  56.8858553  33.4723833   7.4641673  56.5398553  34.1503833   7.8901673
  56.2498553  32.8743833   7.4801673  56.7408553  33.4843833   7.5291673
  52.1978553  46.2423833  13.5681673  52.9418553  46.6983833  13.5581673
  52.0768553  46.0283833  12.7311673  52.2898553  46.2783833  13.4431673
  41.9708553  42.8653833   9.7021673  42.3938553  42.5093833   9.0281673
  42.2948553  42.4433833  10.3941673  42.0808553  42.7503833   9.7051673
  45.2018553  45.7173833   8.9981673  46.0458553  45.8213833   8.8031673
  44.9048553  46.5353833   9.0661673  45.2828553  45.8533833   8.9791673
  48.4148553  30.1883833  18.3121673  48.5928553  29.3793833  18.0371673
  48.2718553  30.6293833  17.5731673  48.4198553  30.1343833  18.1621673
  49.0088553  35.1143833   7.0851673  49.2958553  34.8823833   6.2951673
  49.7408553  35.1933833   7.5541673  49.1588553  35.0913833   7.0381673
  49.7308553  35.4533833   2.2061673  50.0118553  36.2413833   2.4551673
  48.9548553  35.6183833   1.8431673  49.6578553  35.5943833   2.1891673
  53.7718553  47.4273833   3.6731673  54.4368553  47.2793833   3.1281673
  54.1318553  47.3443833   4.4631673  53.9238553  47.3933833   3.7091673
  56.5608553  31.7953833  12.8331673  57.3178553  31.8673833  12.4051673
  56.6238553  31.0223833  13.2321673  56.6818553  31.6923833  12.8281673
  51.4518553  43.4273833  17.2721673  51.4178553  43.8093833  18.0561673
  52.3058553  43.3853833  17.1011673  51.5728553  43.4773833  17.3631673
  48.5898553  43.6243833   2.0221673  48.4088553  44.1693833   2.6791673
  49.3558553  43.9143833   1.7211673  48.6758553  43.7483833   2.0751673
  52.0968553  31.5203833   3.0761673  52.6368553  30.8383833   3.1521673
  52.1588553  31.9183833   3.8501673  52.1858553  31.4783833   3.2021673
  40.0508553  32.6883833   5.6451673  39.9368553  31.8243833   5.6761673
  39.5758553  32.9823833   6.3151673  39.9638553  32.6043833   5.7481673
  42.1928553  45.0983833  13.8601673  41.4948553  44.5903833  13.9861673
  42.4528553  44.8933833  13.0521673  42.1278553  44.9933833  13.7591673
  49.3548553  33.8963833   4.3901673  48.8468553  33.2343833   4.1361673
  49.4068553  34.4003833   3.6801673  49.2878553  33.8733833   4.2481673
  49.9038553  46.5913833  14.7701673  50.6718553  46.5113833  14.3641673
  49.3208553  46.4703833  14.1321673  49.9308553  46.5613833  14.6161673
  49.3548553  30.8373833   4.2811673  48.8998553  30.4353833   3.6551673
  50.1278553  30.9923833   3.9061673  49.4018553  30.8013833   4.1331673
  56.1808553  47.1943833   7.6711673  55.7258553  47.9113833   7.8721673
  55.5668553  46.6233833   7.4291673  56.0228553  47.2163833   7.6651673
  47.9528553  33.2043833   8.8031673  48.0268553  33.7723833   8.1451673
  48.0738553  33.6963833   9.5131673  47.9808553  33.3613833   8.8111673
  53.1778553  43.0393833   7.2151673  53.8788553  42.5573833   7.4041673
  52.5178553  42.4703833   7.2601673  53.1838553  42.8843833   7.2491673
  43.5538553  43.9493833  16.4271673  44.3948553  44.0123833  16.2051673
  43.5168553  44.3463833  17.2031673  43.6728553  44.0173833  16.5091673
  42.5608553  29.0273833   7.1511673  43.0968553  29.7153833   7.1411673
  42.5638553  28.7533833   6.3231673  42.6398553  29.0883833   7.0271673
  45.5168553  39.4603833  11.1761673  45.6888553  39.2503833  12.0051673
  44.8618553  38.9263833  10.9601673  45.4458553  39.3503833  11.2671673
  51.7448553  33.3743833  14.6911673  51.6498553  33.6933833  15.4971673
  51.1518553  32.7353833  14.6531673  51.6428553  33.3263833  14.8051673
  46.2668553  39.3983833  13.7661673  46.3198553  40.2453833  13.9681673
  45.9818553  39.0283833  14.5031673  46.2328553  39.4683833  13.9041673
  52.4438553  40.0933833  12.8961673  51.9298553  39.6813833  13.4671673
  52.3178553  40.9373833  13.0771673  52.3498553  40.1573833  13.0071673
  53.0008553  29.3183833   7.5271673  53.0498553  29.0003833   8.3381673
  53.3238553  28.6743833   7.0341673  53.0558553  29.1763833   7.5741673
  39.0878553  43.7693833  19.9771673  39.8438553  44.1183833  20.2351673
  39.2648553  42.9163833  19.9201673  39.2258553  43.6943833  20.0071673
  55.4648553  33.5543833  15.8351673  56.2368553  33.3293833  16.1721673
  54.9898553  33.7713833  16.5351673  55.5088553  33.5533833  15.9881673
  43.0088553  32.8373833   8.8051673  43.2808553  32.4073833   8.0971673
  42.8328553  32.2013833   9.3761673  43.0228553  32.6803833   8.7851673
  55.6968553  40.5323833   3.0231673  55.8158553  40.2453833   3.8381673
  56.5038553  40.5533833   2.6931673  55.8328553  40.4933833   3.0951673
  42.8328553  40.2643833   8.3541673  43.6838553  40.1843833   8.1811673
  42.4758553  39.5823833   7.9421673  42.9058553  40.1513833   8.2671673
  41.5998553  46.9893833   9.5911673  40.9268553  46.4913833   9.3461673
  42.0028553  47.1743833   8.8401673  41.5598553  46.9433833   9.4441673
  41.1498553  33.9393833  11.8871673  41.9928553  34.1593833  11.8441673
  40.7608553  34.5123833  11.3561673  41.2168553  34.0563833  11.8021673
  57.9308553  45.0413833  17.2771673  57.2488553  45.3513833  16.8301673
  57.5618553  44.5833833  17.9221673  57.7748553  45.0193833  17.3061673
  53.5918553  37.0693833   2.6081673  53.3718553  37.8003833   2.1861673
  53.1438553  37.1203833   3.3551673  53.4928553  37.1843833   2.6561673
  45.2008553  40.2713833   6.5891673  45.9138553  40.7663833   6.6791673
  45.4228553  39.7043833   5.9631673  45.3388553  40.2603833   6.5101673
  57.7788553  31.9303833   2.0611673  57.1168553  31.3623833   2.0841673
  57.5858553  32.4423833   1.3811673  57.6528553  31.9223833   1.9641673
  39.3568553  41.9143833   9.9091673  38.6898553  42.4023833  10.1851673
  40.0368553  42.4593833   9.9381673  39.3588553  42.0663833   9.9541673
  58.1018553  36.3083833  14.6171673  58.3168553  35.5083833  14.3411673
  57.2518553  36.3683833  14.4281673  58.0078553  36.1993833  14.5481673
  39.4228553  38.5983833   5.0121673  39.2378553  37.7593833   5.1641673
  40.0818553  38.5623833   4.4421673  39.4928553  38.4693833   4.9501673
  55.7808553  31.4883833   4.3401673  56.5268553  31.0813833   4.5391673
  56.0438553  32.2033833   3.9151673  55.9298553  31.5343833   4.3071673
  49.7238553  43.9743833   8.9161673  49.2008553  44.6083833   8.6231673
  50.0338553  43.6103833   8.1871673  49.6918553  44.0143833   8.7651673
  39.5948553  42.7623833   4.5871673  40.1468553  43.3313833   4.9511673
  39.3628553  42.2473833   5.2521673  39.6418553  42.7703833   4.7391673
  43.7988553  41.7623833  11.6761673  44.2658553  42.0513833  12.3541673
  44.3708553  41.2843833  11.2221673  43.9528553  41.7343833  11.7091673
  52.2348553  33.7763833   9.4131673  52.5788553  33.9283833  10.2001673
  51.7818553  33.0383833   9.5261673  52.2188553  33.6893833   9.5461673
  39.4248553  41.2113833   2.2151673  40.1808553  40.7793833   2.2731673
  39.4398553  41.7433833   2.9061673  39.5388553  41.2263833   2.3261673
  40.3648553  39.4323833  10.2201673  40.7958553  39.3033833   9.4731673
  40.1598553  40.2803833  10.1941673  40.3978553  39.5383833  10.1061673
  46.7108553  32.9963833   3.8701673  46.7088553  32.8793833   3.0051673
  46.5298553  33.8443833   3.9621673  46.6838553  33.1043833   3.7561673
  55.7648553  45.4233833  15.3671673  55.0938553  45.9373833  15.5851673
  55.8278553  45.5233833  14.5031673  55.6748553  45.5143833  15.2721673
  44.4488553  42.9483833   8.5021673  44.5748553  43.7913833   8.6891673
  45.1168553  42.5493833   8.8981673  44.5668553  43.0143833   8.5881673
  43.0638553  35.8283833   3.5041673  42.9358553  35.3803833   4.2421673
  42.4818553  35.4863833   2.9521673  42.9588553  35.7113833   3.5321673
  43.2308553  37.6583833  10.1031673  42.4498553  37.5993833   9.7201673
  43.3028553  36.9063833  10.5401673  43.1258553  37.5393833  10.1111673
  43.6608553  37.3953833  13.5711673  43.6858553  36.7203833  13.0201673
  43.0148553  37.8913833  13.2591673  43.5698553  37.3683833  13.4441673
  53.5558553  35.1083833  11.9671673  52.8938553  35.4363833  12.4301673
  53.7428553  35.7423833  11.3981673  53.4858553  35.2503833  11.9511673
  47.7608553  46.1723833  12.9631673  47.4838553  45.5313833  12.4401673
  47.5528553  46.8983833  12.5251673  47.6898553  46.1853833  12.8211673
  50.2008553  31.0143833  15.3961673  50.3498553  30.1893833  15.1531673
  50.5798553  31.0693833  16.1801673  50.2788553  30.9003833  15.4761673
  51.7488553  33.0773833   5.4781673  52.2388553  33.7943833   5.4011673
  50.9588553  33.3383833   5.2151673  51.7048553  33.2213833   5.4281673
  53.0628553  40.9553833  17.3881673  53.5468553  41.6733833  17.4861673
  53.4568553  40.5283833  16.7371673  53.1928553  40.9983833  17.3061673
  47.3588553  43.8003833  18.5651673  47.7128553  43.6223833  19.3421673
  46.9228553  43.0713833  18.3661673  47.3468553  43.6663833  18.6511673
  48.3308553  34.5473833  11.2031673  48.8108553  35.2463833  11.4111673
  48.7038553  33.9003833  11.6541673  48.4568553  34.5553833  11.3001673
  50.5198553  37.7163833   3.4771673  50.5118553  38.4383833   2.9871673
  49.8808553  37.8513833   4.0541673  50.4248553  37.8433833   3.4901673
  55.4918553  41.5863833   7.4581673  55.8478553  41.2363833   8.1731673
  55.4838553  40.9253833   6.8881673  55.5438553  41.4363833   7.4791673
  51.5368553  44.6523833  11.3021673  50.9338553  44.3563833  10.7451673
  52.0818553  45.1043833  10.7931673  51.5278553  44.6753833  11.1441673
  51.5498553  41.5033833  10.7021673  50.7528553  41.7273833  10.9761673
  51.8078553  40.9093833  11.2871673  51.4698553  41.4483833  10.8291673
  45.4418553  46.3153833   5.1501673  45.2948553  45.5393833   5.5211673
  46.1308553  46.1683833   4.6351673  45.5218553  46.1783833   5.1291673
  45.1128553  30.0583833   3.1381673  45.2098553  29.9513833   3.9991673
  44.4048553  30.5643833   3.0731673  45.0228553  30.1173833   3.2561673
  47.7338553  45.8313833   3.5521673  48.3558553  45.9943833   4.1421673
  47.7698553  46.5223833   3.0201673  47.8308553  45.9573833   3.5611673
  54.8098553  39.5013833  15.5481673  54.8648553  39.6263833  14.6861673
  55.5628553  39.8213833  15.8501673  54.9288553  39.5663833  15.4651673
  51.0008553  44.8503833  19.8251673  51.1648553  45.1333833  20.6341673
  51.2638553  45.5113833  19.3201673  51.0638553  44.9903833  19.8701673
  55.8418553  29.7993833  18.5351673  55.2048553  29.3993833  18.0931673
  55.8678553  29.3683833  19.2931673  55.7518553  29.6773833  18.5811673
  42.2348553  38.3653833   4.3811673  42.5588553  37.5863833   4.1591673
  42.8808553  38.7333833   4.8361673  42.3778553  38.3043833   4.4151673
  50.5408553  39.3073833  15.1481673  50.3858553  39.9173833  15.7521673
  51.0748553  38.7493833  15.5541673  50.5968553  39.3153833  15.2971673
  39.2318553  30.0263833   5.3491673  39.3608553  29.3183833   4.8571673
  38.8648553  29.7083833   6.0741673  39.1968553  29.8743833   5.3841673
  48.9248553  37.7073833   5.8061673  48.9838553  38.3573833   6.3851673
  48.7358553  37.0113833   6.2971673  48.9058553  37.7003833   5.9641673
  54.1508553  42.0363833  11.6751673  53.6718553  42.3343833  11.0091673
  53.7948553  41.2603833  11.8531673  54.0278553  41.9653833  11.6031673
  43.4208553  32.2243833   2.3181673  42.9098553  32.2773833   1.6121673
  44.2048553  32.4643833   2.0221673  43.4608553  32.2673833   2.1701673
  48.1478553  39.7543833  10.2371673  47.3008553  39.5603833  10.3181673
  48.4718553  39.5893833  11.0301673  48.0698553  39.7013833  10.3661673
  41.9958553  39.4473833  12.5531673  42.7178553  39.9353833  12.5161673
  41.7258553  39.4173833  11.7241673  42.0628553  39.5153833  12.4251673
  45.2258553  34.6183833   9.2881673  46.0718553  34.4283833   9.3861673
  44.8558553  33.8413833   9.1501673  45.2958553  34.4753833   9.2821673
  57.8428553  46.2023833   3.6151673  58.5368553  45.7353833   3.3671673
  57.3038553  45.6043833   3.9521673  57.8658553  46.0443833   3.6281673
  40.0468553  35.9563833   5.9431673  40.5358553  35.6643833   6.6041673
  40.1758553  35.3633833   5.3161673  40.1378553  35.8253833   5.9481673
  55.0818553  38.9783833  12.7941673  55.0748553  38.2023833  13.1921673
  54.2408553  39.2123833  12.7871673  54.9568553  38.8983833  12.8521673
  41.3908553  40.4993833  16.8311673  40.9698553  39.9813833  16.2701673
  41.0388553  41.2853833  16.6881673  41.2768553  40.5393833  16.7271673
  56.3378553  39.0493833  10.2311673  56.0518553  39.4503833  10.9511673
  57.1978553  38.9873833  10.3581673  56.4228553  39.0993833  10.3561673
  46.0268553  35.8513833   4.1391673  46.2988553  36.6773833   4.2061673
  45.1638553  35.9263833   4.0431673  45.9398553  35.9843833   4.1341673
  53.9998553  32.9733833  18.7711673  53.4748553  33.4323833  19.2951673
  53.6388553  32.1783833  18.7651673  53.8688553  32.9233833  18.8471673
  39.5068553  31.8213833  10.6751673  39.5508553  32.1653833   9.8741673
  40.2618553  32.0583833  11.0421673  39.6248553  31.9073833  10.6111673
  57.4688553  44.6823833  10.7601673  57.7588553  44.9393833   9.9791673
  58.1638553  44.7783833  11.2791673  57.6148553  44.7343833  10.7211673
  52.4918553  36.5423833  18.8471673  52.5648553  36.6463833  19.7101673
  51.8578553  37.1003833  18.6261673  52.4088553  36.6403833  18.9421673
  54.7598553  36.8613833  17.2121673  55.0788553  37.6473833  17.4151673
  54.3898553  36.5913833  17.9551673  54.7528553  36.9373833  17.3521673
  54.0738553  43.2853833   2.7421673  54.4078553  42.4793833   2.7771673
  53.3188553  43.2133833   3.1721673  54.0118553  43.1553833   2.8111673
  54.5558553  35.1193833   8.4011673  53.8108553  34.7963833   8.7191673
  54.5578553  35.9453833   8.6811673  54.4458553  35.1933833   8.4891673
  57.4578553  37.4033833  19.9471673  57.4058553  37.0623833  19.1461673
  58.1948553  37.8703833  19.9251673  57.5588553  37.4223833  19.8251673
  56.9958553  41.0793833  16.1531673  57.6238553  40.5303833  15.8971673
  56.9348553  41.6443833  15.4911673  57.0798553  41.0823833  16.0171673
  51.4478553  41.1603833   2.1451673  52.1318553  40.6463833   1.9761673
  51.0308553  41.2063833   1.3801673  51.4868553  41.0913833   2.0071673
  46.1298553  42.3103833  13.4491673  45.8318553  42.9023833  14.0161673
  46.1848553  42.7523833  12.7001673  46.0938553  42.4633833  13.4221673
  44.1088553  41.2603833  16.8471673  43.3028553  40.9703833  17.0141673
  44.0198553  42.1283833  16.8531673  43.9768553  41.3453833  16.8721673
  53.4678553  31.4493833  15.8621673  54.2118553  31.9013833  15.7991673
  52.9018553  31.9193833  15.3931673  53.4948553  31.5863833  15.7841673
  48.6458553  38.7333833  12.9401673  49.1218553  39.1073833  13.5681673
  47.8228553  38.8673833  13.1991673  48.5948553  38.8083833  13.0711673
  45.3558553  34.3363833  15.6811673  45.5168553  33.5923833  16.1081673
  45.3108553  34.0873833  14.8461673  45.3728553  34.1893833  15.6211673
  47.9098553  46.1263833   8.1681673  48.4558553  46.8053833   8.2221673
  47.5598553  46.2083833   7.3731673  47.9388553  46.2393833   8.0581673
  47.1078553  30.1443833  15.5611673  47.8128553  30.4643833  15.1591673
  47.3488553  29.3373833  15.7881673  47.2468553  30.0723833  15.5351673
  46.0928553  44.3543833  11.5571673  45.4688553  44.9363833  11.3751673
  46.3408553  44.0683833  10.7711673  46.0368553  44.3983833  11.4141673
  50.4018553  40.9883833  18.5461673  51.1588553  41.2743833  18.2201673
  49.8548553  41.0403833  17.8681673  50.4328553  41.0383833  18.3971673
  54.3108553  43.5383833  17.0501673  54.6568553  43.8083833  17.8041673
  54.6048553  44.1203833  16.4701673  54.4058553  43.6643833  17.0761673
  56.1738553  35.6843833   2.3891673  56.5518553  36.3613833   1.9891673
  55.3318553  35.9083833   2.4201673  56.1048553  35.8173833   2.3341673
  43.6168553  35.1973833  11.6221673  44.0568553  35.0943833  10.8761673
  44.1618553  34.8843833  12.2271673  43.7618553  35.1363833  11.6011673
  51.6328553  34.2993833  17.2141673  50.9848553  34.7693833  17.5621673
  52.1978553  34.2103833  17.8731673  51.6208553  34.3553833  17.3631673
  51.3208553  35.8363833  13.5121673  51.6228553  36.2563833  14.2151673
  51.3568553  34.9963833  13.7441673  51.3708553  35.7743833  13.6501673
  48.7458553  46.0033833  17.4371673  49.2238553  45.4033833  17.0211673
  48.3948553  45.5603833  18.1021673  48.7648553  45.8493833  17.4741673
  53.8688553  35.2833833   5.7641673  54.0758553  35.0823833   6.5881673
  54.6248553  35.5513833   5.4221673  54.0108553  35.2933833   5.8351673
  47.1638553  30.1823833  11.6691673  46.3378553  30.0333833  11.9061673
  47.1238553  30.2173833  10.7981673  47.0358553  30.1653833  11.5751673
  54.8908553  31.3663833   7.2381673  54.1768553  30.8953833   7.4091673
  54.7288553  31.7073833   6.4521673  54.7618553  31.3473833   7.1471673
  55.3338553  39.3103833   5.6181673  55.8098553  38.5813833   5.5701673
  54.5128553  39.0243833   5.5421673  55.2828553  39.1603833   5.5991673
  48.8048553  41.2223833  16.4571673  48.0098553  41.1583833  16.8081673
  48.8758553  42.0693833  16.2621673  48.6978553  41.3373833  16.4801673
  44.6348553  47.4293833  11.7741673  44.6458553  47.4883833  12.6441673
  44.2098553  46.6823833  11.6241673  44.5738553  47.3273833  11.8801673
  42.7928553  33.3243833   4.9291673  42.9188553  32.9953833   4.1311673
  41.9808553  33.0753833   5.1281673  42.6918553  33.2393833   4.8411673
  51.5498553  40.4773833   7.9731673  51.6258553  40.8183833   8.7721673
  51.7188553  39.6303833   8.0941673  51.5858553  40.4023833   8.1091673
  49.0718553  39.7513833   7.5381673  48.7738553  39.4363833   8.2951673
  49.7668553  40.2243833   7.7731673  49.1308553  39.7743833   7.6851673
  49.2938553  43.8693833  15.5651673  49.9808553  43.7553833  16.0901673
  49.4278553  44.6603833  15.2211673  49.4148553  43.9693833  15.5921673
  57.4698553  36.4783833  17.3761673  56.6148553  36.3563833  17.5021673
  57.6228553  36.0833833  16.6131673  57.3658553  36.4013833  17.2821673
  51.9828553  37.1433833  15.9521673  51.7278553  36.4243833  16.3741673
  52.8038553  37.2593833  16.2221673  52.0668553  37.0543833  16.0541673
  41.3988553  46.9273833  17.2161673  40.7448553  46.3583833  17.3141673
  41.0238553  47.7003833  17.3671673  41.2468553  46.9573833  17.2531673
  49.9168553  38.3333833  19.1391673  50.2398553  39.0193833  18.7071673
  49.2128553  38.6563833  19.5411673  49.8598553  38.4823833  19.1341673
  53.0008553  46.7073833  10.0681673  52.5498553  47.3503833  10.4471673
  53.7088553  46.6283833  10.5731673  53.0388553  46.7903833  10.1991673
  49.7018553  41.7973833  12.9981673  49.0078553  42.1993833  13.3411673
  50.3788553  42.2303833  13.3371673  49.6988553  41.9203833  13.0991673
  55.0788553  44.3903833  19.5781673  55.8548553  44.0003833  19.6611673
  54.6098553  44.0543833  20.2331673  55.1238553  44.2833833  19.6871673
  42.7698553  35.3353833  15.3451673  43.1448553  35.9543833  14.8581673
  43.4438553  34.8613833  15.6301673  42.9248553  35.3573833  15.3151673
  56.1038553  36.4233833   5.0601673  56.2068553  36.3653833   4.1961673
  56.8448553  36.0913833   5.3781673  56.2288553  36.3663833   4.9791673
  43.0988553  31.1933833  17.0311673  43.0178553  30.3493833  17.2371673
  42.7848553  31.2373833  16.2181673  43.0408553  31.0753833  16.9411673
  50.0238553  43.3883833   6.1671673  49.8188553  44.2213833   6.0081673
  49.2488553  43.0063833   6.2891673  49.8788553  43.4553833   6.1621673
  55.2058553  36.5693833  14.4161673  55.2038553  35.7063833  14.5401673
  55.2728553  36.8933833  15.2231673  55.2158553  36.4893833  14.5531673
  39.9418553  39.0093833  14.8441673  40.2618553  39.2283833  14.0631673
  39.8418553  38.1443833  14.7891673  39.9738553  38.9143833  14.7211673
  51.0848553  31.3693833  18.1981673  51.1768553  32.0813833  18.6921673
  50.4478553  30.9243833  18.5951673  51.0038553  31.4083833  18.3301673
  50.0788553  31.5593833   9.0521673  49.3788553  32.0773833   8.9961673
  50.1168553  31.1793833   8.2681673  49.9808553  31.5803833   8.9281673
  45.3858553  43.6503833   2.5761673  45.8268553  43.7303833   3.3241673
  44.5808553  43.4343833   2.8341673  45.3318553  43.6303833   2.7251673
  53.6768553  32.0753833  11.8521673  54.5318553  32.1743833  11.9971673
  53.3078553  32.6283833  12.4171673  53.7488553  32.1723833  11.9571673
  44.7048553  38.3013833  16.2291673  44.3088553  39.0753833  16.3041673
  44.2988553  37.9283833  15.5531673  44.5868553  38.3603833  16.1401673
  53.9808553  37.3553833  10.3431673  54.6468553  37.8963833  10.5031673
  53.6358553  37.6663833   9.6041673  54.0278553  37.4813833  10.2581673
  54.2938553  45.4213833   6.1501673  54.1198553  44.7673833   6.7001673
  55.0068553  45.1503833   5.7271673  54.3738553  45.2843833   6.1691673
  42.7148553  42.7203833   3.1771673  42.4708553  42.4133833   3.9571673
  42.6818553  42.0173833   2.6611673  42.6738553  42.5713833   3.2161673
  45.5338553  40.9653833   1.9201673  44.7158553  40.6973833   2.0601673
  45.5058553  41.8173833   2.1051673  45.4088553  41.0523833   1.9681673
  45.1338553  31.2783833  13.6791673  44.2698553  31.3623833  13.7591673
  45.3538553  30.7643833  14.3481673  45.0388553  31.2153833  13.7901673
  57.1518553  29.9133833  15.0081673  57.0998553  29.8693833  15.8781673
  57.8388553  29.4103833  14.8181673  57.2458553  29.8333833  15.1081673
  49.2368553  32.0263833  12.0531673  48.4998553  31.5723833  12.1661673
  49.8078553  31.6243833  12.5761673  49.2118553  31.8993833  12.1471673
  51.9688553  42.8743833  13.8411673  52.1748553  43.1753833  14.6331673
  51.9078553  43.5963833  13.3561673  51.9898553  43.0253833  13.8861673
  51.5028553  47.0883833  18.0871673  50.7498553  47.0703833  17.6461673
  51.6708553  47.9403833  18.1711673  51.4168553  47.2113833  18.0341673
  46.7398553  36.3553833  17.2571673  46.4178553  35.7793833  16.6871673
  46.3808553  37.1103833  17.0111673  46.6398553  36.3813833  17.1371673
  56.7808553  41.5133833  13.2991673  56.7488553  40.6513833  13.1641673
  56.0878553  41.8153833  12.8651673  56.6738553  41.4303833  13.2151673
  45.1748553  46.7113833  17.5051673  45.2158553  46.8373833  18.3681673
  45.8258553  46.1513833  17.3491673  45.2768553  46.6473833  17.6101673
  54.8858553  44.7733833  12.0961673  55.4128553  44.6903833  11.4051673
  54.4948553  43.9953833  12.1501673  54.9058553  44.6463833  12.0021673
  42.3538553  31.3613833  14.3271673  42.0108553  30.5943833  14.0931673
  41.6588553  31.8853833  14.3911673  42.2008553  31.3253833  14.3021673
  51.3998553  30.2173833  11.3041673  52.0698553  30.7613833  11.4311673
  50.8968553  30.6413833  10.7311673  51.4248553  30.3603833  11.2381673
  42.7678553  45.0943833  18.8651673  43.3628553  45.5253833  19.3371673
  42.4038553  45.7183833  18.3761673  42.8018553  45.2503833  18.8621673
  50.7588553  36.0253833   8.7971673  51.3098553  35.4183833   9.0971673
  50.3338553  36.2883833   9.5121673  50.7778553  35.9743833   8.9461673
  41.0068553  34.6753833   8.2831673  40.6388553  34.9773833   9.0141673
  41.5408553  34.0463833   8.5671673  41.0308553  34.6273833   8.4331673
  40.6948553  43.0833833  15.7941673  40.1208553  43.4993833  16.3031673
  41.4278553  43.5483833  15.8891673  40.7188553  43.2133833  15.8831673
  52.7288553  37.8563833   5.3591673  52.7968553  37.0063833   5.5401673
  51.9058553  37.9423833   5.0811673  52.6168553  37.7433833   5.3451673
  42.4808553  46.3503833   4.5691673  42.3358553  46.5063833   3.7231673
  43.3468553  46.4293833   4.6471673  42.5878553  46.3853833   4.4561673
  46.6478553  38.7473833   4.2971673  46.7478553  38.8863833   3.4421673
  47.4658553  38.6873833   4.5931673  46.7828553  38.7583833   4.2141673
  55.8078553  46.8113833   1.7771673  56.4448553  46.6773833   2.3581673
  55.4668553  46.0173833   1.6601673  55.8518553  46.6743833   1.8451673
  56.0028553  39.2293833  18.5101673  56.6368553  39.0593833  19.0841673
  56.4198553  39.6323833  17.8581673  56.1578553  39.2643833  18.4991673
  51.8828553  43.0763833   4.0991673  51.6318553  42.9483833   4.9251673
  51.5658553  42.3813833   3.6781673  51.7988553  42.9553833   4.1591673
  56.6278553  33.7933833  19.2481673  56.4318553  34.4373833  19.8031673
  55.9058553  33.3033833  19.2401673  56.4928553  33.8163833  19.3291673
  56.5268553  34.7343833  12.2191673  55.6938553  34.9843833  12.1471673
  56.4708553  33.8943833  12.4481673  56.3958553  34.6473833  12.2421673
  53.4138553  39.3403833  19.8651673  54.2848553  39.3043833  19.8291673
  53.1948553  39.7603833  19.1331673  53.5108553  39.3963833  19.7521673
  43.1678553  45.1653833  11.0461673  43.0888553  44.3553833  10.7301673
  42.7238553  45.6523833  10.4741673  43.0908553  45.1173833  10.9151673
  48.7688553  41.2843833   3.5291673  49.4858553  40.9373833   3.1731673
  48.7348553  42.0843833   3.1811673  48.8698553  41.3513833   3.4251673
  40.7398553  47.4093833  14.6271673  41.2328553  47.3533833  15.3451673
  40.9278553  46.6763833  14.1921673  40.8408553  47.2923833  14.6691673
  50.1778553  11.4472753  63.7928903  49.9328553  11.9352753  63.1128903
  51.0408553  11.3742753  63.6928903  50.2688553  11.5082753  63.6778903
  49.9868553  18.3632753  68.4638903  49.4628553  18.9592753  68.8268903
  50.3838553  17.9952753  69.1478903  49.9678553  18.3972753  68.6188903
  39.8558553  22.5032753  63.9198903  39.4148553  22.6212753  64.6628903
  39.5728553  21.7282753  63.6348903  39.7488553  22.4062753  63.9878903
  56.1308553  25.8042753  61.4348903  56.8318553  25.2852753  61.4308903
  55.5438553  25.3592753  60.9658903  56.1478553  25.6612753  61.3648903
  39.5988553  16.2952753  60.4268903  38.8208553  16.4572753  60.0668903
  39.6378553  15.4242753  60.4488903  39.4898553  16.1902753  60.3768903
  42.7378553  21.5582753  59.0988903  42.3458553  21.1872753  58.4128903
  42.6578553  20.9602753  59.7278903  42.6678553  21.4152753  59.0898903
  52.6578553  19.4302753  65.1398903  52.7378553  19.4342753  64.2708903
  52.0738553  18.7982753  65.2888903  52.5828553  19.3372753  65.0338903
  42.3648553  23.1992753  62.9988903  42.9728553  23.0292753  63.6018903
  41.6138553  23.0592753  63.4198903  42.3438553  23.1532753  63.1498903
  46.6468553  12.5342753  62.9478903  46.5768553  13.2112753  62.4018903
  47.3878553  12.1462753  62.6988903  46.7458553  12.5772753  62.8298903
  41.2558553  26.2902753  59.0758903  41.7228553  26.3742753  58.3438903
  41.7108553  25.7122753  59.5448903  41.3918553  26.2172753  59.0368903
  39.7958553  25.2382753  70.1748903  39.9248553  24.9582753  70.9908903
  39.1858553  24.6972753  69.8658903  39.7248553  25.1172753  70.2498903
  46.3698553  22.7632753  75.2418903  46.1338553  22.7602753  76.0818903
  45.6218553  22.6152753  74.8178903  46.2238553  22.7402753  75.3028903
  41.2418553  19.7592753  64.3768903  40.7798553  19.3672753  63.7498903
  41.9418553  19.2462753  64.4688903  41.2768553  19.6262753  64.2978903
  45.7498553  15.3692753  69.7238903  46.4278553  15.3872753  69.1748903
  45.7048553  14.5332753  69.9688903  45.8428553  15.2482753  69.6788903
  46.3518553  25.9552753  72.5048903  46.4898553  26.7152753  72.0978903
  47.1428553  25.5902753  72.5318903  46.4888553  26.0142753  72.4488903
  43.2428553  17.8592753  64.3998903  44.0598553  17.6722753  64.6428903
  42.7658553  17.2452753  64.7958903  43.2928553  17.7412753  64.4948903
  47.4468553  23.8402753  67.0098903  47.7948553  23.0412753  67.0398903
  48.1118553  24.3442753  66.7548903  47.5968553  23.7962753  66.9768903
  47.5038553  23.2892753  63.2208903  47.8348553  22.6452753  63.7068903
  47.7438553  23.0782753  62.4098903  47.5878553  23.1632753  63.1728903
  49.4718553  17.4202753  74.5598903  48.6238553  17.3212753  74.3818903
  49.5008553  18.1652753  75.0138903  49.3508553  17.5162753  74.6008903
  43.8398553  12.9532753  63.6658903  43.5438553  13.4542753  63.0158903
  44.7068553  13.0312753  63.6088903  43.9238553  13.0392753  63.5618903
  54.0298553  10.3802753  73.6738903  53.8718553  11.1492753  73.2918903
  53.2578553  10.1602753  74.0178903  53.8918553  10.4612753  73.6688903
  46.8188553  12.0952753  65.8888903  46.8918553  12.9552753  66.0178903
  46.7808553  12.0202753  65.0208903  46.8238553  12.2112753  65.7798903
  51.4918553  15.0212753  58.1878903  51.0418553  15.7022753  58.4948903
  51.6058553  14.5172753  58.8908903  51.4428553  15.0472753  58.3368903
  39.6978553  17.5202753  67.3898903  39.4418553  18.3512753  67.3148903
  39.0338553  17.1372753  67.8068903  39.5618553  17.5862753  67.4408903
  39.6078553  27.2302753  65.2898903  39.0158553  27.7882753  64.9768903
  40.0338553  26.9612753  64.5778903  39.5838553  27.2722753  65.1388903
  45.4478553  25.0742753  62.7698903  44.8688553  24.7992753  63.3618903
  46.0718553  24.4652753  62.7948903  45.4548553  24.9442753  62.8608903
  51.5908553  27.3622753  60.2918903  52.3178553  27.8342753  60.3938903
  51.8198553  26.5682753  60.5718903  51.7328553  27.3152753  60.3488903
  49.7588553  27.7542753  62.2818903  49.9728553  28.2812753  62.9438903
  50.5258553  27.5802753  61.9028903  49.9038553  27.8062753  62.3238903
  42.7268553  12.3372753  67.8808903  42.2058553  11.7092753  67.5728903
  43.3178553  11.9002753  68.3518903  42.7378553  12.1792753  67.9048903
  41.1528553  25.9002753  63.2208903  41.8088553  25.3252753  63.2358903
  41.5418553  26.6492753  62.9998903  41.3078553  25.9252753  63.1908903
  56.8858553  14.9942753  64.4828903  56.5398553  15.6722753  64.9088903
  56.2498553  14.3962753  64.4988903  56.7408553  15.0062753  64.5478903
  52.1978553  27.7642753  70.5868903  52.9418553  28.2202753  70.5768903
  52.0768553  27.5502753  69.7498903  52.2898553  27.8002753  70.4618903
  41.7658553  14.0672753  76.1628903  40.9878553  13.6772753  76.0908903
  42.2568553  13.6552753  75.5718903  41.7228553  13.9482753  76.0648903
  41.9708553  24.3872753  66.7208903  42.3938553  24.0312753  66.0468903
  42.2948553  23.9652753  67.4128903  42.0808553  24.2722753  66.7238903
  45.2018553  27.2392753  66.0168903  46.0458553  27.3432753  65.8218903
  44.9048553  28.0572753  66.0848903  45.2828553  27.3752753  65.9978903
  48.4148553  11.7102753  75.3308903  48.5928553  10.9012753  75.0558903
  48.2718553  12.1512753  74.5918903  48.4198553  11.6562753  75.1808903
  49.0088553  16.6362753  64.1038903  49.2958553  16.4042753  63.3138903
  49.7408553  16.7152753  64.5728903  49.1588553  16.6132753  64.0568903
  49.7308553  16.9752753  59.2248903  50.0118553  17.7632753  59.4738903
  48.9548553  17.1402753  58.8618903  49.6578553  17.1162753  59.2078903
  53.7718553  28.9492753  60.6918903  54.4368553  28.8012753  60.1468903
  54.1318553  28.8662753  61.4818903  53.9238553  28.9152753  60.7278903
  44.1998553  28.4582753  71.7568903  44.4918553  28.3912753  72.5768903
  43.5738553  27.8532753  71.7118903  44.1508553  28.3592753  71.8718903
  56.5608553  13.3172753  69.8518903  57.3178553  13.3892753  69.4238903
  56.6238553  12.5442753  70.2508903  56.6818553  13.2142753  69.8468903
  39.1138553  14.6152753  73.7488903  39.1098553  15.2022753  74.3948903
  39.7078553  14.9272753  73.1918903  39.2008553  14.7482753  73.7618903
  51.4518553  24.9492753  74.2908903  51.4178553  25.3312753  75.0748903
  52.3058553  24.9072753  74.1198903  51.5728553  24.9992753  74.3818903
  48.5898553  25.1462753  59.0408903  48.4088553  25.6912753  59.6978903
  49.3558553  25.4362753  58.7398903  48.6758553  25.2702753  59.0938903
  52.0968553  13.0422753  60.0948903  52.6368553  12.3602753  60.1708903
  52.1588553  13.4402753  60.8688903  52.1858553  13.0002753  60.2208903
  40.0508553  14.2102753  62.6638903  39.9368553  13.3462753  62.6948903
  39.5758553  14.5042753  63.3338903  39.9638553  14.1262753  62.7668903
  42.1928553  26.6202753  70.8788903  41.4948553  26.1122753  71.0048903
  42.4528553  26.4152753  70.0708903  42.1278553  26.5152753  70.7778903
  49.3548553  15.4182753  61.4088903  48.8468553  14.7562753  61.1548903
  49.4068553  15.9222753  60.6988903  49.2878553  15.3952753  61.2668903
  49.9038553  28.1132753  71.7888903  50.6718553  28.0332753  71.3828903
  49.3208553  27.9922753  71.1508903  49.9308553  28.0832753  71.6348903
  49.3548553  12.3592753  61.2998903  48.8998553  11.9572753  60.6738903
  50.1278553  12.5142753  60.9248903  49.4018553  12.3232753  61.1518903
  56.1808553  28.7162753  64.6898903  55.7258553  29.4332753  64.8908903
  55.5668553  28.1452753  64.4478903  56.0228553  28.7382753  64.6838903
  47.9528553  14.7262753  65.8218903  48.0268553  15.2942753  65.1638903
  48.0738553  15.2182753  66.5318903  47.9808553  14.8832753  65.8298903
  53.1778553  24.5612753  64.2338903  53.8788553  24.0792753  64.4228903
  52.5178553  23.9922753  64.2788903  53.1838553  24.4062753  64.2678903
  43.5538553  25.4712753  73.4458903  44.3948553  25.5342753  73.2238903
  43.5168553  25.8682753  74.2218903  43.6728553  25.5392753  73.5278903
  42.5608553  10.5492753  64.1698903  43.0968553  11.2372753  64.1598903
  42.5638553  10.2752753  63.3418903  42.6398553  10.6102753  64.0458903
  45.5168553  20.9822753  68.1948903  45.6888553  20.7722753  69.0238903
  44.8618553  20.4482753  67.9788903  45.4458553  20.8722753  68.2858903
  51.7448553  14.8962753  71.7098903  51.6498553  15.2152753  72.5158903
  51.1518553  14.2572753  71.6718903  51.6428553  14.8482753  71.8238903
  46.2668553  20.9202753  70.7848903  46.3198553  21.7672753  70.9868903
  45.9818553  20.5502753  71.5218903  46.2328553  20.9902753  70.9228903
  52.4438553  21.6152753  69.9148903  51.9298553  21.2032753  70.4858903
  52.3178553  22.4592753  70.0958903  52.3498553  21.6792753  70.0258903
  53.0008553  10.8402753  64.5458903  53.0498553  10.5222753  65.3568903
  53.3238553  10.1962753  64.0528903  53.0558553  10.6982753  64.5928903
  55.4648553  15.0762753  72.8538903  56.2368553  14.8512753  73.1908903
  54.9898553  15.2932753  73.5538903  55.5088553  15.0752753  73.0068903
  43.0088553  14.3592753  65.8238903  43.2808553  13.9292753  65.1158903
  42.8328553  13.7232753  66.3948903  43.0228553  14.2022753  65.8038903
  55.6968553  22.0542753  60.0418903  55.8158553  21.7672753  60.8568903
  56.5038553  22.0752753  59.7118903  55.8328553  22.0152753  60.1138903
  42.8328553  21.7862753  65.3728903  43.6838553  21.7062753  65.1998903
  42.4758553  21.1042753  64.9608903  42.9058553  21.6732753  65.2858903
  41.5998553  28.5112753  66.6098903  40.9268553  28.0132753  66.3648903
  42.0028553  28.6962753  65.8588903  41.5598553  28.4652753  66.4628903
  41.1498553  15.4612753  68.9058903  41.9928553  15.6812753  68.8628903
  40.7608553  16.0342753  68.3748903  41.2168553  15.5782753  68.8208903
  57.9308553  26.5632753  74.2958903  57.2488553  26.8732753  73.8488903
  57.5618553  26.1052753  74.9408903  57.7748553  26.5412753  74.3248903
  53.5918553  18.5912753  59.6268903  53.3718553  19.3222753  59.2048903
  53.1438553  18.6422753  60.3738903  53.4928553  18.7062753  59.6748903
  45.2008553  21.7932753  63.6078903  45.9138553  22.2882753  63.6978903
  45.4228553  21.2262753  62.9818903  45.3388553  21.7822753  63.5288903
  57.7788553  13.4522753  59.0798903  57.1168553  12.8842753  59.1028903
  57.5858553  13.9642753  58.3998903  57.6528553  13.4442753  58.9828903
  39.3568553  23.4362753  66.9278903  38.6898553  23.9242753  67.2038903
  40.0368553  23.9812753  66.9568903  39.3588553  23.5882753  66.9728903
  58.1018553  17.8302753  71.6358903  58.3168553  17.0302753  71.3598903
  57.2518553  17.8902753  71.4468903  58.0078553  17.7212753  71.5668903
  39.4228553  20.1202753  62.0308903  39.2378553  19.2812753  62.1828903
  40.0818553  20.0842753  61.4608903  39.4928553  19.9912753  61.9688903
  55.7808553  13.0102753  61.3588903  56.5268553  12.6032753  61.5578903
  56.0438553  13.7252753  60.9338903  55.9298553  13.0562753  61.3258903
  49.7238553  25.4962753  65.9348903  49.2008553  26.1302753  65.6418903
  50.0338553  25.1322753  65.2058903  49.6918553  25.5362753  65.7838903
  39.5948553  24.2842753  61.6058903  40.1468553  24.8532753  61.9698903
  39.3628553  23.7692753  62.2708903  39.6418553  24.2922753  61.7578903
  43.7988553  23.2842753  68.6948903  44.2658553  23.5732753  69.3728903
  44.3708553  22.8062753  68.2408903  43.9528553  23.2562753  68.7278903
  52.2348553  15.2982753  66.4318903  52.5788553  15.4502753  67.2188903
  51.7818553  14.5602753  66.5448903  52.2188553  15.2112753  66.5648903
  39.4248553  22.7332753  59.2338903  40.1808553  22.3012753  59.2918903
  39.4398553  23.2652753  59.9248903  39.5388553  22.7482753  59.3448903
  40.3648553  20.9542753  67.2388903  40.7958553  20.8252753  66.4918903
  40.1598553  21.8022753  67.2128903  40.3978553  21.0602753  67.1248903
  46.7108553  14.5182753  60.8888903  46.7088553  14.4012753  60.0238903
  46.5298553  15.3662753  60.9808903  46.6838553  14.6262753  60.7748903
  55.7648553  26.9452753  72.3858903  55.0938553  27.4592753  72.6038903
  55.8278553  27.0452753  71.5218903  55.6748553  27.0362753  72.2908903
  44.4488553  24.4702753  65.5208903  44.5748553  25.3132753  65.7078903
  45.1168553  24.0712753  65.9168903  44.5668553  24.5362753  65.6068903
  42.5788553  17.9532753  75.3828903  42.0428553  17.4472753  75.8508903
  42.5988553  17.5632753  74.6028903  42.5018553  17.8202753  75.3368903
  43.0638553  17.3502753  60.5228903  42.9358553  16.9022753  61.2608903
  42.4818553  17.0082753  59.9708903  42.9588553  17.2332753  60.5508903
  43.2308553  19.1802753  67.1218903  42.4498553  19.1212753  66.7388903
  43.3028553  18.4282753  67.5588903  43.1258553  19.0612753  67.1298903
  43.6608553  18.9172753  70.5898903  43.6858553  18.2422753  70.0388903
  43.0148553  19.4132753  70.2778903  43.5698553  18.8902753  70.4628903
  53.5558553  16.6302753  68.9858903  52.8938553  16.9582753  69.4488903
  53.7428553  17.2642753  68.4168903  53.4858553  16.7722753  68.9698903
  47.7608553  27.6942753  69.9818903  47.4838553  27.0532753  69.4588903
  47.5528553  28.4202753  69.5438903  47.6898553  27.7072753  69.8398903
  50.2008553  12.5362753  72.4148903  50.3498553  11.7112753  72.1718903
  50.5798553  12.5912753  73.1988903  50.2788553  12.4222753  72.4948903
  51.7488553  14.5992753  62.4968903  52.2388553  15.3162753  62.4198903
  50.9588553  14.8602753  62.2338903  51.7048553  14.7432753  62.4468903
  41.4598553  20.2722753  76.1488903  41.4228553  20.7732753  75.4348903
  41.7908553  19.5202753  75.8538903  41.5028553  20.2342753  75.9998903
  53.0628553  22.4772753  74.4068903  53.5468553  23.1952753  74.5048903
  53.4568553  22.0502753  73.7558903  53.1928553  22.5202753  74.3248903
  47.3588553  25.3222753  75.5838903  47.7128553  25.1442753  76.3608903
  46.9228553  24.5932753  75.3848903  47.3468553  25.1882753  75.6698903
  48.3308553  16.0692753  68.2218903  48.8108553  16.7682753  68.4298903
  48.7038553  15.4222753  68.6728903  48.4568553  16.0772753  68.3188903
  50.5198553  19.2382753  60.4958903  50.5118553  19.9602753  60.0058903
  49.8808553  19.3732753  61.0728903  50.4248553  19.3652753  60.5088903
  55.4918553  23.1082753  64.4768903  55.8478553  22.7582753  65.1918903
  55.4838553  22.4472753  63.9068903  55.5438553  22.9582753  64.4978903
  51.5368553  26.1742753  68.3208903  50.9338553  25.8782753  67.7638903
  52.0818553  26.6262753  67.8118903  51.5278553  26.1972753  68.1628903
  51.5498553  23.0252753  67.7208903  50.7528553  23.2492753  67.9948903
  51.8078553  22.4312753  68.3058903  51.4698553  22.9702753  67.8478903
  45.1128553  11.5802753  60.1568903  45.2098553  11.4732753  61.0178903
  44.4048553  12.0862753  60.0918903  45.0228553  11.6392753  60.2748903
  47.7338553  27.3532753  60.5708903  48.3558553  27.5162753  61.1608903
  47.7698553  28.0442753  60.0388903  47.8308553  27.4792753  60.5798903
  54.8098553  21.0232753  72.5668903  54.8648553  21.1482753  71.7048903
  55.5628553  21.3432753  72.8688903  54.9288553  21.0882753  72.4838903
  55.8418553  11.3212753  75.5538903  55.2048553  10.9212753  75.1118903
  55.8678553  10.8902753  76.3118903  55.7518553  11.1992753  75.5998903
  42.2348553  19.8872753  61.3998903  42.5588553  19.1082753  61.1778903
  42.8808553  20.2552753  61.8548903  42.3778553  19.8262753  61.4338903
  50.5408553  20.8292753  72.1668903  50.3858553  21.4392753  72.7708903
  51.0748553  20.2712753  72.5728903  50.5968553  20.8372753  72.3158903
  39.2318553  11.5482753  62.3678903  39.3608553  10.8402753  61.8758903
  38.8648553  11.2302753  63.0928903  39.1968553  11.3962753  62.4028903
  48.9248553  19.2292753  62.8248903  48.9838553  19.8792753  63.4038903
  48.7358553  18.5332753  63.3158903  48.9058553  19.2222753  62.9828903
  54.1508553  23.5582753  68.6938903  53.6718553  23.8562753  68.0278903
  53.7948553  22.7822753  68.8718903  54.0278553  23.4872753  68.6218903
  43.4208553  13.7462753  59.3368903  42.9098553  13.7992753  58.6308903
  44.2048553  13.9862753  59.0408903  43.4608553  13.7892753  59.1888903
  48.1478553  21.2762753  67.2558903  47.3008553  21.0822753  67.3368903
  48.4718553  21.1112753  68.0488903  48.0698553  21.2232753  67.3848903
  44.8998553  28.0062753  58.1418903  45.3388553  27.3092753  58.4298903
  45.1068553  28.6302753  58.7148903  44.9958553  27.9952753  58.2688903
  41.9958553  20.9692753  69.5718903  42.7178553  21.4572753  69.5348903
  41.7258553  20.9392753  68.7428903  42.0628553  21.0372753  69.4438903
  45.2258553  16.1402753  66.3068903  46.0718553  15.9502753  66.4048903
  44.8558553  15.3632753  66.1688903  45.2958553  15.9972753  66.3008903
  57.8428553  27.7242753  60.6338903  58.5368553  27.2572753  60.3858903
  57.3038553  27.1262753  60.9708903  57.8658553  27.5662753  60.6468903
  40.0468553  17.4782753  62.9618903  40.5358553  17.1862753  63.6228903
  40.1758553  16.8852753  62.3348903  40.1378553  17.3472753  62.9668903
  55.0818553  20.5002753  69.8128903  55.0748553  19.7242753  70.2108903
  54.2408553  20.7342753  69.8058903  54.9568553  20.4202753  69.8708903
  44.5718553  18.9122753  58.4478903  43.9618553  18.5072753  58.9218903
  44.1858553  19.0302753  57.6748903  44.4248553  18.8692753  58.4038903
  41.3908553  22.0212753  73.8498903  40.9698553  21.5032753  73.2888903
  41.0388553  22.8072753  73.7068903  41.2768553  22.0612753  73.7458903
  56.3378553  20.5712753  67.2498903  56.0518553  20.9722753  67.9698903
  57.1978553  20.5092753  67.3768903  56.4228553  20.6212753  67.3748903
  46.0268553  17.3732753  61.1578903  46.2988553  18.1992753  61.2248903
  45.1638553  17.4482753  61.0618903  45.9398553  17.5062753  61.1528903
  53.9998553  14.4952753  75.7898903  53.4748553  14.9542753  76.3138903
  53.6388553  13.7002753  75.7838903  53.8688553  14.4452753  75.8658903
  39.5068553  13.3432753  67.6938903  39.5508553  13.6872753  66.8928903
  40.2618553  13.5802753  68.0608903  39.6248553  13.4292753  67.6298903
  57.4688553  26.2042753  67.7788903  57.7588553  26.4612753  66.9978903
  58.1638553  26.3002753  68.2978903  57.6148553  26.2562753  67.7398903
  52.4918553  18.0642753  75.8658903  52.5648553  18.1682753  76.7288903
  51.8578553  18.6222753  75.6448903  52.4088553  18.1622753  75.9608903
  54.7598553  18.3832753  74.2308903  55.0788553  19.1692753  74.4338903
  54.3898553  18.1132753  74.9738903  54.7528553  18.4592753  74.3708903
  54.0738553  24.8072753  59.7608903  54.4078553  24.0012753  59.7958903
  53.3188553  24.7352753  60.1908903  54.0118553  24.6772753  59.8298903
  54.5558553  16.6412753  65.4198903  53.8108553  16.3182753  65.7378903
  54.5578553  17.4672753  65.6998903  54.4458553  16.7152753  65.5078903
  56.9958553  22.6012753  73.1718903  57.6238553  22.0522753  72.9158903
  56.9348553  23.1662753  72.5098903  57.0798553  22.6042753  73.0358903
  51.4478553  22.6822753  59.1638903  52.1318553  22.1682753  58.9948903
  51.0308553  22.7282753  58.3988903  51.4868553  22.6132753  59.0258903
  46.1298553  23.8322753  70.4678903  45.8318553  24.4242753  71.0348903
  46.1848553  24.2742753  69.7188903  46.0938553  23.9852753  70.4408903
  44.1088553  22.7822753  73.8658903  43.3028553  22.4922753  74.0328903
  44.0198553  23.6502753  73.8718903  43.9768553  22.8672753  73.8908903
  53.4678553  12.9712753  72.8808903  54.2118553  13.4232753  72.8178903
  52.9018553  13.4412753  72.4118903  53.4948553  13.1082753  72.8028903
  48.6458553  20.2552753  69.9588903  49.1218553  20.6292753  70.5868903
  47.8228553  20.3892753  70.2178903  48.5948553  20.3302753  70.0898903
  45.3558553  15.8582753  72.6998903  45.5168553  15.1142753  73.1268903
  45.3108553  15.6092753  71.8648903  45.3728553  15.7112753  72.6398903
  47.9098553  27.6482753  65.1868903  48.4558553  28.3272753  65.2408903
  47.5598553  27.7302753  64.3918903  47.9388553  27.7612753  65.0768903
  54.7528553  10.9512753  70.5508903  54.4728553  11.7762753  70.5068903
  55.4688553  11.0042753  71.0468903  54.8178553  11.0812753  70.6178903
  47.1078553  11.6662753  72.5798903  47.8128553  11.9862753  72.1778903
  47.3488553  10.8592753  72.8068903  47.2468553  11.5942753  72.5538903
  46.0928553  25.8762753  68.5758903  45.4688553  26.4582753  68.3938903
  46.3408553  25.5902753  67.7898903  46.0368553  25.9202753  68.4328903
  50.4018553  22.5102753  75.5648903  51.1588553  22.7962753  75.2388903
  49.8548553  22.5622753  74.8868903  50.4328553  22.5602753  75.4158903
  54.3108553  25.0602753  74.0688903  54.6568553  25.3302753  74.8228903
  54.6048553  25.6422753  73.4888903  54.4058553  25.1862753  74.0948903
  56.1738553  17.2062753  59.4078903  56.5518553  17.8832753  59.0078903
  55.3318553  17.4302753  59.4388903  56.1048553  17.3392753  59.3528903
  47.6868553  20.6522753  58.4908903  46.8818553  20.4752753  58.2058903
  47.6538553  21.5032753  58.6828903  47.5628553  20.7512753  58.4778903
  43.6168553  16.7192753  68.6408903  44.0568553  16.6162753  67.8948903
  44.1618553  16.4062753  69.2458903  43.7618553  16.6582753  68.6198903
  51.6328553  15.8212753  74.2328903  50.9848553  16.2912753  74.5808903
  52.1978553  15.7322753  74.8918903  51.6208553  15.8772753  74.3818903
  51.3208553  17.3582753  70.5308903  51.6228553  17.7782753  71.2338903
  51.3568553  16.5182753  70.7628903  51.3708553  17.2962753  70.6688903
  48.7458553  27.5252753  74.4558903  49.2238553  26.9252753  74.0398903
  48.3948553  27.0822753  75.1208903  48.7648553  27.3712753  74.4928903
  53.8688553  16.8052753  62.7828903  54.0758553  16.6042753  63.6068903
  54.6248553  17.0732753  62.4408903  54.0108553  16.8152753  62.8538903
  47.1638553  11.7042753  68.6878903  46.3378553  11.5552753  68.9248903
  47.1238553  11.7392753  67.8168903  47.0358553  11.6872753  68.5938903
  54.8908553  12.8882753  64.2568903  54.1768553  12.4172753  64.4278903
  54.7288553  13.2292753  63.4708903  54.7618553  12.8692753  64.1658903
  55.3338553  20.8322753  62.6368903  55.8098553  20.1032753  62.5888903
  54.5128553  20.5462753  62.5608903  55.2828553  20.6822753  62.6178903
  48.8048553  22.7442753  73.4758903  48.0098553  22.6802753  73.8268903
  48.8758553  23.5912753  73.2808903  48.6978553  22.8592753  73.4988903
  39.7288553  12.1022753  74.7228903  39.5888553  12.8972753  74.3918903
  38.9428553  11.8592753  75.0118903  39.5918553  12.1842753  74.7168903
  44.6348553  28.9512753  68.7928903  44.6458553  29.0102753  69.6628903
  44.2098553  28.2042753  68.6428903  44.5738553  28.8492753  68.8988903
  42.7928553  14.8462753  61.9478903  42.9188553  14.5172753  61.1498903
  41.9808553  14.5972753  62.1468903  42.6918553  14.7612753  61.8598903
  51.5498553  21.9992753  64.9918903  51.6258553  22.3402753  65.7908903
  51.7188553  21.1522753  65.1128903  51.5858553  21.9242753  65.1278903
  49.0718553  21.2732753  64.5568903  48.7738553  20.9582753  65.3138903
  49.7668553  21.7462753  64.7918903  49.1308553  21.2962753  64.7038903
  49.2938553  25.3912753  72.5838903  49.9808553  25.2772753  73.1088903
  49.4278553  26.1822753  72.2398903  49.4148553  25.4912753  72.6108903
  57.4698553  18.0002753  74.3948903  56.6148553  17.8782753  74.5208903
  57.6228553  17.6052753  73.6318903  57.3658553  17.9232753  74.3008903
  51.9828553  18.6652753  72.9708903  51.7278553  17.9462753  73.3928903
  52.8038553  18.7812753  73.2408903  52.0668553  18.5762753  73.0728903
  41.3988553  28.4492753  74.2348903  40.7448553  27.8802753  74.3328903
  41.0238553  29.2222753  74.3858903  41.2468553  28.4792753  74.2718903
  49.9168553  19.8552753  76.1578903  50.2398553  20.5412753  75.7258903
  49.2128553  20.1782753  76.5598903  49.8598553  20.0042753  76.1528903
  53.0008553  28.2292753  67.0868903  52.5498553  28.8722753  67.4658903
  53.7088553  28.1502753  67.5918903  53.0388553  28.3122753  67.2178903
  49.7018553  23.3192753  70.0168903  49.0078553  23.7212753  70.3598903
  50.3788553  23.7522753  70.3558903  49.6988553  23.4422753  70.1178903
  42.7698553  16.8572753  72.3638903  43.1448553  17.4762753  71.8768903
  43.4438553  16.3832753  72.6488903  42.9248553  16.8792753  72.3338903
  40.5448553  15.3052753  71.6388903  40.6218553  15.1362753  70.7858903
  41.2908553  15.7112753  71.8358903  40.6658553  15.3402753  71.5418903
  56.1038553  17.9452753  62.0788903  56.2068553  17.8872753  61.2148903
  56.8448553  17.6132753  62.3968903  56.2288553  17.8882753  61.9978903
  43.0988553  12.7152753  74.0498903  43.0178553  11.8712753  74.2558903
  42.7848553  12.7592753  73.2368903  43.0408553  12.5972753  73.9598903
  50.0238553  24.9102753  63.1858903  49.8188553  25.7432753  63.0268903
  49.2488553  24.5282753  63.3078903  49.8788553  24.9772753  63.1808903
  55.2058553  18.0912753  71.4348903  55.2038553  17.2282753  71.5588903
  55.2728553  18.4152753  72.2418903  55.2158553  18.0112753  71.5718903
  39.9418553  20.5312753  71.8628903  40.2618553  20.7502753  71.0818903
  39.8418553  19.6662753  71.8078903  39.9738553  20.4362753  71.7398903
  41.3978553  16.4672753  58.4808903  40.7258553  16.4812753  59.0368903
  41.4928553  15.6192753  58.2968903  41.3128553  16.3442753  58.5358903
  51.0848553  12.8912753  75.2168903  51.1768553  13.6032753  75.7108903
  50.4478553  12.4462753  75.6138903  51.0038553  12.9302753  75.3488903
  50.0788553  13.0812753  66.0708903  49.3788553  13.5992753  66.0148903
  50.1168553  12.7012753  65.2868903  49.9808553  13.1022753  65.9468903
  45.3858553  25.1722753  59.5948903  45.8268553  25.2522753  60.3428903
  44.5808553  24.9562753  59.8528903  45.3318553  25.1522753  59.7438903
  53.6768553  13.5972753  68.8708903  54.5318553  13.6962753  69.0158903
  53.3078553  14.1502753  69.4358903  53.7488553  13.6942753  68.9758903
  44.7048553  19.8232753  73.2478903  44.3088553  20.5972753  73.3228903
  44.2988553  19.4502753  72.5718903  44.5868553  19.8822753  73.1588903
  53.9808553  18.8772753  67.3618903  54.6468553  19.4182753  67.5218903
  53.6358553  19.1882753  66.6228903  54.0278553  19.0032753  67.2768903
  54.2938553  26.9432753  63.1688903  54.1198553  26.2892753  63.7188903
  55.0068553  26.6722753  62.7458903  54.3738553  26.8062753  63.1878903
  42.7148553  24.2422753  60.1958903  42.4708553  23.9352753  60.9758903
  42.6818553  23.5392753  59.6798903  42.6738553  24.0932753  60.2348903
  45.5338553  22.4872753  58.9388903  44.7158553  22.2192753  59.0788903
  45.5058553  23.3392753  59.1238903  45.4088553  22.5742753  58.9868903
  45.1338553  12.8002753  70.6978903  44.2698553  12.8842753  70.7778903
  45.3538553  12.2862753  71.3668903  45.0388553  12.7372753  70.8088903
  57.1518553  11.4352753  72.0268903  57.0998553  11.3912753  72.8968903
  57.8388553  10.9322753  71.8368903  57.2458553  11.3552753  72.1268903
  49.2368553  13.5482753  69.0718903  48.4998553  13.0942753  69.1848903
  49.8078553  13.1462753  69.5948903  49.2118553  13.4212753  69.1658903
  51.9688553  24.3962753  70.8598903  52.1748553  24.6972753  71.6518903
  51.9078553  25.1182753  70.3748903  51.9898553  24.5472753  70.9048903
  51.5028553  28.6102753  75.1058903  50.7498553  28.5922753  74.6648903
  51.6708553  29.4622753  75.1898903  51.4168553  28.7332753  75.0528903
  46.7398553  17.8772753  74.2758903  46.4178553  17.3012753  73.7058903
  46.3808553  18.6322753  74.0298903  46.6398553  17.9032753  74.1558903
  47.5358553  11.1292753  58.9028903  47.6138553  11.3762753  58.0698903
  46.7928553  11.5062753  59.1608903  47.4378553  11.2212753  58.8178903
  56.7808553  23.0352753  70.3178903  56.7488553  22.1732753  70.1828903
  56.0878553  23.3372753  69.8838903  56.6738553  22.9522753  70.2338903
  45.1748553  28.2332753  74.5238903  45.2158553  28.3592753  75.3868903
  45.8258553  27.6732753  74.3678903  45.2768553  28.1692753  74.6288903
  54.8858553  26.2952753  69.1148903  55.4128553  26.2122753  68.4238903
  54.4948553  25.5172753  69.1688903  54.9058553  26.1682753  69.0208903
  42.3538553  12.8832753  71.3458903  42.0108553  12.1162753  71.1118903
  41.6588553  13.4072753  71.4098903  42.2008553  12.8472753  71.3208903
  51.3998553  11.7392753  68.3228903  52.0698553  12.2832753  68.4498903
  50.8968553  12.1632753  67.7498903  51.4248553  11.8822753  68.2568903
  42.7678553  26.6162753  75.8838903  43.3628553  27.0472753  76.3558903
  42.4038553  27.2402753  75.3948903  42.8018553  26.7722753  75.8808903
  50.7588553  17.5472753  65.8158903  51.3098553  16.9402753  66.1158903
  50.3338553  17.8102753  66.5308903  50.7778553  17.4962753  65.9648903
  41.0068553  16.1972753  65.3018903  40.6388553  16.4992753  66.0328903
  41.5408553  15.5682753  65.5858903  41.0308553  16.1492753  65.4518903
  40.6948553  24.6052753  72.8128903  40.1208553  25.0212753  73.3218903
  41.4278553  25.0702753  72.9078903  40.7188553  24.7352753  72.9018903
  52.7288553  19.3782753  62.3778903  52.7968553  18.5282753  62.5588903
  51.9058553  19.4642753  62.0998903  52.6168553  19.2652753  62.3638903
  42.4808553  27.8722753  61.5878903  42.3358553  28.0282753  60.7418903
  43.3468553  27.9512753  61.6658903  42.5878553  27.9072753  61.4748903
  46.6478553  20.2692753  61.3158903  46.7478553  20.4082753  60.4608903
  47.4658553  20.2092753  61.6118903  46.7828553  20.2802753  61.2328903
  55.8078553  28.3332753  58.7958903  56.4448553  28.1992753  59.3768903
  55.4668553  27.5392753  58.6788903  55.8518553  28.1962753  58.8638903
  56.0028553  20.7512753  75.5288903  56.6368553  20.5812753  76.1028903
  56.4198553  21.1542753  74.8768903  56.1578553  20.7862753  75.5178903
  51.8828553  24.5982753  61.1178903  51.6318553  24.4702753  61.9438903
  51.5658553  23.9032753  60.6968903  51.7988553  24.4772753  61.1778903
  56.6278553  15.3152753  76.2668903  56.4318553  15.9592753  76.8218903
  55.9058553  14.8252753  76.2588903  56.4928553  15.3382753  76.3478903
  56.5268553  16.2562753  69.2378903  55.6938553  16.5062753  69.1658903
  56.4708553  15.4162753  69.4668903  56.3958553  16.1692753  69.2608903
  45.7868553  13.2442753  74.4318903  46.0208553  12.6682753  73.8188903
  44.9448553  13.0632753  74.5728903  45.6968553  13.1322753  74.3618903
  53.4138553  20.8622753  76.8838903  54.2848553  20.8262753  76.8478903
  53.1948553  21.2822753  76.1518903  53.5108553  20.9182753  76.7708903
  43.1678553  26.6872753  68.0648903  43.0888553  25.8772753  67.7488903
  42.7238553  27.1742753  67.4928903  43.0908553  26.6392753  67.9338903
  48.7688553  22.8062753  60.5478903  49.4858553  22.4592753  60.1918903
  48.7348553  23.6062753  60.1998903  48.8698553  22.8732753  60.4438903
  40.7398553  28.9312753  71.6458903  41.2328553  28.8752753  72.3638903
  40.9278553  28.1982753  71.2108903  40.8408553  28.8142753  71.6878903
  50.1778553  11.4472753  44.7866493  49.9328553  11.9352753  44.1066493
  51.0408553  11.3742753  44.6866493  50.2688553  11.5082753  44.6716493
  49.9868553  18.3632753  49.4576493  49.4628553  18.9592753  49.8206493
  50.3838553  17.9952753  50.1416493  49.9678553  18.3972753  49.6126493
  39.8558553  22.5032753  44.9136493  39.4148553  22.6212753  45.6566493
  39.5728553  21.7282753  44.6286493  39.7488553  22.4062753  44.9816493
  56.1308553  25.8042753  42.4286493  56.8318553  25.2852753  42.4246493
  55.5438553  25.3592753  41.9596493  56.1478553  25.6612753  42.3586493
  52.6578553  19.4302753  46.1336493  52.7378553  19.4342753  45.2646493
  52.0738553  18.7982753  46.2826493  52.5828553  19.3372753  46.0276493
  46.6468553  12.5342753  43.9416493  46.5768553  13.2112753  43.3956493
  47.3878553  12.1462753  43.6926493  46.7458553  12.5772753  43.8236493
  39.7958553  25.2382753  51.1686493  39.9248553  24.9582753  51.9846493
  39.1858553  24.6972753  50.8596493  39.7248553  25.1172753  51.2436493
  46.3698553  22.7632753  56.2356493  46.1338553  22.7602753  57.0756493
  45.6218553  22.6152753  55.8116493  46.2238553  22.7402753  56.2966493
  41.2418553  19.7592753  45.3706493  40.7798553  19.3672753  44.7436493
  41.9418553  19.2462753  45.4626493  41.2768553  19.6262753  45.2916493
  45.7498553  15.3692753  50.7176493  46.4278553  15.3872753  50.1686493
  45.7048553  14.5332753  50.9626493  45.8428553  15.2482753  50.6726493
  46.3518553  25.9552753  53.4986493  46.4898553  26.7152753  53.0916493
  47.1428553  25.5902753  53.5256493  46.4888553  26.0142753  53.4426493
  43.2428553  17.8592753  45.3936493  44.0598553  17.6722753  45.6366493
  42.7658553  17.2452753  45.7896493  43.2928553  17.7412753  45.4886493
  47.4468553  23.8402753  48.0036493  47.7948553  23.0412753  48.0336493
  48.1118553  24.3442753  47.7486493  47.5968553  23.7962753  47.9706493
  47.5038553  23.2892753  44.2146493  47.8348553  22.6452753  44.7006493
  47.7438553  23.0782753  43.4036493  47.5878553  23.1632753  44.1666493
  49.4718553  17.4202753  55.5536493  48.6238553  17.3212753  55.3756493
  49.5008553  18.1652753  56.0076493  49.3508553  17.5162753  55.5946493
  43.8398553  12.9532753  44.6596493  43.5438553  13.4542753  44.0096493
  44.7068553  13.0312753  44.6026493  43.9238553  13.0392753  44.5556493
  54.0298553  10.3802753  54.6676493  53.8718553  11.1492753  54.2856493
  53.2578553  10.1602753  55.0116493  53.8918553  10.4612753  54.6626493
  46.8188553  12.0952753  46.8826493  46.8918553  12.9552753  47.0116493
  46.7808553  12.0202753  46.0146493  46.8238553  12.2112753  46.7736493
  51.4918553  15.0212753  39.1816493  51.0418553  15.7022753  39.4886493
  51.6058553  14.5172753  39.8846493  51.4428553  15.0472753  39.3306493
  39.6978553  17.5202753  48.3836493  39.4418553  18.3512753  48.3086493
  39.0338553  17.1372753  48.8006493  39.5618553  17.5862753  48.4346493
  51.5908553  27.3622753  41.2856493  52.3178553  27.8342753  41.3876493
  51.8198553  26.5682753  41.5656493  51.7328553  27.3152753  41.3426493
  49.7588553  27.7542753  43.2756493  49.9728553  28.2812753  43.9376493
  50.5258553  27.5802753  42.8966493  49.9038553  27.8062753  43.3176493
  42.7268553  12.3372753  48.8746493  42.2058553  11.7092753  48.5666493
  43.3178553  11.9002753  49.3456493  42.7378553  12.1792753  48.8986493
  46.0328553  14.4702753  58.1726493  46.1498553  14.0162753  57.4366493
  46.3208553  15.2682753  57.9696493  46.0928553  14.5212753  58.0336493
  56.8858553  14.9942753  45.4766493  56.5398553  15.6722753  45.9026493
  56.2498553  14.3962753  45.4926493  56.7408553  15.0062753  45.5416493
  52.1978553  27.7642753  51.5806493  52.9418553  28.2202753  51.5706493
  52.0768553  27.5502753  50.7436493  52.2898553  27.8002753  51.4556493
  41.7658553  14.0672753  57.1566493  40.9878553  13.6772753  57.0846493
  42.2568553  13.6552753  56.5656493  41.7228553  13.9482753  57.0586493
  41.9708553  24.3872753  47.7146493  42.3938553  24.0312753  47.0406493
  42.2948553  23.9652753  48.4066493  42.0808553  24.2722753  47.7176493
  48.4148553  11.7102753  56.3246493  48.5928553  10.9012753  56.0496493
  48.2718553  12.1512753  55.5856493  48.4198553  11.6562753  56.1746493
  49.0088553  16.6362753  45.0976493  49.2958553  16.4042753  44.3076493
  49.7408553  16.7152753  45.5666493  49.1588553  16.6132753  45.0506493
  49.7308553  16.9752753  40.2186493  50.0118553  17.7632753  40.4676493
  48.9548553  17.1402753  39.8556493  49.6578553  17.1162753  40.2016493
  53.7718553  28.9492753  41.6856493  54.4368553  28.8012753  41.1406493
  54.1318553  28.8662753  42.4756493  53.9238553  28.9152753  41.7216493
  44.1998553  28.4582753  52.7506493  44.4918553  28.3912753  53.5706493
  43.5738553  27.8532753  52.7056493  44.1508553  28.3592753  52.8656493
  56.5608553  13.3172753  50.8456493  57.3178553  13.3892753  50.4176493
  56.6238553  12.5442753  51.2446493  56.6818553  13.2142753  50.8406493
  39.1138553  14.6152753  54.7426493  39.1098553  15.2022753  55.3886493
  39.7078553  14.9272753  54.1856493  39.2008553  14.7482753  54.7556493
  51.4518553  24.9492753  55.2846493  51.4178553  25.3312753  56.0686493
  52.3058553  24.9072753  55.1136493  51.5728553  24.9992753  55.3756493
  48.5898553  25.1462753  40.0346493  48.4088553  25.6912753  40.6916493
  49.3558553  25.4362753  39.7336493  48.6758553  25.2702753  40.0876493
  52.0968553  13.0422753  41.0886493  52.6368553  12.3602753  41.1646493
  52.1588553  13.4402753  41.8626493  52.1858553  13.0002753  41.2146493
  40.0508553  14.2102753  43.6576493  39.9368553  13.3462753  43.6886493
  39.5758553  14.5042753  44.3276493  39.9638553  14.1262753  43.7606493
  42.1928553  26.6202753  51.8726493  41.4948553  26.1122753  51.9986493
  42.4528553  26.4152753  51.0646493  42.1278553  26.5152753  51.7716493
  49.3548553  15.4182753  42.4026493  48.8468553  14.7562753  42.1486493
  49.4068553  15.9222753  41.6926493  49.2878553  15.3952753  42.2606493
  49.9038553  28.1132753  52.7826493  50.6718553  28.0332753  52.3766493
  49.3208553  27.9922753  52.1446493  49.9308553  28.0832753  52.6286493
  49.3548553  12.3592753  42.2936493  48.8998553  11.9572753  41.6676493
  50.1278553  12.5142753  41.9186493  49.4018553  12.3232753  42.1456493
  56.1808553  28.7162753  45.6836493  55.7258553  29.4332753  45.8846493
  55.5668553  28.1452753  45.4416493  56.0228553  28.7382753  45.6776493
  47.9528553  14.7262753  46.8156493  48.0268553  15.2942753  46.1576493
  48.0738553  15.2182753  47.5256493  47.9808553  14.8832753  46.8236493
  53.1778553  24.5612753  45.2276493  53.8788553  24.0792753  45.4166493
  52.5178553  23.9922753  45.2726493  53.1838553  24.4062753  45.2616493
  43.5538553  25.4712753  54.4396493  44.3948553  25.5342753  54.2176493
  43.5168553  25.8682753  55.2156493  43.6728553  25.5392753  54.5216493
  42.5608553  10.5492753  45.1636493  43.0968553  11.2372753  45.1536493
  42.5638553  10.2752753  44.3356493  42.6398553  10.6102753  45.0396493
  45.5168553  20.9822753  49.1886493  45.6888553  20.7722753  50.0176493
  44.8618553  20.4482753  48.9726493  45.4458553  20.8722753  49.2796493
  51.7448553  14.8962753  52.7036493  51.6498553  15.2152753  53.5096493
  51.1518553  14.2572753  52.6656493  51.6428553  14.8482753  52.8176493
  46.2668553  20.9202753  51.7786493  46.3198553  21.7672753  51.9806493
  45.9818553  20.5502753  52.5156493  46.2328553  20.9902753  51.9166493
  52.4438553  21.6152753  50.9086493  51.9298553  21.2032753  51.4796493
  52.3178553  22.4592753  51.0896493  52.3498553  21.6792753  51.0196493
  53.0008553  10.8402753  45.5396493  53.0498553  10.5222753  46.3506493
  53.3238553  10.1962753  45.0466493  53.0558553  10.6982753  45.5866493
  39.0878553  25.2912753  57.9896493  39.8438553  25.6402753  58.2476493
  39.2648553  24.4382753  57.9326493  39.2258553  25.2162753  58.0196493
  55.4648553  15.0762753  53.8476493  56.2368553  14.8512753  54.1846493
  54.9898553  15.2932753  54.5476493  55.5088553  15.0752753  54.0006493
  43.0088553  14.3592753  46.8176493  43.2808553  13.9292753  46.1096493
  42.8328553  13.7232753  47.3886493  43.0228553  14.2022753  46.7976493
  55.6968553  22.0542753  41.0356493  55.8158553  21.7672753  41.8506493
  56.5038553  22.0752753  40.7056493  55.8328553  22.0152753  41.1076493
  42.8328553  21.7862753  46.3666493  43.6838553  21.7062753  46.1936493
  42.4758553  21.1042753  45.9546493  42.9058553  21.6732753  46.2796493
  41.1498553  15.4612753  49.8996493  41.9928553  15.6812753  49.8566493
  40.7608553  16.0342753  49.3686493  41.2168553  15.5782753  49.8146493
  57.9308553  26.5632753  55.2896493  57.2488553  26.8732753  54.8426493
  57.5618553  26.1052753  55.9346493  57.7748553  26.5412753  55.3186493
  53.5918553  18.5912753  40.6206493  53.3718553  19.3222753  40.1986493
  53.1438553  18.6422753  41.3676493  53.4928553  18.7062753  40.6686493
  45.2008553  21.7932753  44.6016493  45.9138553  22.2882753  44.6916493
  45.4228553  21.2262753  43.9756493  45.3388553  21.7822753  44.5226493
  57.7788553  13.4522753  40.0736493  57.1168553  12.8842753  40.0966493
  57.5858553  13.9642753  39.3936493  57.6528553  13.4442753  39.9766493
  39.3568553  23.4362753  47.9216493  38.6898553  23.9242753  48.1976493
  40.0368553  23.9812753  47.9506493  39.3588553  23.5882753  47.9666493
  47.0038553  17.1462753  58.0176493  46.5198553  17.7232753  58.4596493
  46.9758553  17.4412753  57.1966493  46.9278553  17.2752753  57.9616493
  58.1018553  17.8302753  52.6296493  58.3168553  17.0302753  52.3536493
  57.2518553  17.8902753  52.4406493  58.0078553  17.7212753  52.5606493
  39.4228553  20.1202753  43.0246493  39.2378553  19.2812753  43.1766493
  40.0818553  20.0842753  42.4546493  39.4928553  19.9912753  42.9626493
  55.7808553  13.0102753  42.3526493  56.5268553  12.6032753  42.5516493
  56.0438553  13.7252753  41.9276493  55.9298553  13.0562753  42.3196493
  49.7238553  25.4962753  46.9286493  49.2008553  26.1302753  46.6356493
  50.0338553  25.1322753  46.1996493  49.6918553  25.5362753  46.7776493
  43.7988553  23.2842753  49.6886493  44.2658553  23.5732753  50.3666493
  44.3708553  22.8062753  49.2346493  43.9528553  23.2562753  49.7216493
  52.2348553  15.2982753  47.4256493  52.5788553  15.4502753  48.2126493
  51.7818553  14.5602753  47.5386493  52.2188553  15.2112753  47.5586493
  46.7108553  14.5182753  41.8826493  46.7088553  14.4012753  41.0176493
  46.5298553  15.3662753  41.9746493  46.6838553  14.6262753  41.7686493
  55.7648553  26.9452753  53.3796493  55.0938553  27.4592753  53.5976493
  55.8278553  27.0452753  52.5156493  55.6748553  27.0362753  53.2846493
  42.5788553  17.9532753  56.3766493  42.0428553  17.4472753  56.8446493
  42.5988553  17.5632753  55.5966493  42.5018553  17.8202753  56.3306493
  43.0638553  17.3502753  41.5166493  42.9358553  16.9022753  42.2546493
  42.4818553  17.0082753  40.9646493  42.9588553  17.2332753  41.5446493
  43.2308553  19.1802753  48.1156493  42.4498553  19.1212753  47.7326493
  43.3028553  18.4282753  48.5526493  43.1258553  19.0612753  48.1236493
  43.6608553  18.9172753  51.5836493  43.6858553  18.2422753  51.0326493
  43.0148553  19.4132753  51.2716493  43.5698553  18.8902753  51.4566493
  53.5558553  16.6302753  49.9796493  52.8938553  16.9582753  50.4426493
  53.7428553  17.2642753  49.4106493  53.4858553  16.7722753  49.9636493
  47.7608553  27.6942753  50.9756493  47.4838553  27.0532753  50.4526493
  47.5528553  28.4202753  50.5376493  47.6898553  27.7072753  50.8336493
  50.2008553  12.5362753  53.4086493  50.3498553  11.7112753  53.1656493
  50.5798553  12.5912753  54.1926493  50.2788553  12.4222753  53.4886493
  51.7488553  14.5992753  43.4906493  52.2388553  15.3162753  43.4136493
  50.9588553  14.8602753  43.2276493  51.7048553  14.7432753  43.4406493
  41.4598553  20.2722753  57.1426493  41.4228553  20.7732753  56.4286493
  41.7908553  19.5202753  56.8476493  41.5028553  20.2342753  56.9936493
  53.0628553  22.4772753  55.4006493  53.5468553  23.1952753  55.4986493
  53.4568553  22.0502753  54.7496493  53.1928553  22.5202753  55.3186493
  47.3588553  25.3222753  56.5776493  47.7128553  25.1442753  57.3546493
  46.9228553  24.5932753  56.3786493  47.3468553  25.1882753  56.6636493
  48.3308553  16.0692753  49.2156493  48.8108553  16.7682753  49.4236493
  48.7038553  15.4222753  49.6666493  48.4568553  16.0772753  49.3126493
  55.4918553  23.1082753  45.4706493  55.8478553  22.7582753  46.1856493
  55.4838553  22.4472753  44.9006493  55.5438553  22.9582753  45.4916493
  51.5368553  26.1742753  49.3146493  50.9338553  25.8782753  48.7576493
  52.0818553  26.6262753  48.8056493  51.5278553  26.1972753  49.1566493
  51.5498553  23.0252753  48.7146493  50.7528553  23.2492753  48.9886493
  51.8078553  22.4312753  49.2996493  51.4698553  22.9702753  48.8416493
  45.1128553  11.5802753  41.1506493  45.2098553  11.4732753  42.0116493
  44.4048553  12.0862753  41.0856493  45.0228553  11.6392753  41.2686493
  47.7338553  27.3532753  41.5646493  48.3558553  27.5162753  42.1546493
  47.7698553  28.0442753  41.0326493  47.8308553  27.4792753  41.5736493
  54.8098553  21.0232753  53.5606493  54.8648553  21.1482753  52.6986493
  55.5628553  21.3432753  53.8626493  54.9288553  21.0882753  53.4776493
  51.0008553  26.3722753  57.8376493  51.1648553  26.6552753  58.6466493
  51.2638553  27.0332753  57.3326493  51.0638553  26.5122753  57.8826493
  55.8418553  11.3212753  56.5476493  55.2048553  10.9212753  56.1056493
  55.8678553  10.8902753  57.3056493  55.7518553  11.1992753  56.5936493
  42.2348553  19.8872753  42.3936493  42.5588553  19.1082753  42.1716493
  42.8808553  20.2552753  42.8486493  42.3778553  19.8262753  42.4276493
  50.5408553  20.8292753  53.1606493  50.3858553  21.4392753  53.7646493
  51.0748553  20.2712753  53.5666493  50.5968553  20.8372753  53.3096493
  39.2318553  11.5482753  43.3616493  39.3608553  10.8402753  42.8696493
  38.8648553  11.2302753  44.0866493  39.1968553  11.3962753  43.3966493
  48.9248553  19.2292753  43.8186493  48.9838553  19.8792753  44.3976493
  48.7358553  18.5332753  44.3096493  48.9058553  19.2222753  43.9766493
  54.1508553  23.5582753  49.6876493  53.6718553  23.8562753  49.0216493
  53.7948553  22.7822753  49.8656493  54.0278553  23.4872753  49.6156493
  43.4208553  13.7462753  40.3306493  42.9098553  13.7992753  39.6246493
  44.2048553  13.9862753  40.0346493  43.4608553  13.7892753  40.1826493
  48.1478553  21.2762753  48.2496493  47.3008553  21.0822753  48.3306493
  48.4718553  21.1112753  49.0426493  48.0698553  21.2232753  48.3786493
  41.9958553  20.9692753  50.5656493  42.7178553  21.4572753  50.5286493
  41.7258553  20.9392753  49.7366493  42.0628553  21.0372753  50.4376493
  45.2258553  16.1402753  47.3006493  46.0718553  15.9502753  47.3986493
  44.8558553  15.3632753  47.1626493  45.2958553  15.9972753  47.2946493
  57.8428553  27.7242753  41.6276493  58.5368553  27.2572753  41.3796493
  57.3038553  27.1262753  41.9646493  57.8658553  27.5662753  41.6406493
  40.0468553  17.4782753  43.9556493  40.5358553  17.1862753  44.6166493
  40.1758553  16.8852753  43.3286493  40.1378553  17.3472753  43.9606493
  55.0818553  20.5002753  50.8066493  55.0748553  19.7242753  51.2046493
  54.2408553  20.7342753  50.7996493  54.9568553  20.4202753  50.8646493
  44.5718553  18.9122753  39.4416493  43.9618553  18.5072753  39.9156493
  44.1858553  19.0302753  38.6686493  44.4248553  18.8692753  39.3976493
  56.3378553  20.5712753  48.2436493  56.0518553  20.9722753  48.9636493
  57.1978553  20.5092753  48.3706493  56.4228553  20.6212753  48.3686493
  46.0268553  17.3732753  42.1516493  46.2988553  18.1992753  42.2186493
  45.1638553  17.4482753  42.0556493  45.9398553  17.5062753  42.1466493
  53.9998553  14.4952753  56.7836493  53.4748553  14.9542753  57.3076493
  53.6388553  13.7002753  56.7776493  53.8688553  14.4452753  56.8596493
  39.5068553  13.3432753  48.6876493  39.5508553  13.6872753  47.8866493
  40.2618553  13.5802753  49.0546493  39.6248553  13.4292753  48.6236493
  57.4688553  26.2042753  48.7726493  57.7588553  26.4612753  47.9916493
  58.1638553  26.3002753  49.2916493  57.6148553  26.2562753  48.7336493
  52.4918553  18.0642753  56.8596493  52.5648553  18.1682753  57.7226493
  51.8578553  18.6222753  56.6386493  52.4088553  18.1622753  56.9546493
  54.7598553  18.3832753  55.2246493  55.0788553  19.1692753  55.4276493
  54.3898553  18.1132753  55.9676493  54.7528553  18.4592753  55.3646493
  54.0738553  24.8072753  40.7546493  54.4078553  24.0012753  40.7896493
  53.3188553  24.7352753  41.1846493  54.0118553  24.6772753  40.8236493
  54.5558553  16.6412753  46.4136493  53.8108553  16.3182753  46.7316493
  54.5578553  17.4672753  46.6936493  54.4458553  16.7152753  46.5016493
  57.4578553  18.9252753  57.9596493  57.4058553  18.5842753  57.1586493
  58.1948553  19.3922753  57.9376493  57.5588553  18.9442753  57.8376493
  56.9958553  22.6012753  54.1656493  57.6238553  22.0522753  53.9096493
  56.9348553  23.1662753  53.5036493  57.0798553  22.6042753  54.0296493
  51.4478553  22.6822753  40.1576493  52.1318553  22.1682753  39.9886493
  51.0308553  22.7282753  39.3926493  51.4868553  22.6132753  40.0196493
  46.1298553  23.8322753  51.4616493  45.8318553  24.4242753  52.0286493
  46.1848553  24.2742753  50.7126493  46.0938553  23.9852753  51.4346493
  44.1088553  22.7822753  54.8596493  43.3028553  22.4922753  55.0266493
  44.0198553  23.6502753  54.8656493  43.9768553  22.8672753  54.8846493
  53.4678553  12.9712753  53.8746493  54.2118553  13.4232753  53.8116493
  52.9018553  13.4412753  53.4056493  53.4948553  13.1082753  53.7966493
  48.6458553  20.2552753  50.9526493  49.1218553  20.6292753  51.5806493
  47.8228553  20.3892753  51.2116493  48.5948553  20.3302753  51.0836493
  45.3558553  15.8582753  53.6936493  45.5168553  15.1142753  54.1206493
  45.3108553  15.6092753  52.8586493  45.3728553  15.7112753  53.6336493
  47.9098553  27.6482753  46.1806493  48.4558553  28.3272753  46.2346493
  47.5598553  27.7302753  45.3856493  47.9388553  27.7612753  46.0706493
  54.7528553  10.9512753  51.5446493  54.4728553  11.7762753  51.5006493
  55.4688553  11.0042753  52.0406493  54.8178553  11.0812753  51.6116493
  47.1078553  11.6662753  53.5736493  47.8128553  11.9862753  53.1716493
  47.3488553  10.8592753  53.8006493  47.2468553  11.5942753  53.5476493
  46.0928553  25.8762753  49.5696493  45.4688553  26.4582753  49.3876493
  46.3408553  25.5902753  48.7836493  46.0368553  25.9202753  49.4266493
  50.4018553  22.5102753  56.5586493  51.1588553  22.7962753  56.2326493
  49.8548553  22.5622753  55.8806493  50.4328553  22.5602753  56.4096493
  54.3108553  25.0602753  55.0626493  54.6568553  25.3302753  55.8166493
  54.6048553  25.6422753  54.4826493  54.4058553  25.1862753  55.0886493
  56.1738553  17.2062753  40.4016493  56.5518553  17.8832753  40.0016493
  55.3318553  17.4302753  40.4326493  56.1048553  17.3392753  40.3466493
  47.6868553  20.6522753  39.4846493  46.8818553  20.4752753  39.1996493
  47.6538553  21.5032753  39.6766493  47.5628553  20.7512753  39.4716493
  43.6168553  16.7192753  49.6346493  44.0568553  16.6162753  48.8886493
  44.1618553  16.4062753  50.2396493  43.7618553  16.6582753  49.6136493
  51.6328553  15.8212753  55.2266493  50.9848553  16.2912753  55.5746493
  52.1978553  15.7322753  55.8856493  51.6208553  15.8772753  55.3756493
  51.3208553  17.3582753  51.5246493  51.6228553  17.7782753  52.2276493
  51.3568553  16.5182753  51.7566493  51.3708553  17.2962753  51.6626493
  48.7458553  27.5252753  55.4496493  49.2238553  26.9252753  55.0336493
  48.3948553  27.0822753  56.1146493  48.7648553  27.3712753  55.4866493
  53.8688553  16.8052753  43.7766493  54.0758553  16.6042753  44.6006493
  54.6248553  17.0732753  43.4346493  54.0108553  16.8152753  43.8476493
  47.1638553  11.7042753  49.6816493  46.3378553  11.5552753  49.9186493
  47.1238553  11.7392753  48.8106493  47.0358553  11.6872753  49.5876493
  54.8908553  12.8882753  45.2506493  54.1768553  12.4172753  45.4216493
  54.7288553  13.2292753  44.4646493  54.7618553  12.8692753  45.1596493
  55.3338553  20.8322753  43.6306493  55.8098553  20.1032753  43.5826493
  54.5128553  20.5462753  43.5546493  55.2828553  20.6822753  43.6116493
  48.8048553  22.7442753  54.4696493  48.0098553  22.6802753  54.8206493
  48.8758553  23.5912753  54.2746493  48.6978553  22.8592753  54.4926493
  39.7288553  12.1022753  55.7166493  39.5888553  12.8972753  55.3856493
  38.9428553  11.8592753  56.0056493  39.5918553  12.1842753  55.7106493
  44.6348553  28.9512753  49.7866493  44.6458553  29.0102753  50.6566493
  44.2098553  28.2042753  49.6366493  44.5738553  28.8492753  49.8926493
  42.7928553  14.8462753  42.9416493  42.9188553  14.5172753  42.1436493
  41.9808553  14.5972753  43.1406493  42.6918553  14.7612753  42.8536493
  51.5498553  21.9992753  45.9856493  51.6258553  22.3402753  46.7846493
  51.7188553  21.1522753  46.1066493  51.5858553  21.9242753  46.1216493
  49.0718553  21.2732753  45.5506493  48.7738553  20.9582753  46.3076493
  49.7668553  21.7462753  45.7856493  49.1308553  21.2962753  45.6976493
  49.2938553  25.3912753  53.5776493  49.9808553  25.2772753  54.1026493
  49.4278553  26.1822753  53.2336493  49.4148553  25.4912753  53.6046493
  57.4698553  18.0002753  55.3886493  56.6148553  17.8782753  55.5146493
  57.6228553  17.6052753  54.6256493  57.3658553  17.9232753  55.2946493
  51.9828553  18.6652753  53.9646493  51.7278553  17.9462753  54.3866493
  52.8038553  18.7812753  54.2346493  52.0668553  18.5762753  54.0666493
  41.3988553  28.4492753  55.2286493  40.7448553  27.8802753  55.3266493
  41.0238553  29.2222753  55.3796493  41.2468553  28.4792753  55.2656493
  49.9168553  19.8552753  57.1516493  50.2398553  20.5412753  56.7196493
  49.2128553  20.1782753  57.5536493  49.8598553  20.0042753  57.1466493
  53.0008553  28.2292753  48.0806493  52.5498553  28.8722753  48.4596493
  53.7088553  28.1502753  48.5856493  53.0388553  28.3122753  48.2116493
  49.7018553  23.3192753  51.0106493  49.0078553  23.7212753  51.3536493
  50.3788553  23.7522753  51.3496493  49.6988553  23.4422753  51.1116493
  55.0788553  25.9122753  57.5906493  55.8548553  25.5222753  57.6736493
  54.6098553  25.5762753  58.2456493  55.1238553  25.8052753  57.6996493
  42.7698553  16.8572753  53.3576493  43.1448553  17.4762753  52.8706493
  43.4438553  16.3832753  53.6426493  42.9248553  16.8792753  53.3276493
  40.5448553  15.3052753  52.6326493  40.6218553  15.1362753  51.7796493
  41.2908553  15.7112753  52.8296493  40.6658553  15.3402753  52.5356493
  56.1038553  17.9452753  43.0726493  56.2068553  17.8872753  42.2086493
  56.8448553  17.6132753  43.3906493  56.2288553  17.8882753  42.9916493
  43.0988553  12.7152753  55.0436493  43.0178553  11.8712753  55.2496493
  42.7848553  12.7592753  54.2306493  43.0408553  12.5972753  54.9536493
  50.0238553  24.9102753  44.1796493  49.8188553  25.7432753  44.0206493
  49.2488553  24.5282753  44.3016493  49.8788553  24.9772753  44.1746493
  55.2058553  18.0912753  52.4286493  55.2038553  17.2282753  52.5526493
  55.2728553  18.4152753  53.2356493  55.2158553  18.0112753  52.5656493
  39.9418553  20.5312753  52.8566493  40.2618553  20.7502753  52.0756493
  39.8418553  19.6662753  52.8016493  39.9738553  20.4362753  52.7336493
  41.3978553  16.4672753  39.4746493  40.7258553  16.4812753  40.0306493
  41.4928553  15.6192753  39.2906493  41.3128553  16.3442753  39.5296493
  51.0848553  12.8912753  56.2106493  51.1768553  13.6032753  56.7046493
  50.4478553  12.4462753  56.6076493  51.0038553  12.9302753  56.3426493
  50.0788553  13.0812753  47.0646493  49.3788553  13.5992753  47.0086493
  50.1168553  12.7012753  46.2806493  49.9808553  13.1022753  46.9406493
  53.6768553  13.5972753  49.8646493  54.5318553  13.6962753  50.0096493
  53.3078553  14.1502753  50.4296493  53.7488553  13.6942753  49.9696493
  44.7048553  19.8232753  54.2416493  44.3088553  20.5972753  54.3166493
  44.2988553  19.4502753  53.5656493  44.5868553  19.8822753  54.1526493
  53.9808553  18.8772753  48.3556493  54.6468553  19.4182753  48.5156493
  53.6358553  19.1882753  47.6166493  54.0278553  19.0032753  48.2706493
  54.2938553  26.9432753  44.1626493  54.1198553  26.2892753  44.7126493
  55.0068553  26.6722753  43.7396493  54.3738553  26.8062753  44.1816493
  45.1338553  12.8002753  51.6916493  44.2698553  12.8842753  51.7716493
  45.3538553  12.2862753  52.3606493  45.0388553  12.7372753  51.8026493
  57.1518553  11.4352753  53.0206493  57.0998553  11.3912753  53.8906493
  57.8388553  10.9322753  52.8306493  57.2458553  11.3552753  53.1206493
  49.2368553  13.5482753  50.0656493  48.4998553  13.0942753  50.1786493
  49.8078553  13.1462753  50.5886493  49.2118553  13.4212753  50.1596493
  51.9688553  24.3962753  51.8536493  52.1748553  24.6972753  52.6456493
  51.9078553  25.1182753  51.3686493  51.9898553  24.5472753  51.8986493
  51.5028553  28.6102753  56.0996493  50.7498553  28.5922753  55.6586493
  51.6708553  29.4622753  56.1836493  51.4168553  28.7332753  56.0466493
  46.7398553  17.8772753  55.2696493  46.4178553  17.3012753  54.6996493
  46.3808553  18.6322753  55.0236493  46.6398553  17.9032753  55.1496493
  47.5358553  11.1292753  39.8966493  47.6138553  11.3762753  39.0636493
  46.7928553  11.5062753  40.1546493  47.4378553  11.2212753  39.8116493
  56.7808553  23.0352753  51.3116493  56.7488553  22.1732753  51.1766493
  56.0878553  23.3372753  50.8776493  56.6738553  22.9522753  51.2276493
  45.1748553  28.2332753  55.5176493  45.2158553  28.3592753  56.3806493
  45.8258553  27.6732753  55.3616493  45.2768553  28.1692753  55.6226493
  54.8858553  26.2952753  50.1086493  55.4128553  26.2122753  49.4176493
  54.4948553  25.5172753  50.1626493  54.9058553  26.1682753  50.0146493
  42.3538553  12.8832753  52.3396493  42.0108553  12.1162753  52.1056493
  41.6588553  13.4072753  52.4036493  42.2008553  12.8472753  52.3146493
  51.3998553  11.7392753  49.3166493  52.0698553  12.2832753  49.4436493
  50.8968553  12.1632753  48.7436493  51.4248553  11.8822753  49.2506493
  42.7678553  26.6162753  56.8776493  43.3628553  27.0472753  57.3496493
  42.4038553  27.2402753  56.3886493  42.8018553  26.7722753  56.8746493
  50.7588553  17.5472753  46.8096493  51.3098553  16.9402753  47.1096493
  50.3338553  17.8102753  47.5246493  50.7778553  17.4962753  46.9586493
  41.0068553  16.1972753  46.2956493  40.6388553  16.4992753  47.0266493
  41.5408553  15.5682753  46.5796493  41.0308553  16.1492753  46.4456493
  40.6948553  24.6052753  53.8066493  40.1208553  25.0212753  54.3156493
  41.4278553  25.0702753  53.9016493  40.7188553  24.7352753  53.8956493
  52.7288553  19.3782753  43.3716493  52.7968553  18.5282753  43.5526493
  51.9058553  19.4642753  43.0936493  52.6168553  19.2652753  43.3576493
  46.6478553  20.2692753  42.3096493  46.7478553  20.4082753  41.4546493
  47.4658553  20.2092753  42.6056493  46.7828553  20.2802753  42.2266493
  55.8078553  28.3332753  39.7896493  56.4448553  28.1992753  40.3706493
  55.4668553  27.5392753  39.6726493  55.8518553  28.1962753  39.8576493
  56.0028553  20.7512753  56.5226493  56.6368553  20.5812753  57.0966493
  56.4198553  21.1542753  55.8706493  56.1578553  20.7862753  56.5116493
  51.8828553  24.5982753  42.1116493  51.6318553  24.4702753  42.9376493
  51.5658553  23.9032753  41.6906493  51.7988553  24.4772753  42.1716493
  56.6278553  15.3152753  57.2606493  56.4318553  15.9592753  57.8156493
  55.9058553  14.8252753  57.2526493  56.4928553  15.3382753  57.3416493
  56.5268553  16.2562753  50.2316493  55.6938553  16.5062753  50.1596493
  56.4708553  15.4162753  50.4606493  56.3958553  16.1692753  50.2546493
  45.7868553  13.2442753  55.4256493  46.0208553  12.6682753  54.8126493
  44.9448553  13.0632753  55.5666493  45.6968553  13.1322753  55.3556493
  53.4138553  20.8622753  57.8776493  54.2848553  20.8262753  57.8416493
  53.1948553  21.2822753  57.1456493  53.5108553  20.9182753  57.7646493
  43.1678553  26.6872753  49.0586493  43.0888553  25.8772753  48.7426493
  42.7238553  27.1742753  48.4866493  43.0908553  26.6392753  48.9276493
  48.7688553  22.8062753  41.5416493  49.4858553  22.4592753  41.1856493
  48.7348553  23.6062753  41.1936493  48.8698553  22.8732753  41.4376493
  50.1778553  11.4472753  25.7804083  49.9328553  11.9352753  25.1004083
  51.0408553  11.3742753  25.6804083  50.2688553  11.5082753  25.6654083
  39.8558553  22.5032753  25.9074083  39.4148553  22.6212753  26.6504083
  39.5728553  21.7282753  25.6224083  39.7488553  22.4062753  25.9754083
  56.1308553  25.8042753  23.4224083  56.8318553  25.2852753  23.4184083
  55.5438553  25.3592753  22.9534083  56.1478553  25.6612753  23.3524083
  39.5988553  16.2952753  22.4144083  38.8208553  16.4572753  22.0544083
  39.6378553  15.4242753  22.4364083  39.4898553  16.1902753  22.3644083
  42.7378553  21.5582753  21.0864083  42.3458553  21.1872753  20.4004083
  42.6578553  20.9602753  21.7154083  42.6678553  21.4152753  21.0774083
  52.6578553  19.4302753  27.1274083  52.7378553  19.4342753  26.2584083
  52.0738553  18.7982753  27.2764083  52.5828553  19.3372753  27.0214083
  42.3648553  23.1992753  24.9864083  42.9728553  23.0292753  25.5894083
  41.6138553  23.0592753  25.4074083  42.3438553  23.1532753  25.1374083
  46.6468553  12.5342753  24.9354083  46.5768553  13.2112753  24.3894083
  47.3878553  12.1462753  24.6864083  46.7458553  12.5772753  24.8174083
  41.2558553  26.2902753  21.0634083  41.7228553  26.3742753  20.3314083
  41.7108553  25.7122753  21.5324083  41.3918553  26.2172753  21.0244083
  41.2418553  19.7592753  26.3644083  40.7798553  19.3672753  25.7374083
  41.9418553  19.2462753  26.4564083  41.2768553  19.6262753  26.2854083
  45.7498553  15.3692753  31.7114083  46.4278553  15.3872753  31.1624083
  45.7048553  14.5332753  31.9564083  45.8428553  15.2482753  31.6664083
  43.2428553  17.8592753  26.3874083  44.0598553  17.6722753  26.6304083
  42.7658553  17.2452753  26.7834083  43.2928553  17.7412753  26.4824083
  47.5038553  23.2892753  25.2084083  47.8348553  22.6452753  25.6944083
  47.7438553  23.0782753  24.3974083  47.5878553  23.1632753  25.1604083
  49.4718553  17.4202753  36.5474083  48.6238553  17.3212753  36.3694083
  49.5008553  18.1652753  37.0014083  49.3508553  17.5162753  36.5884083
  43.8398553  12.9532753  25.6534083  43.5438553  13.4542753  25.0034083
  44.7068553  13.0312753  25.5964083  43.9238553  13.0392753  25.5494083
  54.0298553  10.3802753  35.6614083  53.8718553  11.1492753  35.2794083
  53.2578553  10.1602753  36.0054083  53.8918553  10.4612753  35.6564083
  46.8188553  12.0952753  27.8764083  46.8918553  12.9552753  28.0054083
  46.7808553  12.0202753  27.0084083  46.8238553  12.2112753  27.7674083
  51.4918553  15.0212753  20.1754083  51.0418553  15.7022753  20.4824083
  51.6058553  14.5172753  20.8784083  51.4428553  15.0472753  20.3244083
  39.6978553  17.5202753  29.3774083  39.4418553  18.3512753  29.3024083
  39.0338553  17.1372753  29.7944083  39.5618553  17.5862753  29.4284083
  45.4478553  25.0742753  24.7574083  44.8688553  24.7992753  25.3494083
  46.0718553  24.4652753  24.7824083  45.4548553  24.9442753  24.8484083
  51.5908553  27.3622753  22.2794083  52.3178553  27.8342753  22.3814083
  51.8198553  26.5682753  22.5594083  51.7328553  27.3152753  22.3364083
  49.7588553  27.7542753  24.2694083  49.9728553  28.2812753  24.9314083
  50.5258553  27.5802753  23.8904083  49.9038553  27.8062753  24.3114083
  42.7268553  12.3372753  29.8684083  42.2058553  11.7092753  29.5604083
  43.3178553  11.9002753  30.3394083  42.7378553  12.1792753  29.8924083
  46.0328553  14.4702753  39.1664083  46.1498553  14.0162753  38.4304083
  46.3208553  15.2682753  38.9634083  46.0928553  14.5212753  39.0274083
  56.8858553  14.9942753  26.4704083  56.5398553  15.6722753  26.8964083
  56.2498553  14.3962753  26.4864083  56.7408553  15.0062753  26.5354083
  41.7658553  14.0672753  38.1504083  40.9878553  13.6772753  38.0784083
  42.2568553  13.6552753  37.5594083  41.7228553  13.9482753  38.0524083
  48.4148553  11.7102753  37.3184083  48.5928553  10.9012753  37.0434083
  48.2718553  12.1512753  36.5794083  48.4198553  11.6562753  37.1684083
  49.0088553  16.6362753  26.0914083  49.2958553  16.4042753  25.3014083
  49.7408553  16.7152753  26.5604083  49.1588553  16.6132753  26.0444083
  49.7308553  16.9752753  21.2124083  50.0118553  17.7632753  21.4614083
  48.9548553  17.1402753  20.8494083  49.6578553  17.1162753  21.1954083
  53.7718553  28.9492753  22.6794083  54.4368553  28.8012753  22.1344083
  54.1318553  28.8662753  23.4694083  53.9238553  28.9152753  22.7154083
  56.5608553  13.3172753  31.8394083  57.3178553  13.3892753  31.4114083
  56.6238553  12.5442753  32.2384083  56.6818553  13.2142753  31.8344083
  39.1138553  14.6152753  35.7364083  39.1098553  15.2022753  36.3824083
  39.7078553  14.9272753  35.1794083  39.2008553  14.7482753  35.7494083
  51.4518553  24.9492753  36.2784083  51.4178553  25.3312753  37.0624083
  52.3058553  24.9072753  36.1074083  51.5728553  24.9992753  36.3694083
  48.5898553  25.1462753  21.0284083  48.4088553  25.6912753  21.6854083
  49.3558553  25.4362753  20.7274083  48.6758553  25.2702753  21.0814083
  52.0968553  13.0422753  22.0824083  52.6368553  12.3602753  22.1584083
  52.1588553  13.4402753  22.8564083  52.1858553  13.0002753  22.2084083
  40.0508553  14.2102753  24.6514083  39.9368553  13.3462753  24.6824083
  39.5758553  14.5042753  25.3214083  39.9638553  14.1262753  24.7544083
  49.3548553  15.4182753  23.3964083  48.8468553  14.7562753  23.1424083
  49.4068553  15.9222753  22.6864083  49.2878553  15.3952753  23.2544083
  49.3548553  12.3592753  23.2874083  48.8998553  11.9572753  22.6614083
  50.1278553  12.5142753  22.9124083  49.4018553  12.3232753  23.1394083
  56.1808553  28.7162753  26.6774083  55.7258553  29.4332753  26.8784083
  55.5668553  28.1452753  26.4354083  56.0228553  28.7382753  26.6714083
  47.9528553  14.7262753  27.8094083  48.0268553  15.2942753  27.1514083
  48.0738553  15.2182753  28.5194083  47.9808553  14.8832753  27.8174083
  53.1778553  24.5612753  26.2214083  53.8788553  24.0792753  26.4104083
  52.5178553  23.9922753  26.2664083  53.1838553  24.4062753  26.2554083
  42.5608553  10.5492753  26.1574083  43.0968553  11.2372753  26.1474083
  42.5638553  10.2752753  25.3294083  42.6398553  10.6102753  26.0334083
  45.5168553  20.9822753  30.1824083  45.6888553  20.7722753  31.0114083
  44.8618553  20.4482753  29.9664083  45.4458553  20.8722753  30.2734083
  51.7448553  14.8962753  33.6974083  51.6498553  15.2152753  34.5034083
  51.1518553  14.2572753  33.6594083  51.6428553  14.8482753  33.8114083
  52.4438553  21.6152753  31.9024083  51.9298553  21.2032753  32.4734083
  52.3178553  22.4592753  32.0834083  52.3498553  21.6792753  32.0134083
  53.0008553  10.8402753  26.5334083  53.0498553  10.5222753  27.3444083
  53.3238553  10.1962753  26.0404083  53.0558553  10.6982753  26.5804083
  55.4648553  15.0762753  34.8414083  56.2368553  14.8512753  35.1784083
  54.9898553  15.2932753  35.5414083  55.5088553  15.0752753  34.9944083
  43.0088553  14.3592753  27.8114083  43.2808553  13.9292753  27.1034083
  42.8328553  13.7232753  28.3824083  43.0228553  14.2022753  27.7914083
  55.6968553  22.0542753  22.0294083  55.8158553  21.7672753  22.8444083
  56.5038553  22.0752753  21.6994083  55.8328553  22.0152753  22.1014083
  42.8328553  21.7862753  27.3604083  43.6838553  21.7062753  27.1874083
  42.4758553  21.1042753  26.9484083  42.9058553  21.6732753  27.2734083
  41.1498553  15.4612753  30.8934083  41.9928553  15.6812753  30.8504083
  40.7608553  16.0342753  30.3624083  41.2168553  15.5782753  30.8084083
  57.9308553  26.5632753  36.2834083  57.2488553  26.8732753  35.8364083
  57.5618553  26.1052753  36.9284083  57.7748553  26.5412753  36.3124083
  53.5918553  18.5912753  21.6144083  53.3718553  19.3222753  21.1924083
  53.1438553  18.6422753  22.3614083  53.4928553  18.7062753  21.6624083
  45.2008553  21.7932753  25.5954083  45.9138553  22.2882753  25.6854083
  45.4228553  21.2262753  24.9694083  45.3388553  21.7822753  25.5164083
  57.7788553  13.4522753  21.0674083  57.1168553  12.8842753  21.0904083
  57.5858553  13.9642753  20.3874083  57.6528553  13.4442753  20.9704083
  39.3568553  23.4362753  28.9154083  38.6898553  23.9242753  29.1914083
  40.0368553  23.9812753  28.9444083  39.3588553  23.5882753  28.9604083
  47.0038553  17.1462753  39.0114083  46.5198553  17.7232753  39.4534083
  46.9758553  17.4412753  38.1904083  46.9278553  17.2752753  38.9554083
  58.1018553  17.8302753  33.6234083  58.3168553  17.0302753  33.3474083
  57.2518553  17.8902753  33.4344083  58.0078553  17.7212753  33.5544083
  39.4228553  20.1202753  24.0184083  39.2378553  19.2812753  24.1704083
  40.0818553  20.0842753  23.4484083  39.4928553  19.9912753  23.9564083
  55.7808553  13.0102753  23.3464083  56.5268553  12.6032753  23.5454083
  56.0438553  13.7252753  22.9214083  55.9298553  13.0562753  23.3134083
  49.7238553  25.4962753  27.9224083  49.2008553  26.1302753  27.6294083
  50.0338553  25.1322753  27.1934083  49.6918553  25.5362753  27.7714083
  39.5948553  24.2842753  23.5934083  40.1468553  24.8532753  23.9574083
  39.3628553  23.7692753  24.2584083  39.6418553  24.2922753  23.7454083
  52.2348553  15.2982753  28.4194083  52.5788553  15.4502753  29.2064083
  51.7818553  14.5602753  28.5324083  52.2188553  15.2112753  28.5524083
  40.3648553  20.9542753  29.2264083  40.7958553  20.8252753  28.4794083
  40.1598553  21.8022753  29.2004083  40.3978553  21.0602753  29.1124083
  46.7108553  14.5182753  22.8764083  46.7088553  14.4012753  22.0114083
  46.5298553  15.3662753  22.9684083  46.6838553  14.6262753  22.7624083
  55.7648553  26.9452753  34.3734083  55.0938553  27.4592753  34.5914083
  55.8278553  27.0452753  33.5094083  55.6748553  27.0362753  34.2784083
  42.5788553  17.9532753  37.3704083  42.0428553  17.4472753  37.8384083
  42.5988553  17.5632753  36.5904083  42.5018553  17.8202753  37.3244083
  43.0638553  17.3502753  22.5104083  42.9358553  16.9022753  23.2484083
  42.4818553  17.0082753  21.9584083  42.9588553  17.2332753  22.5384083
  43.2308553  19.1802753  29.1094083  42.4498553  19.1212753  28.7264083
  43.3028553  18.4282753  29.5464083  43.1258553  19.0612753  29.1174083
  43.6608553  18.9172753  32.5774083  43.6858553  18.2422753  32.0264083
  43.0148553  19.4132753  32.2654083  43.5698553  18.8902753  32.4504083
  53.5558553  16.6302753  30.9734083  52.8938553  16.9582753  31.4364083
  53.7428553  17.2642753  30.4044083  53.4858553  16.7722753  30.9574083
  50.2008553  12.5362753  34.4024083  50.3498553  11.7112753  34.1594083
  50.5798553  12.5912753  35.1864083  50.2788553  12.4222753  34.4824083
  51.7488553  14.5992753  24.4844083  52.2388553  15.3162753  24.4074083
  50.9588553  14.8602753  24.2214083  51.7048553  14.7432753  24.4344083
  53.0628553  22.4772753  36.3944083  53.5468553  23.1952753  36.4924083
  53.4568553  22.0502753  35.7434083  53.1928553  22.5202753  36.3124083
  48.3308553  16.0692753  30.2094083  48.8108553  16.7682753  30.4174083
  48.7038553  15.4222753  30.6604083  48.4568553  16.0772753  30.3064083
  50.5198553  19.2382753  22.4834083  50.5118553  19.9602753  21.9934083
  49.8808553  19.3732753  23.0604083  50.4248553  19.3652753  22.4964083
  55.4918553  23.1082753  26.4644083  55.8478553  22.7582753  27.1794083
  55.4838553  22.4472753  25.8944083  55.5438553  22.9582753  26.4854083
  51.5498553  23.0252753  29.7084083  50.7528553  23.2492753  29.9824083
  51.8078553  22.4312753  30.2934083  51.4698553  22.9702753  29.8354083
  45.1128553  11.5802753  22.1444083  45.2098553  11.4732753  23.0054083
  44.4048553  12.0862753  22.0794083  45.0228553  11.6392753  22.2624083
  47.7338553  27.3532753  22.5584083  48.3558553  27.5162753  23.1484083
  47.7698553  28.0442753  22.0264083  47.8308553  27.4792753  22.5674083
  54.8098553  21.0232753  34.5544083  54.8648553  21.1482753  33.6924083
  55.5628553  21.3432753  34.8564083  54.9288553  21.0882753  34.4714083
  51.0008553  26.3722753  38.8314083  51.1648553  26.6552753  39.6404083
  51.2638553  27.0332753  38.3264083  51.0638553  26.5122753  38.8764083
  55.8418553  11.3212753  37.5414083  55.2048553  10.9212753  37.0994083
  55.8678553  10.8902753  38.2994083  55.7518553  11.1992753  37.5874083
  42.2348553  19.8872753  23.3874083  42.5588553  19.1082753  23.1654083
  42.8808553  20.2552753  23.8424083  42.3778553  19.8262753  23.4214083
  50.5408553  20.8292753  34.1544083  50.3858553  21.4392753  34.7584083
  51.0748553  20.2712753  34.5604083  50.5968553  20.8372753  34.3034083
  39.2318553  11.5482753  24.3554083  39.3608553  10.8402753  23.8634083
  38.8648553  11.2302753  25.0804083  39.1968553  11.3962753  24.3904083
  48.9248553  19.2292753  24.8124083  48.9838553  19.8792753  25.3914083
  48.7358553  18.5332753  25.3034083  48.9058553  19.2222753  24.9704083
  54.1508553  23.5582753  30.6814083  53.6718553  23.8562753  30.0154083
  53.7948553  22.7822753  30.8594083  54.0278553  23.4872753  30.6094083
  43.4208553  13.7462753  21.3244083  42.9098553  13.7992753  20.6184083
  44.2048553  13.9862753  21.0284083  43.4608553  13.7892753  21.1764083
  48.1478553  21.2762753  29.2434083  47.3008553  21.0822753  29.3244083
  48.4718553  21.1112753  30.0364083  48.0698553  21.2232753  29.3724083
  44.8998553  28.0062753  20.1294083  45.3388553  27.3092753  20.4174083
  45.1068553  28.6302753  20.7024083  44.9958553  27.9952753  20.2564083
  41.9958553  20.9692753  31.5594083  42.7178553  21.4572753  31.5224083
  41.7258553  20.9392753  30.7304083  42.0628553  21.0372753  31.4314083
  45.2258553  16.1402753  28.2944083  46.0718553  15.9502753  28.3924083
  44.8558553  15.3632753  28.1564083  45.2958553  15.9972753  28.2884083
  57.8428553  27.7242753  22.6214083  58.5368553  27.2572753  22.3734083
  57.3038553  27.1262753  22.9584083  57.8658553  27.5662753  22.6344083
  40.0468553  17.4782753  24.9494083  40.5358553  17.1862753  25.6104083
  40.1758553  16.8852753  24.3224083  40.1378553  17.3472753  24.9544083
  55.0818553  20.5002753  31.8004083  55.0748553  19.7242753  32.1984083
  54.2408553  20.7342753  31.7934083  54.9568553  20.4202753  31.8584083
  44.5718553  18.9122753  20.4354083  43.9618553  18.5072753  20.9094083
  44.1858553  19.0302753  19.6624083  44.4248553  18.8692753  20.3914083
  56.3378553  20.5712753  29.2374083  56.0518553  20.9722753  29.9574083
  57.1978553  20.5092753  29.3644083  56.4228553  20.6212753  29.3624083
  46.0268553  17.3732753  23.1454083  46.2988553  18.1992753  23.2124083
  45.1638553  17.4482753  23.0494083  45.9398553  17.5062753  23.1404083
  53.9998553  14.4952753  37.7774083  53.4748553  14.9542753  38.3014083
  53.6388553  13.7002753  37.7714083  53.8688553  14.4452753  37.8534083
  39.5068553  13.3432753  29.6814083  39.5508553  13.6872753  28.8804083
  40.2618553  13.5802753  30.0484083  39.6248553  13.4292753  29.6174083
  57.4688553  26.2042753  29.7664083  57.7588553  26.4612753  28.9854083
  58.1638553  26.3002753  30.2854083  57.6148553  26.2562753  29.7274083
  52.4918553  18.0642753  37.8534083  52.5648553  18.1682753  38.7164083
  51.8578553  18.6222753  37.6324083  52.4088553  18.1622753  37.9484083
  54.7598553  18.3832753  36.2184083  55.0788553  19.1692753  36.4214083
  54.3898553  18.1132753  36.9614083  54.7528553  18.4592753  36.3584083
  54.0738553  24.8072753  21.7484083  54.4078553  24.0012753  21.7834083
  53.3188553  24.7352753  22.1784083  54.0118553  24.6772753  21.8174083
  54.5558553  16.6412753  27.4074083  53.8108553  16.3182753  27.7254083
  54.5578553  17.4672753  27.6874083  54.4458553  16.7152753  27.4954083
  57.4578553  18.9252753  38.9534083  57.4058553  18.5842753  38.1524083
  58.1948553  19.3922753  38.9314083  57.5588553  18.9442753  38.8314083
  56.9958553  22.6012753  35.1594083  57.6238553  22.0522753  34.9034083
  56.9348553  23.1662753  34.4974083  57.0798553  22.6042753  35.0234083
  51.4478553  22.6822753  21.1514083  52.1318553  22.1682753  20.9824083
  51.0308553  22.7282753  20.3864083  51.4868553  22.6132753  21.0134083
  53.4678553  12.9712753  34.8684083  54.2118553  13.4232753  34.8054083
  52.9018553  13.4412753  34.3994083  53.4948553  13.1082753  34.7904083
  48.6458553  20.2552753  31.9464083  49.1218553  20.6292753  32.5744083
  47.8228553  20.3892753  32.2054083  48.5948553  20.3302753  32.0774083
  45.3558553  15.8582753  34.6874083  45.5168553  15.1142753  35.1144083
  45.3108553  15.6092753  33.8524083  45.3728553  15.7112753  34.6274083
  54.7528553  10.9512753  32.5384083  54.4728553  11.7762753  32.4944083
  55.4688553  11.0042753  33.0344083  54.8178553  11.0812753  32.6054083
  47.1078553  11.6662753  34.5674083  47.8128553  11.9862753  34.1654083
  47.3488553  10.8592753  34.7944083  47.2468553  11.5942753  34.5414083
  50.4018553  22.5102753  37.5524083  51.1588553  22.7962753  37.2264083
  49.8548553  22.5622753  36.8744083  50.4328553  22.5602753  37.4034083
  54.3108553  25.0602753  36.0564083  54.6568553  25.3302753  36.8104083
  54.6048553  25.6422753  35.4764083  54.4058553  25.1862753  36.0824083
  56.1738553  17.2062753  21.3954083  56.5518553  17.8832753  20.9954083
  55.3318553  17.4302753  21.4264083  56.1048553  17.3392753  21.3404083
  47.6868553  20.6522753  20.4784083  46.8818553  20.4752753  20.1934083
  47.6538553  21.5032753  20.6704083  47.5628553  20.7512753  20.4654083
  43.6168553  16.7192753  30.6284083  44.0568553  16.6162753  29.8824083
  44.1618553  16.4062753  31.2334083  43.7618553  16.6582753  30.6074083
  51.6328553  15.8212753  36.2204083  50.9848553  16.2912753  36.5684083
  52.1978553  15.7322753  36.8794083  51.6208553  15.8772753  36.3694083
  51.3208553  17.3582753  32.5184083  51.6228553  17.7782753  33.2214083
  51.3568553  16.5182753  32.7504083  51.3708553  17.2962753  32.6564083
  53.8688553  16.8052753  24.7704083  54.0758553  16.6042753  25.5944083
  54.6248553  17.0732753  24.4284083  54.0108553  16.8152753  24.8414083
  47.1638553  11.7042753  30.6754083  46.3378553  11.5552753  30.9124083
  47.1238553  11.7392753  29.8044083  47.0358553  11.6872753  30.5814083
  54.8908553  12.8882753  26.2444083  54.1768553  12.4172753  26.4154083
  54.7288553  13.2292753  25.4584083  54.7618553  12.8692753  26.1534083
  55.3338553  20.8322753  24.6244083  55.8098553  20.1032753  24.5764083
  54.5128553  20.5462753  24.5484083  55.2828553  20.6822753  24.6054083
  39.7288553  12.1022753  36.7104083  39.5888553  12.8972753  36.3794083
  38.9428553  11.8592753  36.9994083  39.5918553  12.1842753  36.7044083
  42.7928553  14.8462753  23.9354083  42.9188553  14.5172753  23.1374083
  41.9808553  14.5972753  24.1344083  42.6918553  14.7612753  23.8474083
  51.5498553  21.9992753  26.9794083  51.6258553  22.3402753  27.7784083
  51.7188553  21.1522753  27.1004083  51.5858553  21.9242753  27.1154083
  49.0718553  21.2732753  26.5444083  48.7738553  20.9582753  27.3014083
  49.7668553  21.7462753  26.7794083  49.1308553  21.2962753  26.6914083
  57.4698553  18.0002753  36.3824083  56.6148553  17.8782753  36.5084083
  57.6228553  17.6052753  35.6194083  57.3658553  17.9232753  36.2884083
  51.9828553  18.6652753  34.9584083  51.7278553  17.9462753  35.3804083
  52.8038553  18.7812753  35.2284083  52.0668553  18.5762753  35.0604083
  49.9168553  19.8552753  38.1454083  50.2398553  20.5412753  37.7134083
  49.2128553  20.1782753  38.5474083  49.8598553  20.0042753  38.1404083
  53.0008553  28.2292753  29.0744083  52.5498553  28.8722753  29.4534083
  53.7088553  28.1502753  29.5794083  53.0388553  28.3122753  29.2054083
  55.0788553  25.9122753  38.5844083  55.8548553  25.5222753  38.6674083
  54.6098553  25.5762753  39.2394083  55.1238553  25.8052753  38.6934083
  42.7698553  16.8572753  34.3514083  43.1448553  17.4762753  33.8644083
  43.4438553  16.3832753  34.6364083  42.9248553  16.8792753  34.3214083
  40.5448553  15.3052753  33.6264083  40.6218553  15.1362753  32.7734083
  41.2908553  15.7112753  33.8234083  40.6658553  15.3402753  33.5294083
  56.1038553  17.9452753  24.0664083  56.2068553  17.8872753  23.2024083
  56.8448553  17.6132753  24.3844083  56.2288553  17.8882753  23.9854083
  43.0988553  12.7152753  36.0374083  43.0178553  11.8712753  36.2434083
  42.7848553  12.7592753  35.2244083  43.0408553  12.5972753  35.9474083
  50.0238553  24.9102753  25.1734083  49.8188553  25.7432753  25.0144083
  49.2488553  24.5282753  25.2954083  49.8788553  24.9772753  25.1684083
  55.2058553  18.0912753  33.4224083  55.2038553  17.2282753  33.5464083
  55.2728553  18.4152753  34.2294083  55.2158553  18.0112753  33.5594083
  39.9418553  20.5312753  33.8504083  40.2618553  20.7502753  33.0694083
  39.8418553  19.6662753  33.7954083  39.9738553  20.4362753  33.7274083
  41.3978553  16.4672753  20.4684083  40.7258553  16.4812753  21.0244083
  41.4928553  15.6192753  20.2844083  41.3128553  16.3442753  20.5234083
  51.0848553  12.8912753  37.2044083  51.1768553  13.6032753  37.6984083
  50.4478553  12.4462753  37.6014083  51.0038553  12.9302753  37.3364083
  50.0788553  13.0812753  28.0584083  49.3788553  13.5992753  28.0024083
  50.1168553  12.7012753  27.2744083  49.9808553  13.1022753  27.9344083
  45.3858553  25.1722753  21.5824083  45.8268553  25.2522753  22.3304083
  44.5808553  24.9562753  21.8404083  45.3318553  25.1522753  21.7314083
  53.6768553  13.5972753  30.8584083  54.5318553  13.6962753  31.0034083
  53.3078553  14.1502753  31.4234083  53.7488553  13.6942753  30.9634083
  44.7048553  19.8232753  35.2354083  44.3088553  20.5972753  35.3104083
  44.2988553  19.4502753  34.5594083  44.5868553  19.8822753  35.1464083
  53.9808553  18.8772753  29.3494083  54.6468553  19.4182753  29.5094083
  53.6358553  19.1882753  28.6104083  54.0278553  19.0032753  29.2644083
  54.2938553  26.9432753  25.1564083  54.1198553  26.2892753  25.7064083
  55.0068553  26.6722753  24.7334083  54.3738553  26.8062753  25.1754083
  42.7148553  24.2422753  22.1834083  42.4708553  23.9352753  22.9634083
  42.6818553  23.5392753  21.6674083  42.6738553  24.0932753  22.2224083
  45.5338553  22.4872753  20.9264083  44.7158553  22.2192753  21.0664083
  45.5058553  23.3392753  21.1114083  45.4088553  22.5742753  20.9744083
  45.1338553  12.8002753  32.6854083  44.2698553  12.8842753  32.7654083
  45.3538553  12.2862753  33.3544083  45.0388553  12.7372753  32.7964083
  57.1518553  11.4352753  34.0144083  57.0998553  11.3912753  34.8844083
  57.8388553  10.9322753  33.8244083  57.2458553  11.3552753  34.1144083
  49.2368553  13.5482753  31.0594083  48.4998553  13.0942753  31.1724083
  49.8078553  13.1462753  31.5824083  49.2118553  13.4212753  31.1534083
  51.9688553  24.3962753  32.8474083  52.1748553  24.6972753  33.6394083
  51.9078553  25.1182753  32.3624083  51.9898553  24.5472753  32.8924083
  51.5028553  28.6102753  37.0934083  50.7498553  28.5922753  36.6524083
  51.6708553  29.4622753  37.1774083  51.4168553  28.7332753  37.0404083
  46.7398553  17.8772753  36.2634083  46.4178553  17.3012753  35.6934083
  46.3808553  18.6322753  36.0174083  46.6398553  17.9032753  36.1434083
  47.5358553  11.1292753  20.8904083  47.6138553  11.3762753  20.0574083
  46.7928553  11.5062753  21.1484083  47.4378553  11.2212753  20.8054083
  56.7808553  23.0352753  32.3054083  56.7488553  22.1732753  32.1704083
  56.0878553  23.3372753  31.8714083  56.6738553  22.9522753  32.2214083
  54.8858553  26.2952753  31.1024083  55.4128553  26.2122753  30.4114083
  54.4948553  25.5172753  31.1564083  54.9058553  26.1682753  31.0084083
  42.3538553  12.8832753  33.3334083  42.0108553  12.1162753  33.0994083
  41.6588553  13.4072753  33.3974083  42.2008553  12.8472753  33.3084083
  51.3998553  11.7392753  30.3104083  52.0698553  12.2832753  30.4374083
  50.8968553  12.1632753  29.7374083  51.4248553  11.8822753  30.2444083
  50.7588553  17.5472753  27.8034083  51.3098553  16.9402753  28.1034083
  50.3338553  17.8102753  28.5184083  50.7778553  17.4962753  27.9524083
  41.0068553  16.1972753  27.2894083  40.6388553  16.4992753  28.0204083
  41.5408553  15.5682753  27.5734083  41.0308553  16.1492753  27.4394083
  52.7288553  19.3782753  24.3654083  52.7968553  18.5282753  24.5464083
  51.9058553  19.4642753  24.0874083  52.6168553  19.2652753  24.3514083
  46.6478553  20.2692753  23.3034083  46.7478553  20.4082753  22.4484083
  47.4658553  20.2092753  23.5994083  46.7828553  20.2802753  23.2204083
  55.8078553  28.3332753  20.7834083  56.4448553  28.1992753  21.3644083
  55.4668553  27.5392753  20.6664083  55.8518553  28.1962753  20.8514083
  56.0028553  20.7512753  37.5164083  56.6368553  20.5812753  38.0904083
  56.4198553  21.1542753  36.8644083  56.1578553  20.7862753  37.5054083
  51.8828553  24.5982753  23.1054083  51.6318553  24.4702753  23.9314083
  51.5658553  23.9032753  22.6844083  51.7988553  24.4772753  23.1654083
  56.5268553  16.2562753  31.2254083  55.6938553  16.5062753  31.1534083
  56.4708553  15.4162753  31.4544083  56.3958553  16.1692753  31.2484083
  45.7868553  13.2442753  36.4194083  46.0208553  12.6682753  35.8064083
  44.9448553  13.0632753  36.5604083  45.6968553  13.1322753  36.3494083
  53.4138553  20.8622753  38.8714083  54.2848553  20.8262753  38.8354083
  53.1948553  21.2822753  38.1394083  53.5108553  20.9182753  38.7584083
  48.7688553  22.8062753  22.5354083  49.4858553  22.4592753  22.1794083
  48.7348553  23.6062753  22.1874083  48.8698553  22.8732753  22.4314083
  50.1778553  11.4472753   6.7741673  49.9328553  11.9352753   6.0941673
  51.0408553  11.3742753   6.6741673  50.2688553  11.5082753   6.6591673
  49.9868553  18.3632753  11.4451673  49.4628553  18.9592753  11.8081673
  50.3838553  17.9952753  12.1291673  49.9678553  18.3972753  11.6001673
  39.8558553  22.5032753   6.9011673  39.4148553  22.6212753   7.6441673
  39.5728553  21.7282753   6.6161673  39.7488553  22.4062753   6.9691673
  56.1308553  25.8042753   4.4161673  56.8318553  25.2852753   4.4121673
  55.5438553  25.3592753   3.9471673  56.1478553  25.6612753   4.3461673
  39.5988553  16.2952753   3.4081673  38.8208553  16.4572753   3.0481673
  39.6378553  15.4242753   3.4301673  39.4898553  16.1902753   3.3581673
  42.7378553  21.5582753   2.0801673  42.3458553  21.1872753   1.3941673
  42.6578553  20.9602753   2.7091673  42.6678553  21.4152753   2.0711673
  52.6578553  19.4302753   8.1211673  52.7378553  19.4342753   7.2521673
  52.0738553  18.7982753   8.2701673  52.5828553  19.3372753   8.0151673
  42.3648553  23.1992753   5.9801673  42.9728553  23.0292753   6.5831673
  41.6138553  23.0592753   6.4011673  42.3438553  23.1532753   6.1311673
  46.6468553  12.5342753   5.9291673  46.5768553  13.2112753   5.3831673
  47.3878553  12.1462753   5.6801673  46.7458553  12.5772753   5.8111673
  41.2558553  26.2902753   2.0571673  41.7228553  26.3742753   1.3251673
  41.7108553  25.7122753   2.5261673  41.3918553  26.2172753   2.0181673
  39.7958553  25.2382753  13.1561673  39.9248553  24.9582753  13.9721673
  39.1858553  24.6972753  12.8471673  39.7248553  25.1172753  13.2311673
  46.3698553  22.7632753  18.2231673  46.1338553  22.7602753  19.0631673
  45.6218553  22.6152753  17.7991673  46.2238553  22.7402753  18.2841673
  41.2418553  19.7592753   7.3581673  40.7798553  19.3672753   6.7311673
  41.9418553  19.2462753   7.4501673  41.2768553  19.6262753   7.2791673
  45.7498553  15.3692753  12.7051673  46.4278553  15.3872753  12.1561673
  45.7048553  14.5332753  12.9501673  45.8428553  15.2482753  12.6601673
  46.3518553  25.9552753  15.4861673  46.4898553  26.7152753  15.0791673
  47.1428553  25.5902753  15.5131673  46.4888553  26.0142753  15.4301673
  43.2428553  17.8592753   7.3811673  44.0598553  17.6722753   7.6241673
  42.7658553  17.2452753   7.7771673  43.2928553  17.7412753   7.4761673
  47.4468553  23.8402753   9.9911673  47.7948553  23.0412753  10.0211673
  48.1118553  24.3442753   9.7361673  47.5968553  23.7962753   9.9581673
  47.5038553  23.2892753   6.2021673  47.8348553  22.6452753   6.6881673
  47.7438553  23.0782753   5.3911673  47.5878553  23.1632753   6.1541673
  49.4718553  17.4202753  17.5411673  48.6238553  17.3212753  17.3631673
  49.5008553  18.1652753  17.9951673  49.3508553  17.5162753  17.5821673
  43.8398553  12.9532753   6.6471673  43.5438553  13.4542753   5.9971673
  44.7068553  13.0312753   6.5901673  43.9238553  13.0392753   6.5431673
  54.0298553  10.3802753  16.6551673  53.8718553  11.1492753  16.2731673
  53.2578553  10.1602753  16.9991673  53.8918553  10.4612753  16.6501673
  46.8188553  12.0952753   8.8701673  46.8918553  12.9552753   8.9991673
  46.7808553  12.0202753   8.0021673  46.8238553  12.2112753   8.7611673
  39.6978553  17.5202753  10.3711673  39.4418553  18.3512753  10.2961673
  39.0338553  17.1372753  10.7881673  39.5618553  17.5862753  10.4221673
  39.6078553  27.2302753   8.2711673  39.0158553  27.7882753   7.9581673
  40.0338553  26.9612753   7.5591673  39.5838553  27.2722753   8.1201673
  45.4478553  25.0742753   5.7511673  44.8688553  24.7992753   6.3431673
  46.0718553  24.4652753   5.7761673  45.4548553  24.9442753   5.8421673
  51.5908553  27.3622753   3.2731673  52.3178553  27.8342753   3.3751673
  51.8198553  26.5682753   3.5531673  51.7328553  27.3152753   3.3301673
  49.7588553  27.7542753   5.2631673  49.9728553  28.2812753   5.9251673
  50.5258553  27.5802753   4.8841673  49.9038553  27.8062753   5.3051673
  42.7268553  12.3372753  10.8621673  42.2058553  11.7092753  10.5541673
  43.3178553  11.9002753  11.3331673  42.7378553  12.1792753  10.8861673
  46.0328553  14.4702753  20.1601673  46.1498553  14.0162753  19.4241673
  46.3208553  15.2682753  19.9571673  46.0928553  14.5212753  20.0211673
  41.1528553  25.9002753   6.2021673  41.8088553  25.3252753   6.2171673
  41.5418553  26.6492753   5.9811673  41.3078553  25.9252753   6.1721673
  56.8858553  14.9942753   7.4641673  56.5398553  15.6722753   7.8901673
  56.2498553  14.3962753   7.4801673  56.7408553  15.0062753   7.5291673
  52.1978553  27.7642753  13.5681673  52.9418553  28.2202753  13.5581673
  52.0768553  27.5502753  12.7311673  52.2898553  27.8002753  13.4431673
  41.7658553  14.0672753  19.1441673  40.9878553  13.6772753  19.0721673
  42.2568553  13.6552753  18.5531673  41.7228553  13.9482753  19.0461673
  41.9708553  24.3872753   9.7021673  42.3938553  24.0312753   9.0281673
  42.2948553  23.9652753  10.3941673  42.0808553  24.2722753   9.7051673
  45.2018553  27.2392753   8.9981673  46.0458553  27.3432753   8.8031673
  44.9048553  28.0572753   9.0661673  45.2828553  27.3752753   8.9791673
  48.4148553  11.7102753  18.3121673  48.5928553  10.9012753  18.0371673
  48.2718553  12.1512753  17.5731673  48.4198553  11.6562753  18.1621673
  49.0088553  16.6362753   7.0851673  49.2958553  16.4042753   6.2951673
  49.7408553  16.7152753   7.5541673  49.1588553  16.6132753   7.0381673
  49.7308553  16.9752753   2.2061673  50.0118553  17.7632753   2.4551673
  48.9548553  17.1402753   1.8431673  49.6578553  17.1162753   2.1891673
  53.7718553  28.9492753   3.6731673  54.4368553  28.8012753   3.1281673
  54.1318553  28.8662753   4.4631673  53.9238553  28.9152753   3.7091673
  44.1998553  28.4582753  14.7381673  44.4918553  28.3912753  15.5581673
  43.5738553  27.8532753  14.6931673  44.1508553  28.3592753  14.8531673
  56.5608553  13.3172753  12.8331673  57.3178553  13.3892753  12.4051673
  56.6238553  12.5442753  13.2321673  56.6818553  13.2142753  12.8281673
  39.1138553  14.6152753  16.7301673  39.1098553  15.2022753  17.3761673
  39.7078553  14.9272753  16.1731673  39.2008553  14.7482753  16.7431673
  51.4518553  24.9492753  17.2721673  51.4178553  25.3312753  18.0561673
  52.3058553  24.9072753  17.1011673  51.5728553  24.9992753  17.3631673
  48.5898553  25.1462753   2.0221673  48.4088553  25.6912753   2.6791673
  49.3558553  25.4362753   1.7211673  48.6758553  25.2702753   2.0751673
  52.0968553  13.0422753   3.0761673  52.6368553  12.3602753   3.1521673
  52.1588553  13.4402753   3.8501673  52.1858553  13.0002753   3.2021673
  40.0508553  14.2102753   5.6451673  39.9368553  13.3462753   5.6761673
  39.5758553  14.5042753   6.3151673  39.9638553  14.1262753   5.7481673
  42.1928553  26.6202753  13.8601673  41.4948553  26.1122753  13.9861673
  42.4528553  26.4152753  13.0521673  42.1278553  26.5152753  13.7591673
  49.3548553  15.4182753   4.3901673  48.8468553  14.7562753   4.1361673
  49.4068553  15.9222753   3.6801673  49.2878553  15.3952753   4.2481673
  49.9038553  28.1132753  14.7701673  50.6718553  28.0332753  14.3641673
  49.3208553  27.9922753  14.1321673  49.9308553  28.0832753  14.6161673
  49.3548553  12.3592753   4.2811673  48.8998553  11.9572753   3.6551673
  50.1278553  12.5142753   3.9061673  49.4018553  12.3232753   4.1331673
  56.1808553  28.7162753   7.6711673  55.7258553  29.4332753   7.8721673
  55.5668553  28.1452753   7.4291673  56.0228553  28.7382753   7.6651673
  47.9528553  14.7262753   8.8031673  48.0268553  15.2942753   8.1451673
  48.0738553  15.2182753   9.5131673  47.9808553  14.8832753   8.8111673
  53.1778553  24.5612753   7.2151673  53.8788553  24.0792753   7.4041673
  52.5178553  23.9922753   7.2601673  53.1838553  24.4062753   7.2491673
  43.5538553  25.4712753  16.4271673  44.3948553  25.5342753  16.2051673
  43.5168553  25.8682753  17.2031673  43.6728553  25.5392753  16.5091673
  42.5608553  10.5492753   7.1511673  43.0968553  11.2372753   7.1411673
  42.5638553  10.2752753   6.3231673  42.6398553  10.6102753   7.0271673
  45.5168553  20.9822753  11.1761673  45.6888553  20.7722753  12.0051673
  44.8618553  20.4482753  10.9601673  45.4458553  20.8722753  11.2671673
  51.7448553  14.8962753  14.6911673  51.6498553  15.2152753  15.4971673
  51.1518553  14.2572753  14.6531673  51.6428553  14.8482753  14.8051673
  46.2668553  20.9202753  13.7661673  46.3198553  21.7672753  13.9681673
  45.9818553  20.5502753  14.5031673  46.2328553  20.9902753  13.9041673
  52.4438553  21.6152753  12.8961673  51.9298553  21.2032753  13.4671673
  52.3178553  22.4592753  13.0771673  52.3498553  21.6792753  13.0071673
  53.0008553  10.8402753   7.5271673  53.0498553  10.5222753   8.3381673
  53.3238553  10.1962753   7.0341673  53.0558553  10.6982753   7.5741673
  39.0878553  25.2912753  19.9771673  39.8438553  25.6402753  20.2351673
  39.2648553  24.4382753  19.9201673  39.2258553  25.2162753  20.0071673
  55.4648553  15.0762753  15.8351673  56.2368553  14.8512753  16.1721673
  54.9898553  15.2932753  16.5351673  55.5088553  15.0752753  15.9881673
  43.0088553  14.3592753   8.8051673  43.2808553  13.9292753   8.0971673
  42.8328553  13.7232753   9.3761673  43.0228553  14.2022753   8.7851673
  55.6968553  22.0542753   3.0231673  55.8158553  21.7672753   3.8381673
  56.5038553  22.0752753   2.6931673  55.8328553  22.0152753   3.0951673
  42.8328553  21.7862753   8.3541673  43.6838553  21.7062753   8.1811673
  42.4758553  21.1042753   7.9421673  42.9058553  21.6732753   8.2671673
  41.5998553  28.5112753   9.5911673  40.9268553  28.0132753   9.3461673
  42.0028553  28.6962753   8.8401673  41.5598553  28.4652753   9.4441673
  41.1498553  15.4612753  11.8871673  41.9928553  15.6812753  11.8441673
  40.7608553  16.0342753  11.3561673  41.2168553  15.5782753  11.8021673
  57.9308553  26.5632753  17.2771673  57.2488553  26.8732753  16.8301673
  57.5618553  26.1052753  17.9221673  57.7748553  26.5412753  17.3061673
  53.5918553  18.5912753   2.6081673  53.3718553  19.3222753   2.1861673
  53.1438553  18.6422753   3.3551673  53.4928553  18.7062753   2.6561673
  45.2008553  21.7932753   6.5891673  45.9138553  22.2882753   6.6791673
  45.4228553  21.2262753   5.9631673  45.3388553  21.7822753   6.5101673
  57.7788553  13.4522753   2.0611673  57.1168553  12.8842753   2.0841673
  57.5858553  13.9642753   1.3811673  57.6528553  13.4442753   1.9641673
  39.3568553  23.4362753   9.9091673  38.6898553  23.9242753  10.1851673
  40.0368553  23.9812753   9.9381673  39.3588553  23.5882753   9.9541673
  47.0038553  17.1462753  20.0051673  46.5198553  17.7232753  20.4471673
  46.9758553  17.4412753  19.1841673  46.9278553  17.2752753  19.9491673
  58.1018553  17.8302753  14.6171673  58.3168553  17.0302753  14.3411673
  57.2518553  17.8902753  14.4281673  58.0078553  17.7212753  14.5481673
  39.4228553  20.1202753   5.0121673  39.2378553  19.2812753   5.1641673
  40.0818553  20.0842753   4.4421673  39.4928553  19.9912753   4.9501673
  55.7808553  13.0102753   4.3401673  56.5268553  12.6032753   4.5391673
  56.0438553  13.7252753   3.9151673  55.9298553  13.0562753   4.3071673
  49.7238553  25.4962753   8.9161673  49.2008553  26.1302753   8.6231673
  50.0338553  25.1322753   8.1871673  49.6918553  25.5362753   8.7651673
  39.5948553  24.2842753   4.5871673  40.1468553  24.8532753   4.9511673
  39.3628553  23.7692753   5.2521673  39.6418553  24.2922753   4.7391673
  43.7988553  23.2842753  11.6761673  44.2658553  23.5732753  12.3541673
  44.3708553  22.8062753  11.2221673  43.9528553  23.2562753  11.7091673
  52.2348553  15.2982753   9.4131673  52.5788553  15.4502753  10.2001673
  51.7818553  14.5602753   9.5261673  52.2188553  15.2112753   9.5461673
  39.4248553  22.7332753   2.2151673  40.1808553  22.3012753   2.2731673
  39.4398553  23.2652753   2.9061673  39.5388553  22.7482753   2.3261673
  40.3648553  20.9542753  10.2201673  40.7958553  20.8252753   9.4731673
  40.1598553  21.8022753  10.1941673  40.3978553  21.0602753  10.1061673
  46.7108553  14.5182753   3.8701673  46.7088553  14.4012753   3.0051673
  46.5298553  15.3662753   3.9621673  46.6838553  14.6262753   3.7561673
  55.7648553  26.9452753  15.3671673  55.0938553  27.4592753  15.5851673
  55.8278553  27.0452753  14.5031673  55.6748553  27.0362753  15.2721673
  44.4488553  24.4702753   8.5021673  44.5748553  25.3132753   8.6891673
  45.1168553  24.0712753   8.8981673  44.5668553  24.5362753   8.5881673
  42.5788553  17.9532753  18.3641673  42.0428553  17.4472753  18.8321673
  42.5988553  17.5632753  17.5841673  42.5018553  17.8202753  18.3181673
  43.0638553  17.3502753   3.5041673  42.9358553  16.9022753   4.2421673
  42.4818553  17.0082753   2.9521673  42.9588553  17.2332753   3.5321673
  43.2308553  19.1802753  10.1031673  42.4498553  19.1212753   9.7201673
  43.3028553  18.4282753  10.5401673  43.1258553  19.0612753  10.1111673
  43.6608553  18.9172753  13.5711673  43.6858553  18.2422753  13.0201673
  43.0148553  19.4132753  13.2591673  43.5698553  18.8902753  13.4441673
  53.5558553  16.6302753  11.9671673  52.8938553  16.9582753  12.4301673
  53.7428553  17.2642753  11.3981673  53.4858553  16.7722753  11.9511673
  47.7608553  27.6942753  12.9631673  47.4838553  27.0532753  12.4401673
  47.5528553  28.4202753  12.5251673  47.6898553  27.7072753  12.8211673
  50.2008553  12.5362753  15.3961673  50.3498553  11.7112753  15.1531673
  50.5798553  12.5912753  16.1801673  50.2788553  12.4222753  15.4761673
  51.7488553  14.5992753   5.4781673  52.2388553  15.3162753   5.4011673
  50.9588553  14.8602753   5.2151673  51.7048553  14.7432753   5.4281673
  41.4598553  20.2722753  19.1301673  41.4228553  20.7732753  18.4161673
  41.7908553  19.5202753  18.8351673  41.5028553  20.2342753  18.9811673
  53.0628553  22.4772753  17.3881673  53.5468553  23.1952753  17.4861673
  53.4568553  22.0502753  16.7371673  53.1928553  22.5202753  17.3061673
  47.3588553  25.3222753  18.5651673  47.7128553  25.1442753  19.3421673
  46.9228553  24.5932753  18.3661673  47.3468553  25.1882753  18.6511673
  48.3308553  16.0692753  11.2031673  48.8108553  16.7682753  11.4111673
  48.7038553  15.4222753  11.6541673  48.4568553  16.0772753  11.3001673
  50.5198553  19.2382753   3.4771673  50.5118553  19.9602753   2.9871673
  49.8808553  19.3732753   4.0541673  50.4248553  19.3652753   3.4901673
  55.4918553  23.1082753   7.4581673  55.8478553  22.7582753   8.1731673
  55.4838553  22.4472753   6.8881673  55.5438553  22.9582753   7.4791673
  51.5368553  26.1742753  11.3021673  50.9338553  25.8782753  10.7451673
  52.0818553  26.6262753  10.7931673  51.5278553  26.1972753  11.1441673
  51.5498553  23.0252753  10.7021673  50.7528553  23.2492753  10.9761673
  51.8078553  22.4312753  11.2871673  51.4698553  22.9702753  10.8291673
  45.4418553  27.8372753   5.1501673  45.2948553  27.0612753   5.5211673
  46.1308553  27.6902753   4.6351673  45.5218553  27.7002753   5.1291673
  45.1128553  11.5802753   3.1381673  45.2098553  11.4732753   3.9991673
  44.4048553  12.0862753   3.0731673  45.0228553  11.6392753   3.2561673
  47.7338553  27.3532753   3.5521673  48.3558553  27.5162753   4.1421673
  47.7698553  28.0442753   3.0201673  47.8308553  27.4792753   3.5611673
  54.8098553  21.0232753  15.5481673  54.8648553  21.1482753  14.6861673
  55.5628553  21.3432753  15.8501673  54.9288553  21.0882753  15.4651673
  51.0008553  26.3722753  19.8251673  51.1648553  26.6552753  20.6341673
  51.2638553  27.0332753  19.3201673  51.0638553  26.5122753  19.8701673
  55.8418553  11.3212753  18.5351673  55.2048553  10.9212753  18.0931673
  55.8678553  10.8902753  19.2931673  55.7518553  11.1992753  18.5811673
  42.2348553  19.8872753   4.3811673  42.5588553  19.1082753   4.1591673
  42.8808553  20.2552753   4.8361673  42.3778553  19.8262753   4.4151673
  50.5408553  20.8292753  15.1481673  50.3858553  21.4392753  15.7521673
  51.0748553  20.2712753  15.5541673  50.5968553  20.8372753  15.2971673
  39.2318553  11.5482753   5.3491673  39.3608553  10.8402753   4.8571673
  38.8648553  11.2302753   6.0741673  39.1968553  11.3962753   5.3841673
  48.9248553  19.2292753   5.8061673  48.9838553  19.8792753   6.3851673
  48.7358553  18.5332753   6.2971673  48.9058553  19.2222753   5.9641673
  54.1508553  23.5582753  11.6751673  53.6718553  23.8562753  11.0091673
  53.7948553  22.7822753  11.8531673  54.0278553  23.4872753  11.6031673
  43.4208553  13.7462753   2.3181673  42.9098553  13.7992753   1.6121673
  44.2048553  13.9862753   2.0221673  43.4608553  13.7892753   2.1701673
  48.1478553  21.2762753  10.2371673  47.3008553  21.0822753  10.3181673
  48.4718553  21.1112753  11.0301673  48.0698553  21.2232753  10.3661673
  41.9958553  20.9692753  12.5531673  42.7178553  21.4572753  12.5161673
  41.7258553  20.9392753  11.7241673  42.0628553  21.0372753  12.4251673
  45.2258553  16.1402753   9.2881673  46.0718553  15.9502753   9.3861673
  44.8558553  15.3632753   9.1501673  45.2958553  15.9972753   9.2821673
  57.8428553  27.7242753   3.6151673  58.5368553  27.2572753   3.3671673
  57.3038553  27.1262753   3.9521673  57.8658553  27.5662753   3.6281673
  40.0468553  17.4782753   5.9431673  40.5358553  17.1862753   6.6041673
  40.1758553  16.8852753   5.3161673  40.1378553  17.3472753   5.9481673
  55.0818553  20.5002753  12.7941673  55.0748553  19.7242753  13.1921673
  54.2408553  20.7342753  12.7871673  54.9568553  20.4202753  12.8521673
  41.3908553  22.0212753  16.8311673  40.9698553  21.5032753  16.2701673
  41.0388553  22.8072753  16.6881673  41.2768553  22.0612753  16.7271673
  56.3378553  20.5712753  10.2311673  56.0518553  20.9722753  10.9511673
  57.1978553  20.5092753  10.3581673  56.4228553  20.6212753  10.3561673
  46.0268553  17.3732753   4.1391673  46.2988553  18.1992753   4.2061673
  45.1638553  17.4482753   4.0431673  45.9398553  17.5062753   4.1341673
  53.9998553  14.4952753  18.7711673  53.4748553  14.9542753  19.2951673
  53.6388553  13.7002753  18.7651673  53.8688553  14.4452753  18.8471673
  39.5068553  13.3432753  10.6751673  39.5508553  13.6872753   9.8741673
  40.2618553  13.5802753  11.0421673  39.6248553  13.4292753  10.6111673
  57.4688553  26.2042753  10.7601673  57.7588553  26.4612753   9.9791673
  58.1638553  26.3002753  11.2791673  57.6148553  26.2562753  10.7211673
  52.4918553  18.0642753  18.8471673  52.5648553  18.1682753  19.7101673
  51.8578553  18.6222753  18.6261673  52.4088553  18.1622753  18.9421673
  54.7598553  18.3832753  17.2121673  55.0788553  19.1692753  17.4151673
  54.3898553  18.1132753  17.9551673  54.7528553  18.4592753  17.3521673
  54.0738553  24.8072753   2.7421673  54.4078553  24.0012753   2.7771673
  53.3188553  24.7352753   3.1721673  54.0118553  24.6772753   2.8111673
  54.5558553  16.6412753   8.4011673  53.8108553  16.3182753   8.7191673
  54.5578553  17.4672753   8.6811673  54.4458553  16.7152753   8.4891673
  57.4578553  18.9252753  19.9471673  57.4058553  18.5842753  19.1461673
  58.1948553  19.3922753  19.9251673  57.5588553  18.9442753  19.8251673
  56.9958553  22.6012753  16.1531673  57.6238553  22.0522753  15.8971673
  56.9348553  23.1662753  15.4911673  57.0798553  22.6042753  16.0171673
  51.4478553  22.6822753   2.1451673  52.1318553  22.1682753   1.9761673
  51.0308553  22.7282753   1.3801673  51.4868553  22.6132753   2.0071673
  44.1088553  22.7822753  16.8471673  43.3028553  22.4922753  17.0141673
  44.0198553  23.6502753  16.8531673  43.9768553  22.8672753  16.8721673
  53.4678553  12.9712753  15.8621673  54.2118553  13.4232753  15.7991673
  52.9018553  13.4412753  15.3931673  53.4948553  13.1082753  15.7841673
  48.6458553  20.2552753  12.9401673  49.1218553  20.6292753  13.5681673
  47.8228553  20.3892753  13.1991673  48.5948553  20.3302753  13.0711673
  45.3558553  15.8582753  15.6811673  45.5168553  15.1142753  16.1081673
  45.3108553  15.6092753  14.8461673  45.3728553  15.7112753  15.6211673
  47.9098553  27.6482753   8.1681673  48.4558553  28.3272753   8.2221673
  47.5598553  27.7302753   7.3731673  47.9388553  27.7612753   8.0581673
  54.7528553  10.9512753  13.5321673  54.4728553  11.7762753  13.4881673
  55.4688553  11.0042753  14.0281673  54.8178553  11.0812753  13.5991673
  47.1078553  11.6662753  15.5611673  47.8128553  11.9862753  15.1591673
  47.3488553  10.8592753  15.7881673  47.2468553  11.5942753  15.5351673
  46.0928553  25.8762753  11.5571673  45.4688553  26.4582753  11.3751673
  46.3408553  25.5902753  10.7711673  46.0368553  25.9202753  11.4141673
  50.4018553  22.5102753  18.5461673  51.1588553  22.7962753  18.2201673
  49.8548553  22.5622753  17.8681673  50.4328553  22.5602753  18.3971673
  54.3108553  25.0602753  17.0501673  54.6568553  25.3302753  17.8041673
  54.6048553  25.6422753  16.4701673  54.4058553  25.1862753  17.0761673
  56.1738553  17.2062753   2.3891673  56.5518553  17.8832753   1.9891673
  55.3318553  17.4302753   2.4201673  56.1048553  17.3392753   2.3341673
  43.6168553  16.7192753  11.6221673  44.0568553  16.6162753  10.8761673
  44.1618553  16.4062753  12.2271673  43.7618553  16.6582753  11.6011673
  51.6328553  15.8212753  17.2141673  50.9848553  16.2912753  17.5621673
  52.1978553  15.7322753  17.8731673  51.6208553  15.8772753  17.3631673
  51.3208553  17.3582753  13.5121673  51.6228553  17.7782753  14.2151673
  51.3568553  16.5182753  13.7441673  51.3708553  17.2962753  13.6501673
  48.7458553  27.5252753  17.4371673  49.2238553  26.9252753  17.0211673
  48.3948553  27.0822753  18.1021673  48.7648553  27.3712753  17.4741673
  53.8688553  16.8052753   5.7641673  54.0758553  16.6042753   6.5881673
  54.6248553  17.0732753   5.4221673  54.0108553  16.8152753   5.8351673
  47.1638553  11.7042753  11.6691673  46.3378553  11.5552753  11.9061673
  47.1238553  11.7392753  10.7981673  47.0358553  11.6872753  11.5751673
  54.8908553  12.8882753   7.2381673  54.1768553  12.4172753   7.4091673
  54.7288553  13.2292753   6.4521673  54.7618553  12.8692753   7.1471673
  55.3338553  20.8322753   5.6181673  55.8098553  20.1032753   5.5701673
  54.5128553  20.5462753   5.5421673  55.2828553  20.6822753   5.5991673
  48.8048553  22.7442753  16.4571673  48.0098553  22.6802753  16.8081673
  48.8758553  23.5912753  16.2621673  48.6978553  22.8592753  16.4801673
  39.7288553  12.1022753  17.7041673  39.5888553  12.8972753  17.3731673
  38.9428553  11.8592753  17.9931673  39.5918553  12.1842753  17.6981673
  44.6348553  28.9512753  11.7741673  44.6458553  29.0102753  12.6441673
  44.2098553  28.2042753  11.6241673  44.5738553  28.8492753  11.8801673
  42.7928553  14.8462753   4.9291673  42.9188553  14.5172753   4.1311673
  41.9808553  14.5972753   5.1281673  42.6918553  14.7612753   4.8411673
  51.5498553  21.9992753   7.9731673  51.6258553  22.3402753   8.7721673
  51.7188553  21.1522753   8.0941673  51.5858553  21.9242753   8.1091673
  49.0718553  21.2732753   7.5381673  48.7738553  20.9582753   8.2951673
  49.7668553  21.7462753   7.7731673  49.1308553  21.2962753   7.6851673
  49.2938553  25.3912753  15.5651673  49.9808553  25.2772753  16.0901673
  49.4278553  26.1822753  15.2211673  49.4148553  25.4912753  15.5921673
  57.4698553  18.0002753  17.3761673  56.6148553  17.8782753  17.5021673
  57.6228553  17.6052753  16.6131673  57.3658553  17.9232753  17.2821673
  51.9828553  18.6652753  15.9521673  51.7278553  17.9462753  16.3741673
  52.8038553  18.7812753  16.2221673  52.0668553  18.5762753  16.0541673
  41.3988553  28.4492753  17.2161673  40.7448553  27.8802753  17.3141673
  41.0238553  29.2222753  17.3671673  41.2468553  28.4792753  17.2531673
  49.9168553  19.8552753  19.1391673  50.2398553  20.5412753  18.7071673
  49.2128553  20.1782753  19.5411673  49.8598553  20.0042753  19.1341673
  53.0008553  28.2292753  10.0681673  52.5498553  28.8722753  10.4471673
  53.7088553  28.1502753  10.5731673  53.0388553  28.3122753  10.1991673
  49.7018553  23.3192753  12.9981673  49.0078553  23.7212753  13.3411673
  50.3788553  23.7522753  13.3371673  49.6988553  23.4422753  13.0991673
  55.0788553  25.9122753  19.5781673  55.8548553  25.5222753  19.6611673
  54.6098553  25.5762753  20.2331673  55.1238553  25.8052753  19.6871673
  42.7698553  16.8572753  15.3451673  43.1448553  17.4762753  14.8581673
  43.4438553  16.3832753  15.6301673  42.9248553  16.8792753  15.3151673
  40.5448553  15.3052753  14.6201673  40.6218553  15.1362753  13.7671673
  41.2908553  15.7112753  14.8171673  40.6658553  15.3402753  14.5231673
  56.1038553  17.9452753   5.0601673  56.2068553  17.8872753   4.1961673
  56.8448553  17.6132753   5.3781673  56.2288553  17.8882753   4.9791673
  43.0988553  12.7152753  17.0311673  43.0178553  11.8712753  17.2371673
  42.7848553  12.7592753  16.2181673  43.0408553  12.5972753  16.9411673
  50.0238553  24.9102753   6.1671673  49.8188553  25.7432753   6.0081673
  49.2488553  24.5282753   6.2891673  49.8788553  24.9772753   6.1621673
  55.2058553  18.0912753  14.4161673  55.2038553  17.2282753  14.5401673
  55.2728553  18.4152753  15.2231673  55.2158553  18.0112753  14.5531673
  39.9418553  20.5312753  14.8441673  40.2618553  20.7502753  14.0631673
  39.8418553  19.6662753  14.7891673  39.9738553  20.4362753  14.7211673
  51.0848553  12.8912753  18.1981673  51.1768553  13.6032753  18.6921673
  50.4478553  12.4462753  18.5951673  51.0038553  12.9302753  18.3301673
  50.0788553  13.0812753   9.0521673  49.3788553  13.5992753   8.9961673
  50.1168553  12.7012753   8.2681673  49.9808553  13.1022753   8.9281673
  45.3858553  25.1722753   2.5761673  45.8268553  25.2522753   3.3241673
  44.5808553  24.9562753   2.8341673  45.3318553  25.1522753   2.7251673
  53.6768553  13.5972753  11.8521673  54.5318553  13.6962753  11.9971673
  53.3078553  14.1502753  12.4171673  53.7488553  13.6942753  11.9571673
  44.7048553  19.8232753  16.2291673  44.3088553  20.5972753  16.3041673
  44.2988553  19.4502753  15.5531673  44.5868553  19.8822753  16.1401673
  53.9808553  18.8772753  10.3431673  54.6468553  19.4182753  10.5031673
  53.6358553  19.1882753   9.6041673  54.0278553  19.0032753  10.2581673
  54.2938553  26.9432753   6.1501673  54.1198553  26.2892753   6.7001673
  55.0068553  26.6722753   5.7271673  54.3738553  26.8062753   6.1691673
  42.7148553  24.2422753   3.1771673  42.4708553  23.9352753   3.9571673
  42.6818553  23.5392753   2.6611673  42.6738553  24.0932753   3.2161673
  45.5338553  22.4872753   1.9201673  44.7158553  22.2192753   2.0601673
  45.5058553  23.3392753   2.1051673  45.4088553  22.5742753   1.9681673
  45.1338553  12.8002753  13.6791673  44.2698553  12.8842753  13.7591673
  45.3538553  12.2862753  14.3481673  45.0388553  12.7372753  13.7901673
  57.1518553  11.4352753  15.0081673  57.0998553  11.3912753  15.8781673
  57.8388553  10.9322753  14.8181673  57.2458553  11.3552753  15.1081673
  49.2368553  13.5482753  12.0531673  48.4998553  13.0942753  12.1661673
  49.8078553  13.1462753  12.5761673  49.2118553  13.4212753  12.1471673
  51.9688553  24.3962753  13.8411673  52.1748553  24.6972753  14.6331673
  51.9078553  25.1182753  13.3561673  51.9898553  24.5472753  13.8861673
  51.5028553  28.6102753  18.0871673  50.7498553  28.5922753  17.6461673
  51.6708553  29.4622753  18.1711673  51.4168553  28.7332753  18.0341673
  46.7398553  17.8772753  17.2571673  46.4178553  17.3012753  16.6871673
  46.3808553  18.6322753  17.0111673  46.6398553  17.9032753  17.1371673
  56.7808553  23.0352753  13.2991673  56.7488553  22.1732753  13.1641673
  56.0878553  23.3372753  12.8651673  56.6738553  22.9522753  13.2151673
  45.1748553  28.2332753  17.5051673  45.2158553  28.3592753  18.3681673
  45.8258553  27.6732753  17.3491673  45.2768553  28.1692753  17.6101673
  54.8858553  26.2952753  12.0961673  55.4128553  26.2122753  11.4051673
  54.4948553  25.5172753  12.1501673  54.9058553  26.1682753  12.0021673
  42.3538553  12.8832753  14.3271673  42.0108553  12.1162753  14.0931673
  41.6588553  13.4072753  14.3911673  42.2008553  12.8472753  14.3021673
  51.3998553  11.7392753  11.3041673  52.0698553  12.2832753  11.4311673
  50.8968553  12.1632753  10.7311673  51.4248553  11.8822753  11.2381673
  42.7678553  26.6162753  18.8651673  43.3628553  27.0472753  19.3371673
  42.4038553  27.2402753  18.3761673  42.8018553  26.7722753  18.8621673
  50.7588553  17.5472753   8.7971673  51.3098553  16.9402753   9.0971673
  50.3338553  17.8102753   9.5121673  50.7778553  17.4962753   8.9461673
  41.0068553  16.1972753   8.2831673  40.6388553  16.4992753   9.0141673
  41.5408553  15.5682753   8.5671673  41.0308553  16.1492753   8.4331673
  40.6948553  24.6052753  15.7941673  40.1208553  25.0212753  16.3031673
  41.4278553  25.0702753  15.8891673  40.7188553  24.7352753  15.8831673
  52.7288553  19.3782753   5.3591673  52.7968553  18.5282753   5.5401673
  51.9058553  19.4642753   5.0811673  52.6168553  19.2652753   5.3451673
  42.4808553  27.8722753   4.5691673  42.3358553  28.0282753   3.7231673
  43.3468553  27.9512753   4.6471673  42.5878553  27.9072753   4.4561673
  46.6478553  20.2692753   4.2971673  46.7478553  20.4082753   3.4421673
  47.4658553  20.2092753   4.5931673  46.7828553  20.2802753   4.2141673
  55.8078553  28.3332753   1.7771673  56.4448553  28.1992753   2.3581673
  55.4668553  27.5392753   1.6601673  55.8518553  28.1962753   1.8451673
  56.0028553  20.7512753  18.5101673  56.6368553  20.5812753  19.0841673
  56.4198553  21.1542753  17.8581673  56.1578553  20.7862753  18.4991673
  51.8828553  24.5982753   4.0991673  51.6318553  24.4702753   4.9251673
  51.5658553  23.9032753   3.6781673  51.7988553  24.4772753   4.1591673
  56.6278553  15.3152753  19.2481673  56.4318553  15.9592753  19.8031673
  55.9058553  14.8252753  19.2401673  56.4928553  15.3382753  19.3291673
  56.5268553  16.2562753  12.2191673  55.6938553  16.5062753  12.1471673
  56.4708553  15.4162753  12.4481673  56.3958553  16.1692753  12.2421673
  45.7868553  13.2442753  17.4131673  46.0208553  12.6682753  16.8001673
  44.9448553  13.0632753  17.5541673  45.6968553  13.1322753  17.3431673
  53.4138553  20.8622753  19.8651673  54.2848553  20.8262753  19.8291673
  53.1948553  21.2822753  19.1331673  53.5108553  20.9182753  19.7521673
  43.1678553  26.6872753  11.0461673  43.0888553  25.8772753  10.7301673
  42.7238553  27.1742753  10.4741673  43.0908553  26.6392753  10.9151673
  48.7688553  22.8062753   3.5291673  49.4858553  22.4592753   3.1731673
  48.7348553  23.6062753   3.1811673  48.8698553  22.8732753   3.4251673
  40.7398553  28.9312753  14.6271673  41.2328553  28.8752753  15.3451673
  40.9278553  28.1982753  14.1921673  40.8408553  28.8142753  14.6691673
  39.8558553   4.0251673  63.9198903  39.4148553   4.1431673  64.6628903
  39.5728553   3.2501673  63.6348903  39.7488553   3.9281673  63.9878903
  56.1308553   7.3261673  61.4348903  56.8318553   6.8071673  61.4308903
  55.5438553   6.8811673  60.9658903  56.1478553   7.1831673  61.3648903
  42.7378553   3.0801673  59.0988903  42.3458553   2.7091673  58.4128903
  42.6578553   2.4821673  59.7278903  42.6678553   2.9371673  59.0898903
  42.3648553   4.7211673  62.9988903  42.9728553   4.5511673  63.6018903
  41.6138553   4.5811673  63.4198903  42.3438553   4.6751673  63.1498903
  41.2558553   7.8121673  59.0758903  41.7228553   7.8961673  58.3438903
  41.7108553   7.2341673  59.5448903  41.3918553   7.7391673  59.0368903
  39.7958553   6.7601673  70.1748903  39.9248553   6.4801673  70.9908903
  39.1858553   6.2191673  69.8658903  39.7248553   6.6391673  70.2498903
  46.3698553   4.2851673  75.2418903  46.1338553   4.2821673  76.0818903
  45.6218553   4.1371673  74.8178903  46.2238553   4.2621673  75.3028903
  46.3518553   7.4771673  72.5048903  46.4898553   8.2371673  72.0978903
  47.1428553   7.1121673  72.5318903  46.4888553   7.5361673  72.4488903
  47.4468553   5.3621673  67.0098903  47.7948553   4.5631673  67.0398903
  48.1118553   5.8661673  66.7548903  47.5968553   5.3181673  66.9768903
  47.5038553   4.8111673  63.2208903  47.8348553   4.1671673  63.7068903
  47.7438553   4.6001673  62.4098903  47.5878553   4.6851673  63.1728903
  39.6078553   8.7521673  65.2898903  39.0158553   9.3101673  64.9768903
  40.0338553   8.4831673  64.5778903  39.5838553   8.7941673  65.1388903
  45.4478553   6.5961673  62.7698903  44.8688553   6.3211673  63.3618903
  46.0718553   5.9871673  62.7948903  45.4548553   6.4661673  62.8608903
  51.5908553   8.8841673  60.2918903  52.3178553   9.3561673  60.3938903
  51.8198553   8.0901673  60.5718903  51.7328553   8.8371673  60.3488903
  49.7588553   9.2761673  62.2818903  49.9728553   9.8031673  62.9438903
  50.5258553   9.1021673  61.9028903  49.9038553   9.3281673  62.3238903
  41.1528553   7.4221673  63.2208903  41.8088553   6.8471673  63.2358903
  41.5418553   8.1711673  62.9998903  41.3078553   7.4471673  63.1908903
  52.1978553   9.2861673  70.5868903  52.9418553   9.7421673  70.5768903
  52.0768553   9.0721673  69.7498903  52.2898553   9.3221673  70.4618903
  41.9708553   5.9091673  66.7208903  42.3938553   5.5531673  66.0468903
  42.2948553   5.4871673  67.4128903  42.0808553   5.7941673  66.7238903
  45.2018553   8.7611673  66.0168903  46.0458553   8.8651673  65.8218903
  44.9048553   9.5791673  66.0848903  45.2828553   8.8971673  65.9978903
  53.7718553  10.4711673  60.6918903  54.4368553  10.3231673  60.1468903
  54.1318553  10.3881673  61.4818903  53.9238553  10.4371673  60.7278903
  44.1998553   9.9801673  71.7568903  44.4918553   9.9131673  72.5768903
  43.5738553   9.3751673  71.7118903  44.1508553   9.8811673  71.8718903
  51.4518553   6.4711673  74.2908903  51.4178553   6.8531673  75.0748903
  52.3058553   6.4291673  74.1198903  51.5728553   6.5211673  74.3818903
  48.5898553   6.6681673  59.0408903  48.4088553   7.2131673  59.6978903
  49.3558553   6.9581673  58.7398903  48.6758553   6.7921673  59.0938903
  42.1928553   8.1421673  70.8788903  41.4948553   7.6341673  71.0048903
  42.4528553   7.9371673  70.0708903  42.1278553   8.0371673  70.7778903
  49.9038553   9.6351673  71.7888903  50.6718553   9.5551673  71.3828903
  49.3208553   9.5141673  71.1508903  49.9308553   9.6051673  71.6348903
  56.1808553  10.2381673  64.6898903  55.7258553  10.9551673  64.8908903
  55.5668553   9.6671673  64.4478903  56.0228553  10.2601673  64.6838903
  53.1778553   6.0831673  64.2338903  53.8788553   5.6011673  64.4228903
  52.5178553   5.5141673  64.2788903  53.1838553   5.9281673  64.2678903
  43.5538553   6.9931673  73.4458903  44.3948553   7.0561673  73.2238903
  43.5168553   7.3901673  74.2218903  43.6728553   7.0611673  73.5278903
  45.5168553   2.5041673  68.1948903  45.6888553   2.2941673  69.0238903
  44.8618553   1.9701673  67.9788903  45.4458553   2.3941673  68.2858903
  46.2668553   2.4421673  70.7848903  46.3198553   3.2891673  70.9868903
  45.9818553   2.0721673  71.5218903  46.2328553   2.5121673  70.9228903
  52.4438553   3.1371673  69.9148903  51.9298553   2.7251673  70.4858903
  52.3178553   3.9811673  70.0958903  52.3498553   3.2011673  70.0258903
  55.6968553   3.5761673  60.0418903  55.8158553   3.2891673  60.8568903
  56.5038553   3.5971673  59.7118903  55.8328553   3.5371673  60.1138903
  42.8328553   3.3081673  65.3728903  43.6838553   3.2281673  65.1998903
  42.4758553   2.6261673  64.9608903  42.9058553   3.1951673  65.2858903
  41.5998553  10.0331673  66.6098903  40.9268553   9.5351673  66.3648903
  42.0028553  10.2181673  65.8588903  41.5598553   9.9871673  66.4628903
  57.9308553   8.0851673  74.2958903  57.2488553   8.3951673  73.8488903
  57.5618553   7.6271673  74.9408903  57.7748553   8.0631673  74.3248903
  45.2008553   3.3151673  63.6078903  45.9138553   3.8101673  63.6978903
  45.4228553   2.7481673  62.9818903  45.3388553   3.3041673  63.5288903
  39.3568553   4.9581673  66.9278903  38.6898553   5.4461673  67.2038903
  40.0368553   5.5031673  66.9568903  39.3588553   5.1101673  66.9728903
  49.7238553   7.0181673  65.9348903  49.2008553   7.6521673  65.6418903
  50.0338553   6.6541673  65.2058903  49.6918553   7.0581673  65.7838903
  39.5948553   5.8061673  61.6058903  40.1468553   6.3751673  61.9698903
  39.3628553   5.2911673  62.2708903  39.6418553   5.8141673  61.7578903
  43.7988553   4.8061673  68.6948903  44.2658553   5.0951673  69.3728903
  44.3708553   4.3281673  68.2408903  43.9528553   4.7781673  68.7278903
  39.4248553   4.2551673  59.2338903  40.1808553   3.8231673  59.2918903
  39.4398553   4.7871673  59.9248903  39.5388553   4.2701673  59.3448903
  40.3648553   2.4761673  67.2388903  40.7958553   2.3471673  66.4918903
  40.1598553   3.3241673  67.2128903  40.3978553   2.5821673  67.1248903
  55.7648553   8.4671673  72.3858903  55.0938553   8.9811673  72.6038903
  55.8278553   8.5671673  71.5218903  55.6748553   8.5581673  72.2908903
  44.4488553   5.9921673  65.5208903  44.5748553   6.8351673  65.7078903
  45.1168553   5.5931673  65.9168903  44.5668553   6.0581673  65.6068903
  47.7608553   9.2161673  69.9818903  47.4838553   8.5751673  69.4588903
  47.5528553   9.9421673  69.5438903  47.6898553   9.2291673  69.8398903
  53.0628553   3.9991673  74.4068903  53.5468553   4.7171673  74.5048903
  53.4568553   3.5721673  73.7558903  53.1928553   4.0421673  74.3248903
  47.3588553   6.8441673  75.5838903  47.7128553   6.6661673  76.3608903
  46.9228553   6.1151673  75.3848903  47.3468553   6.7101673  75.6698903
  55.4918553   4.6301673  64.4768903  55.8478553   4.2801673  65.1918903
  55.4838553   3.9691673  63.9068903  55.5438553   4.4801673  64.4978903
  51.5368553   7.6961673  68.3208903  50.9338553   7.4001673  67.7638903
  52.0818553   8.1481673  67.8118903  51.5278553   7.7191673  68.1628903
  51.5498553   4.5471673  67.7208903  50.7528553   4.7711673  67.9948903
  51.8078553   3.9531673  68.3058903  51.4698553   4.4921673  67.8478903
  45.4418553   9.3591673  62.1688903  45.2948553   8.5831673  62.5398903
  46.1308553   9.2121673  61.6538903  45.5218553   9.2221673  62.1478903
  47.7338553   8.8751673  60.5708903  48.3558553   9.0381673  61.1608903
  47.7698553   9.5661673  60.0388903  47.8308553   9.0011673  60.5798903
  54.8098553   2.5451673  72.5668903  54.8648553   2.6701673  71.7048903
  55.5628553   2.8651673  72.8688903  54.9288553   2.6101673  72.4838903
  50.5408553   2.3511673  72.1668903  50.3858553   2.9611673  72.7708903
  51.0748553   1.7931673  72.5728903  50.5968553   2.3591673  72.3158903
  54.1508553   5.0801673  68.6938903  53.6718553   5.3781673  68.0278903
  53.7948553   4.3041673  68.8718903  54.0278553   5.0091673  68.6218903
  48.1478553   2.7981673  67.2558903  47.3008553   2.6041673  67.3368903
  48.4718553   2.6331673  68.0488903  48.0698553   2.7451673  67.3848903
  44.8998553   9.5281673  58.1418903  45.3388553   8.8311673  58.4298903
  45.1068553  10.1521673  58.7148903  44.9958553   9.5171673  58.2688903
  41.9958553   2.4911673  69.5718903  42.7178553   2.9791673  69.5348903
  41.7258553   2.4611673  68.7428903  42.0628553   2.5591673  69.4438903
  57.8428553   9.2461673  60.6338903  58.5368553   8.7791673  60.3858903
  57.3038553   8.6481673  60.9708903  57.8658553   9.0881673  60.6468903
  41.3908553   3.5431673  73.8498903  40.9698553   3.0251673  73.2888903
  41.0388553   4.3291673  73.7068903  41.2768553   3.5831673  73.7458903
  56.3378553   2.0931673  67.2498903  56.0518553   2.4941673  67.9698903
  57.1978553   2.0311673  67.3768903  56.4228553   2.1431673  67.3748903
  57.4688553   7.7261673  67.7788903  57.7588553   7.9831673  66.9978903
  58.1638553   7.8221673  68.2978903  57.6148553   7.7781673  67.7398903
  54.0738553   6.3291673  59.7608903  54.4078553   5.5231673  59.7958903
  53.3188553   6.2571673  60.1908903  54.0118553   6.1991673  59.8298903
  56.9958553   4.1231673  73.1718903  57.6238553   3.5741673  72.9158903
  56.9348553   4.6881673  72.5098903  57.0798553   4.1261673  73.0358903
  51.4478553   4.2041673  59.1638903  52.1318553   3.6901673  58.9948903
  51.0308553   4.2501673  58.3988903  51.4868553   4.1351673  59.0258903
  46.1298553   5.3541673  70.4678903  45.8318553   5.9461673  71.0348903
  46.1848553   5.7961673  69.7188903  46.0938553   5.5071673  70.4408903
  44.1088553   4.3041673  73.8658903  43.3028553   4.0141673  74.0328903
  44.0198553   5.1721673  73.8718903  43.9768553   4.3891673  73.8908903
  48.6458553   1.7771673  69.9588903  49.1218553   2.1511673  70.5868903
  47.8228553   1.9111673  70.2178903  48.5948553   1.8521673  70.0898903
  47.9098553   9.1701673  65.1868903  48.4558553   9.8491673  65.2408903
  47.5598553   9.2521673  64.3918903  47.9388553   9.2831673  65.0768903
  46.0928553   7.3981673  68.5758903  45.4688553   7.9801673  68.3938903
  46.3408553   7.1121673  67.7898903  46.0368553   7.4421673  68.4328903
  50.4018553   4.0321673  75.5648903  51.1588553   4.3181673  75.2388903
  49.8548553   4.0841673  74.8868903  50.4328553   4.0821673  75.4158903
  54.3108553   6.5821673  74.0688903  54.6568553   6.8521673  74.8228903
  54.6048553   7.1641673  73.4888903  54.4058553   6.7081673  74.0948903
  47.6868553   2.1741673  58.4908903  46.8818553   1.9971673  58.2058903
  47.6538553   3.0251673  58.6828903  47.5628553   2.2731673  58.4778903
  48.7458553   9.0471673  74.4558903  49.2238553   8.4471673  74.0398903
  48.3948553   8.6041673  75.1208903  48.7648553   8.8931673  74.4928903
  55.3338553   2.3541673  62.6368903  55.8098553   1.6251673  62.5888903
  54.5128553   2.0681673  62.5608903  55.2828553   2.2041673  62.6178903
  48.8048553   4.2661673  73.4758903  48.0098553   4.2021673  73.8268903
  48.8758553   5.1131673  73.2808903  48.6978553   4.3811673  73.4988903
  44.6348553  10.4731673  68.7928903  44.6458553  10.5321673  69.6628903
  44.2098553   9.7261673  68.6428903  44.5738553  10.3711673  68.8988903
  51.5498553   3.5211673  64.9918903  51.6258553   3.8621673  65.7908903
  51.7188553   2.6741673  65.1128903  51.5858553   3.4461673  65.1278903
  49.0718553   2.7951673  64.5568903  48.7738553   2.4801673  65.3138903
  49.7668553   3.2681673  64.7918903  49.1308553   2.8181673  64.7038903
  49.2938553   6.9131673  72.5838903  49.9808553   6.7991673  73.1088903
  49.4278553   7.7041673  72.2398903  49.4148553   7.0131673  72.6108903
  41.3988553   9.9711673  74.2348903  40.7448553   9.4021673  74.3328903
  41.0238553  10.7441673  74.3858903  41.2468553  10.0011673  74.2718903
  53.0008553   9.7511673  67.0868903  52.5498553  10.3941673  67.4658903
  53.7088553   9.6721673  67.5918903  53.0388553   9.8341673  67.2178903
  49.7018553   4.8411673  70.0168903  49.0078553   5.2431673  70.3598903
  50.3788553   5.2741673  70.3558903  49.6988553   4.9641673  70.1178903
  50.0238553   6.4321673  63.1858903  49.8188553   7.2651673  63.0268903
  49.2488553   6.0501673  63.3078903  49.8788553   6.4991673  63.1808903
  45.3858553   6.6941673  59.5948903  45.8268553   6.7741673  60.3428903
  44.5808553   6.4781673  59.8528903  45.3318553   6.6741673  59.7438903
  54.2938553   8.4651673  63.1688903  54.1198553   7.8111673  63.7188903
  55.0068553   8.1941673  62.7458903  54.3738553   8.3281673  63.1878903
  42.7148553   5.7641673  60.1958903  42.4708553   5.4571673  60.9758903
  42.6818553   5.0611673  59.6798903  42.6738553   5.6151673  60.2348903
  45.5338553   4.0091673  58.9388903  44.7158553   3.7411673  59.0788903
  45.5058553   4.8611673  59.1238903  45.4088553   4.0961673  58.9868903
  51.9688553   5.9181673  70.8598903  52.1748553   6.2191673  71.6518903
  51.9078553   6.6401673  70.3748903  51.9898553   6.0691673  70.9048903
  51.5028553  10.1321673  75.1058903  50.7498553  10.1141673  74.6648903
  51.6708553  10.9841673  75.1898903  51.4168553  10.2551673  75.0528903
  56.7808553   4.5571673  70.3178903  56.7488553   3.6951673  70.1828903
  56.0878553   4.8591673  69.8838903  56.6738553   4.4741673  70.2338903
  45.1748553   9.7551673  74.5238903  45.2158553   9.8811673  75.3868903
  45.8258553   9.1951673  74.3678903  45.2768553   9.6911673  74.6288903
  54.8858553   7.8171673  69.1148903  55.4128553   7.7341673  68.4238903
  54.4948553   7.0391673  69.1688903  54.9058553   7.6901673  69.0208903
  42.7678553   8.1381673  75.8838903  43.3628553   8.5691673  76.3558903
  42.4038553   8.7621673  75.3948903  42.8018553   8.2941673  75.8808903
  40.6948553   6.1271673  72.8128903  40.1208553   6.5431673  73.3218903
  41.4278553   6.5921673  72.9078903  40.7188553   6.2571673  72.9018903
  42.4808553   9.3941673  61.5878903  42.3358553   9.5501673  60.7418903
  43.3468553   9.4731673  61.6658903  42.5878553   9.4291673  61.4748903
  46.6478553   1.7911673  61.3158903  46.7478553   1.9301673  60.4608903
  47.4658553   1.7311673  61.6118903  46.7828553   1.8021673  61.2328903
  55.8078553   9.8551673  58.7958903  56.4448553   9.7211673  59.3768903
  55.4668553   9.0611673  58.6788903  55.8518553   9.7181673  58.8638903
  56.0028553   2.2731673  75.5288903  56.6368553   2.1031673  76.1028903
  56.4198553   2.6761673  74.8768903  56.1578553   2.3081673  75.5178903
  51.8828553   6.1201673  61.1178903  51.6318553   5.9921673  61.9438903
  51.5658553   5.4251673  60.6968903  51.7988553   5.9991673  61.1778903
  53.4138553   2.3841673  76.8838903  54.2848553   2.3481673  76.8478903
  53.1948553   2.8041673  76.1518903  53.5108553   2.4401673  76.7708903
  43.1678553   8.2091673  68.0648903  43.0888553   7.3991673  67.7488903
  42.7238553   8.6961673  67.4928903  43.0908553   8.1611673  67.9338903
  48.7688553   4.3281673  60.5478903  49.4858553   3.9811673  60.1918903
  48.7348553   5.1281673  60.1998903  48.8698553   4.3951673  60.4438903
  40.7398553  10.4531673  71.6458903  41.2328553  10.3971673  72.3638903
  40.9278553   9.7201673  71.2108903  40.8408553  10.3361673  71.6878903
  39.8558553   4.0251673  44.9136493  39.4148553   4.1431673  45.6566493
  39.5728553   3.2501673  44.6286493  39.7488553   3.9281673  44.9816493
  56.1308553   7.3261673  42.4286493  56.8318553   6.8071673  42.4246493
  55.5438553   6.8811673  41.9596493  56.1478553   7.1831673  42.3586493
  42.7378553   3.0801673  40.0926493  42.3458553   2.7091673  39.4066493
  42.6578553   2.4821673  40.7216493  42.6678553   2.9371673  40.0836493
  42.3648553   4.7211673  43.9926493  42.9728553   4.5511673  44.5956493
  41.6138553   4.5811673  44.4136493  42.3438553   4.6751673  44.1436493
  41.2558553   7.8121673  40.0696493  41.7228553   7.8961673  39.3376493
  41.7108553   7.2341673  40.5386493  41.3918553   7.7391673  40.0306493
  39.7958553   6.7601673  51.1686493  39.9248553   6.4801673  51.9846493
  39.1858553   6.2191673  50.8596493  39.7248553   6.6391673  51.2436493
  46.3698553   4.2851673  56.2356493  46.1338553   4.2821673  57.0756493
  45.6218553   4.1371673  55.8116493  46.2238553   4.2621673  56.2966493
  46.3518553   7.4771673  53.4986493  46.4898553   8.2371673  53.0916493
  47.1428553   7.1121673  53.5256493  46.4888553   7.5361673  53.4426493
  47.4468553   5.3621673  48.0036493  47.7948553   4.5631673  48.0336493
  48.1118553   5.8661673  47.7486493  47.5968553   5.3181673  47.9706493
  47.5038553   4.8111673  44.2146493  47.8348553   4.1671673  44.7006493
  47.7438553   4.6001673  43.4036493  47.5878553   4.6851673  44.1666493
  39.6078553   8.7521673  46.2836493  39.0158553   9.3101673  45.9706493
  40.0338553   8.4831673  45.5716493  39.5838553   8.7941673  46.1326493
  45.4478553   6.5961673  43.7636493  44.8688553   6.3211673  44.3556493
  46.0718553   5.9871673  43.7886493  45.4548553   6.4661673  43.8546493
  51.5908553   8.8841673  41.2856493  52.3178553   9.3561673  41.3876493
  51.8198553   8.0901673  41.5656493  51.7328553   8.8371673  41.3426493
  49.7588553   9.2761673  43.2756493  49.9728553   9.8031673  43.9376493
  50.5258553   9.1021673  42.8966493  49.9038553   9.3281673  43.3176493
  41.1528553   7.4221673  44.2146493  41.8088553   6.8471673  44.2296493
  41.5418553   8.1711673  43.9936493  41.3078553   7.4471673  44.1846493
  52.1978553   9.2861673  51.5806493  52.9418553   9.7421673  51.5706493
  52.0768553   9.0721673  50.7436493  52.2898553   9.3221673  51.4556493
  41.9708553   5.9091673  47.7146493  42.3938553   5.5531673  47.0406493
  42.2948553   5.4871673  48.4066493  42.0808553   5.7941673  47.7176493
  45.2018553   8.7611673  47.0106493  46.0458553   8.8651673  46.8156493
  44.9048553   9.5791673  47.0786493  45.2828553   8.8971673  46.9916493
  53.7718553  10.4711673  41.6856493  54.4368553  10.3231673  41.1406493
  54.1318553  10.3881673  42.4756493  53.9238553  10.4371673  41.7216493
  44.1998553   9.9801673  52.7506493  44.4918553   9.9131673  53.5706493
  43.5738553   9.3751673  52.7056493  44.1508553   9.8811673  52.8656493
  51.4518553   6.4711673  55.2846493  51.4178553   6.8531673  56.0686493
  52.3058553   6.4291673  55.1136493  51.5728553   6.5211673  55.3756493
  48.5898553   6.6681673  40.0346493  48.4088553   7.2131673  40.6916493
  49.3558553   6.9581673  39.7336493  48.6758553   6.7921673  40.0876493
  42.1928553   8.1421673  51.8726493  41.4948553   7.6341673  51.9986493
  42.4528553   7.9371673  51.0646493  42.1278553   8.0371673  51.7716493
  49.9038553   9.6351673  52.7826493  50.6718553   9.5551673  52.3766493
  49.3208553   9.5141673  52.1446493  49.9308553   9.6051673  52.6286493
  56.1808553  10.2381673  45.6836493  55.7258553  10.9551673  45.8846493
  55.5668553   9.6671673  45.4416493  56.0228553  10.2601673  45.6776493
  53.1778553   6.0831673  45.2276493  53.8788553   5.6011673  45.4166493
  52.5178553   5.5141673  45.2726493  53.1838553   5.9281673  45.2616493
  43.5538553   6.9931673  54.4396493  44.3948553   7.0561673  54.2176493
  43.5168553   7.3901673  55.2156493  43.6728553   7.0611673  54.5216493
  45.5168553   2.5041673  49.1886493  45.6888553   2.2941673  50.0176493
  44.8618553   1.9701673  48.9726493  45.4458553   2.3941673  49.2796493
  46.2668553   2.4421673  51.7786493  46.3198553   3.2891673  51.9806493
  45.9818553   2.0721673  52.5156493  46.2328553   2.5121673  51.9166493
  52.4438553   3.1371673  50.9086493  51.9298553   2.7251673  51.4796493
  52.3178553   3.9811673  51.0896493  52.3498553   3.2011673  51.0196493
  39.0878553   6.8131673  57.9896493  39.8438553   7.1621673  58.2476493
  39.2648553   5.9601673  57.9326493  39.2258553   6.7381673  58.0196493
  55.6968553   3.5761673  41.0356493  55.8158553   3.2891673  41.8506493
  56.5038553   3.5971673  40.7056493  55.8328553   3.5371673  41.1076493
  42.8328553   3.3081673  46.3666493  43.6838553   3.2281673  46.1936493
  42.4758553   2.6261673  45.9546493  42.9058553   3.1951673  46.2796493
  41.5998553  10.0331673  47.6036493  40.9268553   9.5351673  47.3586493
  42.0028553  10.2181673  46.8526493  41.5598553   9.9871673  47.4566493
  57.9308553   8.0851673  55.2896493  57.2488553   8.3951673  54.8426493
  57.5618553   7.6271673  55.9346493  57.7748553   8.0631673  55.3186493
  45.2008553   3.3151673  44.6016493  45.9138553   3.8101673  44.6916493
  45.4228553   2.7481673  43.9756493  45.3388553   3.3041673  44.5226493
  39.3568553   4.9581673  47.9216493  38.6898553   5.4461673  48.1976493
  40.0368553   5.5031673  47.9506493  39.3588553   5.1101673  47.9666493
  49.7238553   7.0181673  46.9286493  49.2008553   7.6521673  46.6356493
  50.0338553   6.6541673  46.1996493  49.6918553   7.0581673  46.7776493
  39.5948553   5.8061673  42.5996493  40.1468553   6.3751673  42.9636493
  39.3628553   5.2911673  43.2646493  39.6418553   5.8141673  42.7516493
  43.7988553   4.8061673  49.6886493  44.2658553   5.0951673  50.3666493
  44.3708553   4.3281673  49.2346493  43.9528553   4.7781673  49.7216493
  39.4248553   4.2551673  40.2276493  40.1808553   3.8231673  40.2856493
  39.4398553   4.7871673  40.9186493  39.5388553   4.2701673  40.3386493
  40.3648553   2.4761673  48.2326493  40.7958553   2.3471673  47.4856493
  40.1598553   3.3241673  48.2066493  40.3978553   2.5821673  48.1186493
  55.7648553   8.4671673  53.3796493  55.0938553   8.9811673  53.5976493
  55.8278553   8.5671673  52.5156493  55.6748553   8.5581673  53.2846493
  44.4488553   5.9921673  46.5146493  44.5748553   6.8351673  46.7016493
  45.1168553   5.5931673  46.9106493  44.5668553   6.0581673  46.6006493
  47.7608553   9.2161673  50.9756493  47.4838553   8.5751673  50.4526493
  47.5528553   9.9421673  50.5376493  47.6898553   9.2291673  50.8336493
  53.0628553   3.9991673  55.4006493  53.5468553   4.7171673  55.4986493
  53.4568553   3.5721673  54.7496493  53.1928553   4.0421673  55.3186493
  47.3588553   6.8441673  56.5776493  47.7128553   6.6661673  57.3546493
  46.9228553   6.1151673  56.3786493  47.3468553   6.7101673  56.6636493
  55.4918553   4.6301673  45.4706493  55.8478553   4.2801673  46.1856493
  55.4838553   3.9691673  44.9006493  55.5438553   4.4801673  45.4916493
  51.5368553   7.6961673  49.3146493  50.9338553   7.4001673  48.7576493
  52.0818553   8.1481673  48.8056493  51.5278553   7.7191673  49.1566493
  51.5498553   4.5471673  48.7146493  50.7528553   4.7711673  48.9886493
  51.8078553   3.9531673  49.2996493  51.4698553   4.4921673  48.8416493
  45.4418553   9.3591673  43.1626493  45.2948553   8.5831673  43.5336493
  46.1308553   9.2121673  42.6476493  45.5218553   9.2221673  43.1416493
  47.7338553   8.8751673  41.5646493  48.3558553   9.0381673  42.1546493
  47.7698553   9.5661673  41.0326493  47.8308553   9.0011673  41.5736493
  54.8098553   2.5451673  53.5606493  54.8648553   2.6701673  52.6986493
  55.5628553   2.8651673  53.8626493  54.9288553   2.6101673  53.4776493
  51.0008553   7.8941673  57.8376493  51.1648553   8.1771673  58.6466493
  51.2638553   8.5551673  57.3326493  51.0638553   8.0341673  57.8826493
  50.5408553   2.3511673  53.1606493  50.3858553   2.9611673  53.7646493
  51.0748553   1.7931673  53.5666493  50.5968553   2.3591673  53.3096493
  54.1508553   5.0801673  49.6876493  53.6718553   5.3781673  49.0216493
  53.7948553   4.3041673  49.8656493  54.0278553   5.0091673  49.6156493
  48.1478553   2.7981673  48.2496493  47.3008553   2.6041673  48.3306493
  48.4718553   2.6331673  49.0426493  48.0698553   2.7451673  48.3786493
  44.8998553   9.5281673  39.1356493  45.3388553   8.8311673  39.4236493
  45.1068553  10.1521673  39.7086493  44.9958553   9.5171673  39.2626493
  41.9958553   2.4911673  50.5656493  42.7178553   2.9791673  50.5286493
  41.7258553   2.4611673  49.7366493  42.0628553   2.5591673  50.4376493
  57.8428553   9.2461673  41.6276493  58.5368553   8.7791673  41.3796493
  57.3038553   8.6481673  41.9646493  57.8658553   9.0881673  41.6406493
  41.3908553   3.5431673  54.8436493  40.9698553   3.0251673  54.2826493
  41.0388553   4.3291673  54.7006493  41.2768553   3.5831673  54.7396493
  56.3378553   2.0931673  48.2436493  56.0518553   2.4941673  48.9636493
  57.1978553   2.0311673  48.3706493  56.4228553   2.1431673  48.3686493
  57.4688553   7.7261673  48.7726493  57.7588553   7.9831673  47.9916493
  58.1638553   7.8221673  49.2916493  57.6148553   7.7781673  48.7336493
  54.0738553   6.3291673  40.7546493  54.4078553   5.5231673  40.7896493
  53.3188553   6.2571673  41.1846493  54.0118553   6.1991673  40.8236493
  56.9958553   4.1231673  54.1656493  57.6238553   3.5741673  53.9096493
  56.9348553   4.6881673  53.5036493  57.0798553   4.1261673  54.0296493
  51.4478553   4.2041673  40.1576493  52.1318553   3.6901673  39.9886493
  51.0308553   4.2501673  39.3926493  51.4868553   4.1351673  40.0196493
  46.1298553   5.3541673  51.4616493  45.8318553   5.9461673  52.0286493
  46.1848553   5.7961673  50.7126493  46.0938553   5.5071673  51.4346493
  44.1088553   4.3041673  54.8596493  43.3028553   4.0141673  55.0266493
  44.0198553   5.1721673  54.8656493  43.9768553   4.3891673  54.8846493
  48.6458553   1.7771673  50.9526493  49.1218553   2.1511673  51.5806493
  47.8228553   1.9111673  51.2116493  48.5948553   1.8521673  51.0836493
  47.9098553   9.1701673  46.1806493  48.4558553   9.8491673  46.2346493
  47.5598553   9.2521673  45.3856493  47.9388553   9.2831673  46.0706493
  46.0928553   7.3981673  49.5696493  45.4688553   7.9801673  49.3876493
  46.3408553   7.1121673  48.7836493  46.0368553   7.4421673  49.4266493
  50.4018553   4.0321673  56.5586493  51.1588553   4.3181673  56.2326493
  49.8548553   4.0841673  55.8806493  50.4328553   4.0821673  56.4096493
  54.3108553   6.5821673  55.0626493  54.6568553   6.8521673  55.8166493
  54.6048553   7.1641673  54.4826493  54.4058553   6.7081673  55.0886493
  47.6868553   2.1741673  39.4846493  46.8818553   1.9971673  39.1996493
  47.6538553   3.0251673  39.6766493  47.5628553   2.2731673  39.4716493
  48.7458553   9.0471673  55.4496493  49.2238553   8.4471673  55.0336493
  48.3948553   8.6041673  56.1146493  48.7648553   8.8931673  55.4866493
  55.3338553   2.3541673  43.6306493  55.8098553   1.6251673  43.5826493
  54.5128553   2.0681673  43.5546493  55.2828553   2.2041673  43.6116493
  48.8048553   4.2661673  54.4696493  48.0098553   4.2021673  54.8206493
  48.8758553   5.1131673  54.2746493  48.6978553   4.3811673  54.4926493
  44.6348553  10.4731673  49.7866493  44.6458553  10.5321673  50.6566493
  44.2098553   9.7261673  49.6366493  44.5738553  10.3711673  49.8926493
  51.5498553   3.5211673  45.9856493  51.6258553   3.8621673  46.7846493
  51.7188553   2.6741673  46.1066493  51.5858553   3.4461673  46.1216493
  49.0718553   2.7951673  45.5506493  48.7738553   2.4801673  46.3076493
  49.7668553   3.2681673  45.7856493  49.1308553   2.8181673  45.6976493
  49.2938553   6.9131673  53.5776493  49.9808553   6.7991673  54.1026493
  49.4278553   7.7041673  53.2336493  49.4148553   7.0131673  53.6046493
  41.3988553   9.9711673  55.2286493  40.7448553   9.4021673  55.3266493
  41.0238553  10.7441673  55.3796493  41.2468553  10.0011673  55.2656493
  53.0008553   9.7511673  48.0806493  52.5498553  10.3941673  48.4596493
  53.7088553   9.6721673  48.5856493  53.0388553   9.8341673  48.2116493
  49.7018553   4.8411673  51.0106493  49.0078553   5.2431673  51.3536493
  50.3788553   5.2741673  51.3496493  49.6988553   4.9641673  51.1116493
  55.0788553   7.4341673  57.5906493  55.8548553   7.0441673  57.6736493
  54.6098553   7.0981673  58.2456493  55.1238553   7.3271673  57.6996493
  50.0238553   6.4321673  44.1796493  49.8188553   7.2651673  44.0206493
  49.2488553   6.0501673  44.3016493  49.8788553   6.4991673  44.1746493
  45.3858553   6.6941673  40.5886493  45.8268553   6.7741673  41.3366493
  44.5808553   6.4781673  40.8466493  45.3318553   6.6741673  40.7376493
  54.2938553   8.4651673  44.1626493  54.1198553   7.8111673  44.7126493
  55.0068553   8.1941673  43.7396493  54.3738553   8.3281673  44.1816493
  42.7148553   5.7641673  41.1896493  42.4708553   5.4571673  41.9696493
  42.6818553   5.0611673  40.6736493  42.6738553   5.6151673  41.2286493
  45.5338553   4.0091673  39.9326493  44.7158553   3.7411673  40.0726493
  45.5058553   4.8611673  40.1176493  45.4088553   4.0961673  39.9806493
  51.9688553   5.9181673  51.8536493  52.1748553   6.2191673  52.6456493
  51.9078553   6.6401673  51.3686493  51.9898553   6.0691673  51.8986493
  51.5028553  10.1321673  56.0996493  50.7498553  10.1141673  55.6586493
  51.6708553  10.9841673  56.1836493  51.4168553  10.2551673  56.0466493
  56.7808553   4.5571673  51.3116493  56.7488553   3.6951673  51.1766493
  56.0878553   4.8591673  50.8776493  56.6738553   4.4741673  51.2276493
  45.1748553   9.7551673  55.5176493  45.2158553   9.8811673  56.3806493
  45.8258553   9.1951673  55.3616493  45.2768553   9.6911673  55.6226493
  54.8858553   7.8171673  50.1086493  55.4128553   7.7341673  49.4176493
  54.4948553   7.0391673  50.1626493  54.9058553   7.6901673  50.0146493
  42.7678553   8.1381673  56.8776493  43.3628553   8.5691673  57.3496493
  42.4038553   8.7621673  56.3886493  42.8018553   8.2941673  56.8746493
  40.6948553   6.1271673  53.8066493  40.1208553   6.5431673  54.3156493
  41.4278553   6.5921673  53.9016493  40.7188553   6.2571673  53.8956493
  42.4808553   9.3941673  42.5816493  42.3358553   9.5501673  41.7356493
  43.3468553   9.4731673  42.6596493  42.5878553   9.4291673  42.4686493
  46.6478553   1.7911673  42.3096493  46.7478553   1.9301673  41.4546493
  47.4658553   1.7311673  42.6056493  46.7828553   1.8021673  42.2266493
  55.8078553   9.8551673  39.7896493  56.4448553   9.7211673  40.3706493
  55.4668553   9.0611673  39.6726493  55.8518553   9.7181673  39.8576493
  56.0028553   2.2731673  56.5226493  56.6368553   2.1031673  57.0966493
  56.4198553   2.6761673  55.8706493  56.1578553   2.3081673  56.5116493
  51.8828553   6.1201673  42.1116493  51.6318553   5.9921673  42.9376493
  51.5658553   5.4251673  41.6906493  51.7988553   5.9991673  42.1716493
  53.4138553   2.3841673  57.8776493  54.2848553   2.3481673  57.8416493
  53.1948553   2.8041673  57.1456493  53.5108553   2.4401673  57.7646493
  43.1678553   8.2091673  49.0586493  43.0888553   7.3991673  48.7426493
  42.7238553   8.6961673  48.4866493  43.0908553   8.1611673  48.9276493
  48.7688553   4.3281673  41.5416493  49.4858553   3.9811673  41.1856493
  48.7348553   5.1281673  41.1936493  48.8698553   4.3951673  41.4376493
  40.7398553  10.4531673  52.6396493  41.2328553  10.3971673  53.3576493
  40.9278553   9.7201673  52.2046493  40.8408553  10.3361673  52.6816493
  39.8558553   4.0251673  25.9074083  39.4148553   4.1431673  26.6504083
  39.5728553   3.2501673  25.6224083  39.7488553   3.9281673  25.9754083
  56.1308553   7.3261673  23.4224083  56.8318553   6.8071673  23.4184083
  55.5438553   6.8811673  22.9534083  56.1478553   7.1831673  23.3524083
  42.7378553   3.0801673  21.0864083  42.3458553   2.7091673  20.4004083
  42.6578553   2.4821673  21.7154083  42.6678553   2.9371673  21.0774083
  42.3648553   4.7211673  24.9864083  42.9728553   4.5511673  25.5894083
  41.6138553   4.5811673  25.4074083  42.3438553   4.6751673  25.1374083
  41.2558553   7.8121673  21.0634083  41.7228553   7.8961673  20.3314083
  41.7108553   7.2341673  21.5324083  41.3918553   7.7391673  21.0244083
  39.7958553   6.7601673  32.1624083  39.9248553   6.4801673  32.9784083
  39.1858553   6.2191673  31.8534083  39.7248553   6.6391673  32.2374083
  46.3698553   4.2851673  37.2294083  46.1338553   4.2821673  38.0694083
  45.6218553   4.1371673  36.8054083  46.2238553   4.2621673  37.2904083
  46.3518553   7.4771673  34.4924083  46.4898553   8.2371673  34.0854083
  47.1428553   7.1121673  34.5194083  46.4888553   7.5361673  34.4364083
  47.4468553   5.3621673  28.9974083  47.7948553   4.5631673  29.0274083
  48.1118553   5.8661673  28.7424083  47.5968553   5.3181673  28.9644083
  47.5038553   4.8111673  25.2084083  47.8348553   4.1671673  25.6944083
  47.7438553   4.6001673  24.3974083  47.5878553   4.6851673  25.1604083
  39.6078553   8.7521673  27.2774083  39.0158553   9.3101673  26.9644083
  40.0338553   8.4831673  26.5654083  39.5838553   8.7941673  27.1264083
  45.4478553   6.5961673  24.7574083  44.8688553   6.3211673  25.3494083
  46.0718553   5.9871673  24.7824083  45.4548553   6.4661673  24.8484083
  51.5908553   8.8841673  22.2794083  52.3178553   9.3561673  22.3814083
  51.8198553   8.0901673  22.5594083  51.7328553   8.8371673  22.3364083
  49.7588553   9.2761673  24.2694083  49.9728553   9.8031673  24.9314083
  50.5258553   9.1021673  23.8904083  49.9038553   9.3281673  24.3114083
  41.1528553   7.4221673  25.2084083  41.8088553   6.8471673  25.2234083
  41.5418553   8.1711673  24.9874083  41.3078553   7.4471673  25.1784083
  52.1978553   9.2861673  32.5744083  52.9418553   9.7421673  32.5644083
  52.0768553   9.0721673  31.7374083  52.2898553   9.3221673  32.4494083
  41.9708553   5.9091673  28.7084083  42.3938553   5.5531673  28.0344083
  42.2948553   5.4871673  29.4004083  42.0808553   5.7941673  28.7114083
  45.2018553   8.7611673  28.0044083  46.0458553   8.8651673  27.8094083
  44.9048553   9.5791673  28.0724083  45.2828553   8.8971673  27.9854083
  53.7718553  10.4711673  22.6794083  54.4368553  10.3231673  22.1344083
  54.1318553  10.3881673  23.4694083  53.9238553  10.4371673  22.7154083
  44.1998553   9.9801673  33.7444083  44.4918553   9.9131673  34.5644083
  43.5738553   9.3751673  33.6994083  44.1508553   9.8811673  33.8594083
  51.4518553   6.4711673  36.2784083  51.4178553   6.8531673  37.0624083
  52.3058553   6.4291673  36.1074083  51.5728553   6.5211673  36.3694083
  48.5898553   6.6681673  21.0284083  48.4088553   7.2131673  21.6854083
  49.3558553   6.9581673  20.7274083  48.6758553   6.7921673  21.0814083
  42.1928553   8.1421673  32.8664083  41.4948553   7.6341673  32.9924083
  42.4528553   7.9371673  32.0584083  42.1278553   8.0371673  32.7654083
  49.9038553   9.6351673  33.7764083  50.6718553   9.5551673  33.3704083
  49.3208553   9.5141673  33.1384083  49.9308553   9.6051673  33.6224083
  56.1808553  10.2381673  26.6774083  55.7258553  10.9551673  26.8784083
  55.5668553   9.6671673  26.4354083  56.0228553  10.2601673  26.6714083
  53.1778553   6.0831673  26.2214083  53.8788553   5.6011673  26.4104083
  52.5178553   5.5141673  26.2664083  53.1838553   5.9281673  26.2554083
  43.5538553   6.9931673  35.4334083  44.3948553   7.0561673  35.2114083
  43.5168553   7.3901673  36.2094083  43.6728553   7.0611673  35.5154083
  45.5168553   2.5041673  30.1824083  45.6888553   2.2941673  31.0114083
  44.8618553   1.9701673  29.9664083  45.4458553   2.3941673  30.2734083
  46.2668553   2.4421673  32.7724083  46.3198553   3.2891673  32.9744083
  45.9818553   2.0721673  33.5094083  46.2328553   2.5121673  32.9104083
  52.4438553   3.1371673  31.9024083  51.9298553   2.7251673  32.4734083
  52.3178553   3.9811673  32.0834083  52.3498553   3.2011673  32.0134083
  39.0878553   6.8131673  38.9834083  39.8438553   7.1621673  39.2414083
  39.2648553   5.9601673  38.9264083  39.2258553   6.7381673  39.0134083
  55.6968553   3.5761673  22.0294083  55.8158553   3.2891673  22.8444083
  56.5038553   3.5971673  21.6994083  55.8328553   3.5371673  22.1014083
  42.8328553   3.3081673  27.3604083  43.6838553   3.2281673  27.1874083
  42.4758553   2.6261673  26.9484083  42.9058553   3.1951673  27.2734083
  41.5998553  10.0331673  28.5974083  40.9268553   9.5351673  28.3524083
  42.0028553  10.2181673  27.8464083  41.5598553   9.9871673  28.4504083
  57.9308553   8.0851673  36.2834083  57.2488553   8.3951673  35.8364083
  57.5618553   7.6271673  36.9284083  57.7748553   8.0631673  36.3124083
  45.2008553   3.3151673  25.5954083  45.9138553   3.8101673  25.6854083
  45.4228553   2.7481673  24.9694083  45.3388553   3.3041673  25.5164083
  39.3568553   4.9581673  28.9154083  38.6898553   5.4461673  29.1914083
  40.0368553   5.5031673  28.9444083  39.3588553   5.1101673  28.9604083
  49.7238553   7.0181673  27.9224083  49.2008553   7.6521673  27.6294083
  50.0338553   6.6541673  27.1934083  49.6918553   7.0581673  27.7714083
  39.5948553   5.8061673  23.5934083  40.1468553   6.3751673  23.9574083
  39.3628553   5.2911673  24.2584083  39.6418553   5.8141673  23.7454083
  43.7988553   4.8061673  30.6824083  44.2658553   5.0951673  31.3604083
  44.3708553   4.3281673  30.2284083  43.9528553   4.7781673  30.7154083
  39.4248553   4.2551673  21.2214083  40.1808553   3.8231673  21.2794083
  39.4398553   4.7871673  21.9124083  39.5388553   4.2701673  21.3324083
  40.3648553   2.4761673  29.2264083  40.7958553   2.3471673  28.4794083
  40.1598553   3.3241673  29.2004083  40.3978553   2.5821673  29.1124083
  55.7648553   8.4671673  34.3734083  55.0938553   8.9811673  34.5914083
  55.8278553   8.5671673  33.5094083  55.6748553   8.5581673  34.2784083
  44.4488553   5.9921673  27.5084083  44.5748553   6.8351673  27.6954083
  45.1168553   5.5931673  27.9044083  44.5668553   6.0581673  27.5944083
  47.7608553   9.2161673  31.9694083  47.4838553   8.5751673  31.4464083
  47.5528553   9.9421673  31.5314083  47.6898553   9.2291673  31.8274083
  53.0628553   3.9991673  36.3944083  53.5468553   4.7171673  36.4924083
  53.4568553   3.5721673  35.7434083  53.1928553   4.0421673  36.3124083
  47.3588553   6.8441673  37.5714083  47.7128553   6.6661673  38.3484083
  46.9228553   6.1151673  37.3724083  47.3468553   6.7101673  37.6574083
  55.4918553   4.6301673  26.4644083  55.8478553   4.2801673  27.1794083
  55.4838553   3.9691673  25.8944083  55.5438553   4.4801673  26.4854083
  51.5368553   7.6961673  30.3084083  50.9338553   7.4001673  29.7514083
  52.0818553   8.1481673  29.7994083  51.5278553   7.7191673  30.1504083
  51.5498553   4.5471673  29.7084083  50.7528553   4.7711673  29.9824083
  51.8078553   3.9531673  30.2934083  51.4698553   4.4921673  29.8354083
  45.4418553   9.3591673  24.1564083  45.2948553   8.5831673  24.5274083
  46.1308553   9.2121673  23.6414083  45.5218553   9.2221673  24.1354083
  47.7338553   8.8751673  22.5584083  48.3558553   9.0381673  23.1484083
  47.7698553   9.5661673  22.0264083  47.8308553   9.0011673  22.5674083
  54.8098553   2.5451673  34.5544083  54.8648553   2.6701673  33.6924083
  55.5628553   2.8651673  34.8564083  54.9288553   2.6101673  34.4714083
  51.0008553   7.8941673  38.8314083  51.1648553   8.1771673  39.6404083
  51.2638553   8.5551673  38.3264083  51.0638553   8.0341673  38.8764083
  50.5408553   2.3511673  34.1544083  50.3858553   2.9611673  34.7584083
  51.0748553   1.7931673  34.5604083  50.5968553   2.3591673  34.3034083
  54.1508553   5.0801673  30.6814083  53.6718553   5.3781673  30.0154083
  53.7948553   4.3041673  30.8594083  54.0278553   5.0091673  30.6094083
  48.1478553   2.7981673  29.2434083  47.3008553   2.6041673  29.3244083
  48.4718553   2.6331673  30.0364083  48.0698553   2.7451673  29.3724083
  44.8998553   9.5281673  20.1294083  45.3388553   8.8311673  20.4174083
  45.1068553  10.1521673  20.7024083  44.9958553   9.5171673  20.2564083
  41.9958553   2.4911673  31.5594083  42.7178553   2.9791673  31.5224083
  41.7258553   2.4611673  30.7304083  42.0628553   2.5591673  31.4314083
  57.8428553   9.2461673  22.6214083  58.5368553   8.7791673  22.3734083
  57.3038553   8.6481673  22.9584083  57.8658553   9.0881673  22.6344083
  41.3908553   3.5431673  35.8374083  40.9698553   3.0251673  35.2764083
  41.0388553   4.3291673  35.6944083  41.2768553   3.5831673  35.7334083
  56.3378553   2.0931673  29.2374083  56.0518553   2.4941673  29.9574083
  57.1978553   2.0311673  29.3644083  56.4228553   2.1431673  29.3624083
  57.4688553   7.7261673  29.7664083  57.7588553   7.9831673  28.9854083
  58.1638553   7.8221673  30.2854083  57.6148553   7.7781673  29.7274083
  54.0738553   6.3291673  21.7484083  54.4078553   5.5231673  21.7834083
  53.3188553   6.2571673  22.1784083  54.0118553   6.1991673  21.8174083
  56.9958553   4.1231673  35.1594083  57.6238553   3.5741673  34.9034083
  56.9348553   4.6881673  34.4974083  57.0798553   4.1261673  35.0234083
  51.4478553   4.2041673  21.1514083  52.1318553   3.6901673  20.9824083
  51.0308553   4.2501673  20.3864083  51.4868553   4.1351673  21.0134083
  46.1298553   5.3541673  32.4554083  45.8318553   5.9461673  33.0224083
  46.1848553   5.7961673  31.7064083  46.0938553   5.5071673  32.4284083
  44.1088553   4.3041673  35.8534083  43.3028553   4.0141673  36.0204083
  44.0198553   5.1721673  35.8594083  43.9768553   4.3891673  35.8784083
  48.6458553   1.7771673  31.9464083  49.1218553   2.1511673  32.5744083
  47.8228553   1.9111673  32.2054083  48.5948553   1.8521673  32.0774083
  47.9098553   9.1701673  27.1744083  48.4558553   9.8491673  27.2284083
  47.5598553   9.2521673  26.3794083  47.9388553   9.2831673  27.0644083
  46.0928553   7.3981673  30.5634083  45.4688553   7.9801673  30.3814083
  46.3408553   7.1121673  29.7774083  46.0368553   7.4421673  30.4204083
  50.4018553   4.0321673  37.5524083  51.1588553   4.3181673  37.2264083
  49.8548553   4.0841673  36.8744083  50.4328553   4.0821673  37.4034083
  54.3108553   6.5821673  36.0564083  54.6568553   6.8521673  36.8104083
  54.6048553   7.1641673  35.4764083  54.4058553   6.7081673  36.0824083
  47.6868553   2.1741673  20.4784083  46.8818553   1.9971673  20.1934083
  47.6538553   3.0251673  20.6704083  47.5628553   2.2731673  20.4654083
  48.7458553   9.0471673  36.4434083  49.2238553   8.4471673  36.0274083
  48.3948553   8.6041673  37.1084083  48.7648553   8.8931673  36.4804083
  55.3338553   2.3541673  24.6244083  55.8098553   1.6251673  24.5764083
  54.5128553   2.0681673  24.5484083  55.2828553   2.2041673  24.6054083
  48.8048553   4.2661673  35.4634083  48.0098553   4.2021673  35.8144083
  48.8758553   5.1131673  35.2684083  48.6978553   4.3811673  35.4864083
  44.6348553  10.4731673  30.7804083  44.6458553  10.5321673  31.6504083
  44.2098553   9.7261673  30.6304083  44.5738553  10.3711673  30.8864083
  51.5498553   3.5211673  26.9794083  51.6258553   3.8621673  27.7784083
  51.7188553   2.6741673  27.1004083  51.5858553   3.4461673  27.1154083
  49.0718553   2.7951673  26.5444083  48.7738553   2.4801673  27.3014083
  49.7668553   3.2681673  26.7794083  49.1308553   2.8181673  26.6914083
  49.2938553   6.9131673  34.5714083  49.9808553   6.7991673  35.0964083
  49.4278553   7.7041673  34.2274083  49.4148553   7.0131673  34.5984083
  41.3988553   9.9711673  36.2224083  40.7448553   9.4021673  36.3204083
  41.0238553  10.7441673  36.3734083  41.2468553  10.0011673  36.2594083
  53.0008553   9.7511673  29.0744083  52.5498553  10.3941673  29.4534083
  53.7088553   9.6721673  29.5794083  53.0388553   9.8341673  29.2054083
  49.7018553   4.8411673  32.0044083  49.0078553   5.2431673  32.3474083
  50.3788553   5.2741673  32.3434083  49.6988553   4.9641673  32.1054083
  55.0788553   7.4341673  38.5844083  55.8548553   7.0441673  38.6674083
  54.6098553   7.0981673  39.2394083  55.1238553   7.3271673  38.6934083
  50.0238553   6.4321673  25.1734083  49.8188553   7.2651673  25.0144083
  49.2488553   6.0501673  25.2954083  49.8788553   6.4991673  25.1684083
  45.3858553   6.6941673  21.5824083  45.8268553   6.7741673  22.3304083
  44.5808553   6.4781673  21.8404083  45.3318553   6.6741673  21.7314083
  54.2938553   8.4651673  25.1564083  54.1198553   7.8111673  25.7064083
  55.0068553   8.1941673  24.7334083  54.3738553   8.3281673  25.1754083
  42.7148553   5.7641673  22.1834083  42.4708553   5.4571673  22.9634083
  42.6818553   5.0611673  21.6674083  42.6738553   5.6151673  22.2224083
  45.5338553   4.0091673  20.9264083  44.7158553   3.7411673  21.0664083
  45.5058553   4.8611673  21.1114083  45.4088553   4.0961673  20.9744083
  51.9688553   5.9181673  32.8474083  52.1748553   6.2191673  33.6394083
  51.9078553   6.6401673  32.3624083  51.9898553   6.0691673  32.8924083
  51.5028553  10.1321673  37.0934083  50.7498553  10.1141673  36.6524083
  51.6708553  10.9841673  37.1774083  51.4168553  10.2551673  37.0404083
  56.7808553   4.5571673  32.3054083  56.7488553   3.6951673  32.1704083
  56.0878553   4.8591673  31.8714083  56.6738553   4.4741673  32.2214083
  45.1748553   9.7551673  36.5114083  45.2158553   9.8811673  37.3744083
  45.8258553   9.1951673  36.3554083  45.2768553   9.6911673  36.6164083
  54.8858553   7.8171673  31.1024083  55.4128553   7.7341673  30.4114083
  54.4948553   7.0391673  31.1564083  54.9058553   7.6901673  31.0084083
  42.7678553   8.1381673  37.8714083  43.3628553   8.5691673  38.3434083
  42.4038553   8.7621673  37.3824083  42.8018553   8.2941673  37.8684083
  40.6948553   6.1271673  34.8004083  40.1208553   6.5431673  35.3094083
  41.4278553   6.5921673  34.8954083  40.7188553   6.2571673  34.8894083
  42.4808553   9.3941673  23.5754083  42.3358553   9.5501673  22.7294083
  43.3468553   9.4731673  23.6534083  42.5878553   9.4291673  23.4624083
  46.6478553   1.7911673  23.3034083  46.7478553   1.9301673  22.4484083
  47.4658553   1.7311673  23.5994083  46.7828553   1.8021673  23.2204083
  55.8078553   9.8551673  20.7834083  56.4448553   9.7211673  21.3644083
  55.4668553   9.0611673  20.6664083  55.8518553   9.7181673  20.8514083
  56.0028553   2.2731673  37.5164083  56.6368553   2.1031673  38.0904083
  56.4198553   2.6761673  36.8644083  56.1578553   2.3081673  37.5054083
  51.8828553   6.1201673  23.1054083  51.6318553   5.9921673  23.9314083
  51.5658553   5.4251673  22.6844083  51.7988553   5.9991673  23.1654083
  53.4138553   2.3841673  38.8714083  54.2848553   2.3481673  38.8354083
  53.1948553   2.8041673  38.1394083  53.5108553   2.4401673  38.7584083
  43.1678553   8.2091673  30.0524083  43.0888553   7.3991673  29.7364083
  42.7238553   8.6961673  29.4804083  43.0908553   8.1611673  29.9214083
  48.7688553   4.3281673  22.5354083  49.4858553   3.9811673  22.1794083
  48.7348553   5.1281673  22.1874083  48.8698553   4.3951673  22.4314083
  40.7398553  10.4531673  33.6334083  41.2328553  10.3971673  34.3514083
  40.9278553   9.7201673  33.1984083  40.8408553  10.3361673  33.6754083
  39.8558553   4.0251673   6.9011673  39.4148553   4.1431673   7.6441673
  39.5728553   3.2501673   6.6161673  39.7488553   3.9281673   6.9691673
  56.1308553   7.3261673   4.4161673  56.8318553   6.8071673   4.4121673
  55.5438553   6.8811673   3.9471673  56.1478553   7.1831673   4.3461673
  42.7378553   3.0801673   2.0801673  42.3458553   2.7091673   1.3941673
  42.6578553   2.4821673   2.7091673  42.6678553   2.9371673   2.0711673
  42.3648553   4.7211673   5.9801673  42.9728553   4.5511673   6.5831673
  41.6138553   4.5811673   6.4011673  42.3438553   4.6751673   6.1311673
  41.2558553   7.8121673   2.0571673  41.7228553   7.8961673   1.3251673
  41.7108553   7.2341673   2.5261673  41.3918553   7.7391673   2.0181673
  39.7958553   6.7601673  13.1561673  39.9248553   6.4801673  13.9721673
  39.1858553   6.2191673  12.8471673  39.7248553   6.6391673  13.2311673
  46.3698553   4.2851673  18.2231673  46.1338553   4.2821673  19.0631673
  45.6218553   4.1371673  17.7991673  46.2238553   4.2621673  18.2841673
  46.3518553   7.4771673  15.4861673  46.4898553   8.2371673  15.0791673
  47.1428553   7.1121673  15.5131673  46.4888553   7.5361673  15.4301673
  47.4468553   5.3621673   9.9911673  47.7948553   4.5631673  10.0211673
  48.1118553   5.8661673   9.7361673  47.5968553   5.3181673   9.9581673
  47.5038553   4.8111673   6.2021673  47.8348553   4.1671673   6.6881673
  47.7438553   4.6001673   5.3911673  47.5878553   4.6851673   6.1541673
  39.6078553   8.7521673   8.2711673  39.0158553   9.3101673   7.9581673
  40.0338553   8.4831673   7.5591673  39.5838553   8.7941673   8.1201673
  45.4478553   6.5961673   5.7511673  44.8688553   6.3211673   6.3431673
  46.0718553   5.9871673   5.7761673  45.4548553   6.4661673   5.8421673
  51.5908553   8.8841673   3.2731673  52.3178553   9.3561673   3.3751673
  51.8198553   8.0901673   3.5531673  51.7328553   8.8371673   3.3301673
  49.7588553   9.2761673   5.2631673  49.9728553   9.8031673   5.9251673
  50.5258553   9.1021673   4.8841673  49.9038553   9.3281673   5.3051673
  41.1528553   7.4221673   6.2021673  41.8088553   6.8471673   6.2171673
  41.5418553   8.1711673   5.9811673  41.3078553   7.4471673   6.1721673
  52.1978553   9.2861673  13.5681673  52.9418553   9.7421673  13.5581673
  52.0768553   9.0721673  12.7311673  52.2898553   9.3221673  13.4431673
  41.9708553   5.9091673   9.7021673  42.3938553   5.5531673   9.0281673
  42.2948553   5.4871673  10.3941673  42.0808553   5.7941673   9.7051673
  45.2018553   8.7611673   8.9981673  46.0458553   8.8651673   8.8031673
  44.9048553   9.5791673   9.0661673  45.2828553   8.8971673   8.9791673
  53.7718553  10.4711673   3.6731673  54.4368553  10.3231673   3.1281673
  54.1318553  10.3881673   4.4631673  53.9238553  10.4371673   3.7091673
  44.1998553   9.9801673  14.7381673  44.4918553   9.9131673  15.5581673
  43.5738553   9.3751673  14.6931673  44.1508553   9.8811673  14.8531673
  51.4518553   6.4711673  17.2721673  51.4178553   6.8531673  18.0561673
  52.3058553   6.4291673  17.1011673  51.5728553   6.5211673  17.3631673
  48.5898553   6.6681673   2.0221673  48.4088553   7.2131673   2.6791673
  49.3558553   6.9581673   1.7211673  48.6758553   6.7921673   2.0751673
  42.1928553   8.1421673  13.8601673  41.4948553   7.6341673  13.9861673
  42.4528553   7.9371673  13.0521673  42.1278553   8.0371673  13.7591673
  49.9038553   9.6351673  14.7701673  50.6718553   9.5551673  14.3641673
  49.3208553   9.5141673  14.1321673  49.9308553   9.6051673  14.6161673
  56.1808553  10.2381673   7.6711673  55.7258553  10.9551673   7.8721673
  55.5668553   9.6671673   7.4291673  56.0228553  10.2601673   7.6651673
  53.1778553   6.0831673   7.2151673  53.8788553   5.6011673   7.4041673
  52.5178553   5.5141673   7.2601673  53.1838553   5.9281673   7.2491673
  43.5538553   6.9931673  16.4271673  44.3948553   7.0561673  16.2051673
  43.5168553   7.3901673  17.2031673  43.6728553   7.0611673  16.5091673
  45.5168553   2.5041673  11.1761673  45.6888553   2.2941673  12.0051673
  44.8618553   1.9701673  10.9601673  45.4458553   2.3941673  11.2671673
  46.2668553   2.4421673  13.7661673  46.3198553   3.2891673  13.9681673
  45.9818553   2.0721673  14.5031673  46.2328553   2.5121673  13.9041673
  52.4438553   3.1371673  12.8961673  51.9298553   2.7251673  13.4671673
  52.3178553   3.9811673  13.0771673  52.3498553   3.2011673  13.0071673
  39.0878553   6.8131673  19.9771673  39.8438553   7.1621673  20.2351673
  39.2648553   5.9601673  19.9201673  39.2258553   6.7381673  20.0071673
  55.6968553   3.5761673   3.0231673  55.8158553   3.2891673   3.8381673
  56.5038553   3.5971673   2.6931673  55.8328553   3.5371673   3.0951673
  42.8328553   3.3081673   8.3541673  43.6838553   3.2281673   8.1811673
  42.4758553   2.6261673   7.9421673  42.9058553   3.1951673   8.2671673
  41.5998553  10.0331673   9.5911673  40.9268553   9.5351673   9.3461673
  42.0028553  10.2181673   8.8401673  41.5598553   9.9871673   9.4441673
  57.9308553   8.0851673  17.2771673  57.2488553   8.3951673  16.8301673
  57.5618553   7.6271673  17.9221673  57.7748553   8.0631673  17.3061673
  45.2008553   3.3151673   6.5891673  45.9138553   3.8101673   6.6791673
  45.4228553   2.7481673   5.9631673  45.3388553   3.3041673   6.5101673
  39.3568553   4.9581673   9.9091673  38.6898553   5.4461673  10.1851673
  40.0368553   5.5031673   9.9381673  39.3588553   5.1101673   9.9541673
  49.7238553   7.0181673   8.9161673  49.2008553   7.6521673   8.6231673
  50.0338553   6.6541673   8.1871673  49.6918553   7.0581673   8.7651673
  39.5948553   5.8061673   4.5871673  40.1468553   6.3751673   4.9511673
  39.3628553   5.2911673   5.2521673  39.6418553   5.8141673   4.7391673
  43.7988553   4.8061673  11.6761673  44.2658553   5.0951673  12.3541673
  44.3708553   4.3281673  11.2221673  43.9528553   4.7781673  11.7091673
  39.4248553   4.2551673   2.2151673  40.1808553   3.8231673   2.2731673
  39.4398553   4.7871673   2.9061673  39.5388553   4.2701673   2.3261673
  40.3648553   2.4761673  10.2201673  40.7958553   2.3471673   9.4731673
  40.1598553   3.3241673  10.1941673  40.3978553   2.5821673  10.1061673
  55.7648553   8.4671673  15.3671673  55.0938553   8.9811673  15.5851673
  55.8278553   8.5671673  14.5031673  55.6748553   8.5581673  15.2721673
  44.4488553   5.9921673   8.5021673  44.5748553   6.8351673   8.6891673
  45.1168553   5.5931673   8.8981673  44.5668553   6.0581673   8.5881673
  47.7608553   9.2161673  12.9631673  47.4838553   8.5751673  12.4401673
  47.5528553   9.9421673  12.5251673  47.6898553   9.2291673  12.8211673
  53.0628553   3.9991673  17.3881673  53.5468553   4.7171673  17.4861673
  53.4568553   3.5721673  16.7371673  53.1928553   4.0421673  17.3061673
  47.3588553   6.8441673  18.5651673  47.7128553   6.6661673  19.3421673
  46.9228553   6.1151673  18.3661673  47.3468553   6.7101673  18.6511673
  55.4918553   4.6301673   7.4581673  55.8478553   4.2801673   8.1731673
  55.4838553   3.9691673   6.8881673  55.5438553   4.4801673   7.4791673
  51.5368553   7.6961673  11.3021673  50.9338553   7.4001673  10.7451673
  52.0818553   8.1481673  10.7931673  51.5278553   7.7191673  11.1441673
  51.5498553   4.5471673  10.7021673  50.7528553   4.7711673  10.9761673
  51.8078553   3.9531673  11.2871673  51.4698553   4.4921673  10.8291673
  45.4418553   9.3591673   5.1501673  45.2948553   8.5831673   5.5211673
  46.1308553   9.2121673   4.6351673  45.5218553   9.2221673   5.1291673
  47.7338553   8.8751673   3.5521673  48.3558553   9.0381673   4.1421673
  47.7698553   9.5661673   3.0201673  47.8308553   9.0011673   3.5611673
  54.8098553   2.5451673  15.5481673  54.8648553   2.6701673  14.6861673
  55.5628553   2.8651673  15.8501673  54.9288553   2.6101673  15.4651673
  51.0008553   7.8941673  19.8251673  51.1648553   8.1771673  20.6341673
  51.2638553   8.5551673  19.3201673  51.0638553   8.0341673  19.8701673
  50.5408553   2.3511673  15.1481673  50.3858553   2.9611673  15.7521673
  51.0748553   1.7931673  15.5541673  50.5968553   2.3591673  15.2971673
  54.1508553   5.0801673  11.6751673  53.6718553   5.3781673  11.0091673
  53.7948553   4.3041673  11.8531673  54.0278553   5.0091673  11.6031673
  48.1478553   2.7981673  10.2371673  47.3008553   2.6041673  10.3181673
  48.4718553   2.6331673  11.0301673  48.0698553   2.7451673  10.3661673
  41.9958553   2.4911673  12.5531673  42.7178553   2.9791673  12.5161673
  41.7258553   2.4611673  11.7241673  42.0628553   2.5591673  12.4251673
  57.8428553   9.2461673   3.6151673  58.5368553   8.7791673   3.3671673
  57.3038553   8.6481673   3.9521673  57.8658553   9.0881673   3.6281673
  41.3908553   3.5431673  16.8311673  40.9698553   3.0251673  16.2701673
  41.0388553   4.3291673  16.6881673  41.2768553   3.5831673  16.7271673
  56.3378553   2.0931673  10.2311673  56.0518553   2.4941673  10.9511673
  57.1978553   2.0311673  10.3581673  56.4228553   2.1431673  10.3561673
  57.4688553   7.7261673  10.7601673  57.7588553   7.9831673   9.9791673
  58.1638553   7.8221673  11.2791673  57.6148553   7.7781673  10.7211673
  54.0738553   6.3291673   2.7421673  54.4078553   5.5231673   2.7771673
  53.3188553   6.2571673   3.1721673  54.0118553   6.1991673   2.8111673
  56.9958553   4.1231673  16.1531673  57.6238553   3.5741673  15.8971673
  56.9348553   4.6881673  15.4911673  57.0798553   4.1261673  16.0171673
  51.4478553   4.2041673   2.1451673  52.1318553   3.6901673   1.9761673
  51.0308553   4.2501673   1.3801673  51.4868553   4.1351673   2.0071673
  46.1298553   5.3541673  13.4491673  45.8318553   5.9461673  14.0161673
  46.1848553   5.7961673  12.7001673  46.0938553   5.5071673  13.4221673
  44.1088553   4.3041673  16.8471673  43.3028553   4.0141673  17.0141673
  44.0198553   5.1721673  16.8531673  43.9768553   4.3891673  16.8721673
  48.6458553   1.7771673  12.9401673  49.1218553   2.1511673  13.5681673
  47.8228553   1.9111673  13.1991673  48.5948553   1.8521673  13.0711673
  47.9098553   9.1701673   8.1681673  48.4558553   9.8491673   8.2221673
  47.5598553   9.2521673   7.3731673  47.9388553   9.2831673   8.0581673
  46.0928553   7.3981673  11.5571673  45.4688553   7.9801673  11.3751673
  46.3408553   7.1121673  10.7711673  46.0368553   7.4421673  11.4141673
  50.4018553   4.0321673  18.5461673  51.1588553   4.3181673  18.2201673
  49.8548553   4.0841673  17.8681673  50.4328553   4.0821673  18.3971673
  54.3108553   6.5821673  17.0501673  54.6568553   6.8521673  17.8041673
  54.6048553   7.1641673  16.4701673  54.4058553   6.7081673  17.0761673
  48.7458553   9.0471673  17.4371673  49.2238553   8.4471673  17.0211673
  48.3948553   8.6041673  18.1021673  48.7648553   8.8931673  17.4741673
  55.3338553   2.3541673   5.6181673  55.8098553   1.6251673   5.5701673
  54.5128553   2.0681673   5.5421673  55.2828553   2.2041673   5.5991673
  48.8048553   4.2661673  16.4571673  48.0098553   4.2021673  16.8081673
  48.8758553   5.1131673  16.2621673  48.6978553   4.3811673  16.4801673
  44.6348553  10.4731673  11.7741673  44.6458553  10.5321673  12.6441673
  44.2098553   9.7261673  11.6241673  44.5738553  10.3711673  11.8801673
  51.5498553   3.5211673   7.9731673  51.6258553   3.8621673   8.7721673
  51.7188553   2.6741673   8.0941673  51.5858553   3.4461673   8.1091673
  49.0718553   2.7951673   7.5381673  48.7738553   2.4801673   8.2951673
  49.7668553   3.2681673   7.7731673  49.1308553   2.8181673   7.6851673
  49.2938553   6.9131673  15.5651673  49.9808553   6.7991673  16.0901673
  49.4278553   7.7041673  15.2211673  49.4148553   7.0131673  15.5921673
  41.3988553   9.9711673  17.2161673  40.7448553   9.4021673  17.3141673
  41.0238553  10.7441673  17.3671673  41.2468553  10.0011673  17.2531673
  53.0008553   9.7511673  10.0681673  52.5498553  10.3941673  10.4471673
  53.7088553   9.6721673  10.5731673  53.0388553   9.8341673  10.1991673
  49.7018553   4.8411673  12.9981673  49.0078553   5.2431673  13.3411673
  50.3788553   5.2741673  13.3371673  49.6988553   4.9641673  13.0991673
  55.0788553   7.4341673  19.5781673  55.8548553   7.0441673  19.6611673
  54.6098553   7.0981673  20.2331673  55.1238553   7.3271673  19.6871673
  50.0238553   6.4321673   6.1671673  49.8188553   7.2651673   6.0081673
  49.2488553   6.0501673   6.2891673  49.8788553   6.4991673   6.1621673
  45.3858553   6.6941673   2.5761673  45.8268553   6.7741673   3.3241673
  44.5808553   6.4781673   2.8341673  45.3318553   6.6741673   2.7251673
  54.2938553   8.4651673   6.1501673  54.1198553   7.8111673   6.7001673
  55.0068553   8.1941673   5.7271673  54.3738553   8.3281673   6.1691673
  42.7148553   5.7641673   3.1771673  42.4708553   5.4571673   3.9571673
  42.6818553   5.0611673   2.6611673  42.6738553   5.6151673   3.2161673
  45.5338553   4.0091673   1.9201673  44.7158553   3.7411673   2.0601673
  45.5058553   4.8611673   2.1051673  45.4088553   4.0961673   1.9681673
  51.9688553   5.9181673  13.8411673  52.1748553   6.2191673  14.6331673
  51.9078553   6.6401673  13.3561673  51.9898553   6.0691673  13.8861673
  51.5028553  10.1321673  18.0871673  50.7498553  10.1141673  17.6461673
  51.6708553  10.9841673  18.1711673  51.4168553  10.2551673  18.0341673
  56.7808553   4.5571673  13.2991673  56.7488553   3.6951673  13.1641673
  56.0878553   4.8591673  12.8651673  56.6738553   4.4741673  13.2151673
  45.1748553   9.7551673  17.5051673  45.2158553   9.8811673  18.3681673
  45.8258553   9.1951673  17.3491673  45.2768553   9.6911673  17.6101673
  54.8858553   7.8171673  12.0961673  55.4128553   7.7341673  11.4051673
  54.4948553   7.0391673  12.1501673  54.9058553   7.6901673  12.0021673
  42.7678553   8.1381673  18.8651673  43.3628553   8.5691673  19.3371673
  42.4038553   8.7621673  18.3761673  42.8018553   8.2941673  18.8621673
  40.6948553   6.1271673  15.7941673  40.1208553   6.5431673  16.3031673
  41.4278553   6.5921673  15.8891673  40.7188553   6.2571673  15.8831673
  42.4808553   9.3941673   4.5691673  42.3358553   9.5501673   3.7231673
  43.3468553   9.4731673   4.6471673  42.5878553   9.4291673   4.4561673
  46.6478553   1.7911673   4.2971673  46.7478553   1.9301673   3.4421673
  47.4658553   1.7311673   4.5931673  46.7828553   1.8021673   4.2141673
  55.8078553   9.8551673   1.7771673  56.4448553   9.7211673   2.3581673
  55.4668553   9.0611673   1.6601673  55.8518553   9.7181673   1.8451673
  56.0028553   2.2731673  18.5101673  56.6368553   2.1031673  19.0841673
  56.4198553   2.6761673  17.8581673  56.1578553   2.3081673  18.4991673
  51.8828553   6.1201673   4.0991673  51.6318553   5.9921673   4.9251673
  51.5658553   5.4251673   3.6781673  51.7988553   5.9991673   4.1591673
  53.4138553   2.3841673  19.8651673  54.2848553   2.3481673  19.8291673
  53.1948553   2.8041673  19.1331673  53.5108553   2.4401673  19.7521673
  43.1678553   8.2091673  11.0461673  43.0888553   7.3991673  10.7301673
  42.7238553   8.6961673  10.4741673  43.0908553   8.1611673  10.9151673
  48.7688553   4.3281673   3.5291673  49.4858553   3.9811673   3.1731673
  48.7348553   5.1281673   3.1811673  48.8698553   4.3951673   3.4251673
  40.7398553  10.4531673  14.6271673  41.2328553  10.3971673  15.3451673
  40.9278553   9.7201673  14.1921673  40.8408553  10.3361673  14.6691673
  31.3130113  66.8815993  63.7928903  31.0680113  67.3695993  63.1128903
  32.1760113  66.8085993  63.6928903  31.4040113  66.9425993  63.6778903
  31.1220113  73.7975993  68.4638903  30.5980113  74.3935993  68.8268903
  31.5190113  73.4295993  69.1478903  31.1030113  73.8315993  68.6188903
  20.7340113  71.7295993  60.4268903  19.9560113  71.8915993  60.0668903
  20.7730113  70.8585993  60.4488903  20.6250113  71.6245993  60.3768903
  33.7930113  74.8645993  65.1398903  33.8730113  74.8685993  64.2708903
  33.2090113  74.2325993  65.2888903  33.7180113  74.7715993  65.0338903
  27.7820113  67.9685993  62.9478903  27.7120113  68.6455993  62.4018903
  28.5230113  67.5805993  62.6988903  27.8810113  68.0115993  62.8298903
  22.3770113  75.1935993  64.3768903  21.9150113  74.8015993  63.7498903
  23.0770113  74.6805993  64.4688903  22.4120113  75.0605993  64.2978903
  26.8850113  70.8035993  69.7238903  27.5630113  70.8215993  69.1748903
  26.8400113  69.9675993  69.9688903  26.9780113  70.6825993  69.6788903
  24.3780113  73.2935993  64.3998903  25.1950113  73.1065993  64.6428903
  23.9010113  72.6795993  64.7958903  24.4280113  73.1755993  64.4948903
  30.6070113  72.8545993  74.5598903  29.7590113  72.7555993  74.3818903
  30.6360113  73.5995993  75.0138903  30.4860113  72.9505993  74.6008903
  24.9750113  68.3875993  63.6658903  24.6790113  68.8885993  63.0158903
  25.8420113  68.4655993  63.6088903  25.0590113  68.4735993  63.5618903
  35.1650113  65.8145993  73.6738903  35.0070113  66.5835993  73.2918903
  34.3930113  65.5945993  74.0178903  35.0270113  65.8955993  73.6688903
  27.9540113  67.5295993  65.8888903  28.0270113  68.3895993  66.0178903
  27.9160113  67.4545993  65.0208903  27.9590113  67.6455993  65.7798903
  32.6270113  70.4555993  58.1878903  32.1770113  71.1365993  58.4948903
  32.7410113  69.9515993  58.8908903  32.5780113  70.4815993  58.3368903
  20.8330113  72.9545993  67.3898903  20.5770113  73.7855993  67.3148903
  20.1690113  72.5715993  67.8068903  20.6970113  73.0205993  67.4408903
  23.8620113  67.7715993  67.8808903  23.3410113  67.1435993  67.5728903
  24.4530113  67.3345993  68.3518903  23.8730113  67.6135993  67.9048903
  38.0210113  70.4285993  64.4828903  37.6750113  71.1065993  64.9088903
  37.3850113  69.8305993  64.4988903  37.8760113  70.4405993  64.5478903
  22.9010113  69.5015993  76.1628903  22.1230113  69.1115993  76.0908903
  23.3920113  69.0895993  75.5718903  22.8580113  69.3825993  76.0648903
  29.5500113  67.1445993  75.3308903  29.7280113  66.3355993  75.0558903
  29.4070113  67.5855993  74.5918903  29.5550113  67.0905993  75.1808903
  30.1440113  72.0705993  64.1038903  30.4310113  71.8385993  63.3138903
  30.8760113  72.1495993  64.5728903  30.2940113  72.0475993  64.0568903
  30.8660113  72.4095993  59.2248903  31.1470113  73.1975993  59.4738903
  30.0900113  72.5745993  58.8618903  30.7930113  72.5505993  59.2078903
  37.6960113  68.7515993  69.8518903  38.4530113  68.8235993  69.4238903
  37.7590113  67.9785993  70.2508903  37.8170113  68.6485993  69.8468903
  20.2490113  70.0495993  73.7488903  20.2450113  70.6365993  74.3948903
  20.8430113  70.3615993  73.1918903  20.3360113  70.1825993  73.7618903
  33.2320113  68.4765993  60.0948903  33.7720113  67.7945993  60.1708903
  33.2940113  68.8745993  60.8688903  33.3210113  68.4345993  60.2208903
  21.1860113  69.6445993  62.6638903  21.0720113  68.7805993  62.6948903
  20.7110113  69.9385993  63.3338903  21.0990113  69.5605993  62.7668903
  30.4900113  70.8525993  61.4088903  29.9820113  70.1905993  61.1548903
  30.5420113  71.3565993  60.6988903  30.4230113  70.8295993  61.2668903
  30.4900113  67.7935993  61.2998903  30.0350113  67.3915993  60.6738903
  31.2630113  67.9485993  60.9248903  30.5370113  67.7575993  61.1518903
  29.0880113  70.1605993  65.8218903  29.1620113  70.7285993  65.1638903
  29.2090113  70.6525993  66.5318903  29.1160113  70.3175993  65.8298903
  23.6960113  65.9835993  64.1698903  24.2320113  66.6715993  64.1598903
  23.6990113  65.7095993  63.3418903  23.7750113  66.0445993  64.0458903
  32.8800113  70.3305993  71.7098903  32.7850113  70.6495993  72.5158903
  32.2870113  69.6915993  71.6718903  32.7780113  70.2825993  71.8238903
  34.1360113  66.2745993  64.5458903  34.1850113  65.9565993  65.3568903
  34.4590113  65.6305993  64.0528903  34.1910113  66.1325993  64.5928903
  36.6000113  70.5105993  72.8538903  37.3720113  70.2855993  73.1908903
  36.1250113  70.7275993  73.5538903  36.6440113  70.5095993  73.0068903
  24.1440113  69.7935993  65.8238903  24.4160113  69.3635993  65.1158903
  23.9680113  69.1575993  66.3948903  24.1580113  69.6365993  65.8038903
  22.2850113  70.8955993  68.9058903  23.1280113  71.1155993  68.8628903
  21.8960113  71.4685993  68.3748903  22.3520113  71.0125993  68.8208903
  34.7270113  74.0255993  59.6268903  34.5070113  74.7565993  59.2048903
  34.2790113  74.0765993  60.3738903  34.6280113  74.1405993  59.6748903
  38.9140113  68.8865993  59.0798903  38.2520113  68.3185993  59.1028903
  38.7210113  69.3985993  58.3998903  38.7880113  68.8785993  58.9828903
  39.2370113  73.2645993  71.6358903  39.4520113  72.4645993  71.3598903
  38.3870113  73.3245993  71.4468903  39.1430113  73.1555993  71.5668903
  36.9160113  68.4445993  61.3588903  37.6620113  68.0375993  61.5578903
  37.1790113  69.1595993  60.9338903  37.0650113  68.4905993  61.3258903
  33.3700113  70.7325993  66.4318903  33.7140113  70.8845993  67.2188903
  32.9170113  69.9945993  66.5448903  33.3540113  70.6455993  66.5648903
  27.8460113  69.9525993  60.8888903  27.8440113  69.8355993  60.0238903
  27.6650113  70.8005993  60.9808903  27.8190113  70.0605993  60.7748903
  23.7140113  73.3875993  75.3828903  23.1780113  72.8815993  75.8508903
  23.7340113  72.9975993  74.6028903  23.6370113  73.2545993  75.3368903
  24.1990113  72.7845993  60.5228903  24.0710113  72.3365993  61.2608903
  23.6170113  72.4425993  59.9708903  24.0940113  72.6675993  60.5508903
  24.3660113  74.6145993  67.1218903  23.5850113  74.5555993  66.7388903
  24.4380113  73.8625993  67.5588903  24.2610113  74.4955993  67.1298903
  24.7960113  74.3515993  70.5898903  24.8210113  73.6765993  70.0388903
  24.1500113  74.8475993  70.2778903  24.7050113  74.3245993  70.4628903
  34.6910113  72.0645993  68.9858903  34.0290113  72.3925993  69.4488903
  34.8780113  72.6985993  68.4168903  34.6210113  72.2065993  68.9698903
  31.3360113  67.9705993  72.4148903  31.4850113  67.1455993  72.1718903
  31.7150113  68.0255993  73.1988903  31.4140113  67.8565993  72.4948903
  32.8840113  70.0335993  62.4968903  33.3740113  70.7505993  62.4198903
  32.0940113  70.2945993  62.2338903  32.8400113  70.1775993  62.4468903
  29.4660113  71.5035993  68.2218903  29.9460113  72.2025993  68.4298903
  29.8390113  70.8565993  68.6728903  29.5920113  71.5115993  68.3188903
  31.6550113  74.6725993  60.4958903  31.6470113  75.3945993  60.0058903
  31.0160113  74.8075993  61.0728903  31.5600113  74.7995993  60.5088903
  26.2480113  67.0145993  60.1568903  26.3450113  66.9075993  61.0178903
  25.5400113  67.5205993  60.0918903  26.1580113  67.0735993  60.2748903
  36.9770113  66.7555993  75.5538903  36.3400113  66.3555993  75.1118903
  37.0030113  66.3245993  76.3118903  36.8870113  66.6335993  75.5998903
  20.3670113  66.9825993  62.3678903  20.4960113  66.2745993  61.8758903
  20.0000113  66.6645993  63.0928903  20.3320113  66.8305993  62.4028903
  30.0600113  74.6635993  62.8248903  30.1190113  75.3135993  63.4038903
  29.8710113  73.9675993  63.3158903  30.0410113  74.6565993  62.9828903
  24.5560113  69.1805993  59.3368903  24.0450113  69.2335993  58.6308903
  25.3400113  69.4205993  59.0408903  24.5960113  69.2235993  59.1888903
  26.3610113  71.5745993  66.3068903  27.2070113  71.3845993  66.4048903
  25.9910113  70.7975993  66.1688903  26.4310113  71.4315993  66.3008903
  21.1820113  72.9125993  62.9618903  21.6710113  72.6205993  63.6228903
  21.3110113  72.3195993  62.3348903  21.2730113  72.7815993  62.9668903
  25.7070113  74.3465993  58.4478903  25.0970113  73.9415993  58.9218903
  25.3210113  74.4645993  57.6748903  25.5600113  74.3035993  58.4038903
  27.1620113  72.8075993  61.1578903  27.4340113  73.6335993  61.2248903
  26.2990113  72.8825993  61.0618903  27.0750113  72.9405993  61.1528903
  35.1350113  69.9295993  75.7898903  34.6100113  70.3885993  76.3138903
  34.7740113  69.1345993  75.7838903  35.0040113  69.8795993  75.8658903
  20.6420113  68.7775993  67.6938903  20.6860113  69.1215993  66.8928903
  21.3970113  69.0145993  68.0608903  20.7600113  68.8635993  67.6298903
  33.6270113  73.4985993  75.8658903  33.7000113  73.6025993  76.7288903
  32.9930113  74.0565993  75.6448903  33.5440113  73.5965993  75.9608903
  35.8950113  73.8175993  74.2308903  36.2140113  74.6035993  74.4338903
  35.5250113  73.5475993  74.9738903  35.8880113  73.8935993  74.3708903
  35.6910113  72.0755993  65.4198903  34.9460113  71.7525993  65.7378903
  35.6930113  72.9015993  65.6998903  35.5810113  72.1495993  65.5078903
  34.6030113  68.4055993  72.8808903  35.3470113  68.8575993  72.8178903
  34.0370113  68.8755993  72.4118903  34.6300113  68.5425993  72.8028903
  26.4910113  71.2925993  72.6998903  26.6520113  70.5485993  73.1268903
  26.4460113  71.0435993  71.8648903  26.5080113  71.1455993  72.6398903
  35.8880113  66.3855993  70.5508903  35.6080113  67.2105993  70.5068903
  36.6040113  66.4385993  71.0468903  35.9530113  66.5155993  70.6178903
  28.2430113  67.1005993  72.5798903  28.9480113  67.4205993  72.1778903
  28.4840113  66.2935993  72.8068903  28.3820113  67.0285993  72.5538903
  37.3090113  72.6405993  59.4078903  37.6870113  73.3175993  59.0078903
  36.4670113  72.8645993  59.4388903  37.2400113  72.7735993  59.3528903
  24.7520113  72.1535993  68.6408903  25.1920113  72.0505993  67.8948903
  25.2970113  71.8405993  69.2458903  24.8970113  72.0925993  68.6198903
  32.7680113  71.2555993  74.2328903  32.1200113  71.7255993  74.5808903
  33.3330113  71.1665993  74.8918903  32.7560113  71.3115993  74.3818903
  32.4560113  72.7925993  70.5308903  32.7580113  73.2125993  71.2338903
  32.4920113  71.9525993  70.7628903  32.5060113  72.7305993  70.6688903
  35.0040113  72.2395993  62.7828903  35.2110113  72.0385993  63.6068903
  35.7600113  72.5075993  62.4408903  35.1460113  72.2495993  62.8538903
  28.2990113  67.1385993  68.6878903  27.4730113  66.9895993  68.9248903
  28.2590113  67.1735993  67.8168903  28.1710113  67.1215993  68.5938903
  36.0260113  68.3225993  64.2568903  35.3120113  67.8515993  64.4278903
  35.8640113  68.6635993  63.4708903  35.8970113  68.3035993  64.1658903
  20.8640113  67.5365993  74.7228903  20.7240113  68.3315993  74.3918903
  20.0780113  67.2935993  75.0118903  20.7270113  67.6185993  74.7168903
  23.9280113  70.2805993  61.9478903  24.0540113  69.9515993  61.1498903
  23.1160113  70.0315993  62.1468903  23.8270113  70.1955993  61.8598903
  38.6050113  73.4345993  74.3948903  37.7500113  73.3125993  74.5208903
  38.7580113  73.0395993  73.6318903  38.5010113  73.3575993  74.3008903
  33.1180113  74.0995993  72.9708903  32.8630113  73.3805993  73.3928903
  33.9390113  74.2155993  73.2408903  33.2020113  74.0105993  73.0728903
  23.9050113  72.2915993  72.3638903  24.2800113  72.9105993  71.8768903
  24.5790113  71.8175993  72.6488903  24.0600113  72.3135993  72.3338903
  21.6800113  70.7395993  71.6388903  21.7570113  70.5705993  70.7858903
  22.4260113  71.1455993  71.8358903  21.8010113  70.7745993  71.5418903
  37.2390113  73.3795993  62.0788903  37.3420113  73.3215993  61.2148903
  37.9800113  73.0475993  62.3968903  37.3640113  73.3225993  61.9978903
  24.2340113  68.1495993  74.0498903  24.1530113  67.3055993  74.2558903
  23.9200113  68.1935993  73.2368903  24.1760113  68.0315993  73.9598903
  36.3410113  73.5255993  71.4348903  36.3390113  72.6625993  71.5588903
  36.4080113  73.8495993  72.2418903  36.3510113  73.4455993  71.5718903
  22.5330113  71.9015993  58.4808903  21.8610113  71.9155993  59.0368903
  22.6280113  71.0535993  58.2968903  22.4480113  71.7785993  58.5358903
  32.2200113  68.3255993  75.2168903  32.3120113  69.0375993  75.7108903
  31.5830113  67.8805993  75.6138903  32.1390113  68.3645993  75.3488903
  31.2140113  68.5155993  66.0708903  30.5140113  69.0335993  66.0148903
  31.2520113  68.1355993  65.2868903  31.1160113  68.5365993  65.9468903
  34.8120113  69.0315993  68.8708903  35.6670113  69.1305993  69.0158903
  34.4430113  69.5845993  69.4358903  34.8840113  69.1285993  68.9758903
  35.1160113  74.3115993  67.3618903  35.7820113  74.8525993  67.5218903
  34.7710113  74.6225993  66.6228903  35.1630113  74.4375993  67.2768903
  26.2690113  68.2345993  70.6978903  25.4050113  68.3185993  70.7778903
  26.4890113  67.7205993  71.3668903  26.1740113  68.1715993  70.8088903
  38.2870113  66.8695993  72.0268903  38.2350113  66.8255993  72.8968903
  38.9740113  66.3665993  71.8368903  38.3810113  66.7895993  72.1268903
  30.3720113  68.9825993  69.0718903  29.6350113  68.5285993  69.1848903
  30.9430113  68.5805993  69.5948903  30.3470113  68.8555993  69.1658903
  27.8750113  73.3115993  74.2758903  27.5530113  72.7355993  73.7058903
  27.5160113  74.0665993  74.0298903  27.7750113  73.3375993  74.1558903
  28.6710113  66.5635993  58.9028903  28.7490113  66.8105993  58.0698903
  27.9280113  66.9405993  59.1608903  28.5730113  66.6555993  58.8178903
  23.4890113  68.3175993  71.3458903  23.1460113  67.5505993  71.1118903
  22.7940113  68.8415993  71.4098903  23.3360113  68.2815993  71.3208903
  32.5350113  67.1735993  68.3228903  33.2050113  67.7175993  68.4498903
  32.0320113  67.5975993  67.7498903  32.5600113  67.3165993  68.2568903
  31.8940113  72.9815993  65.8158903  32.4450113  72.3745993  66.1158903
  31.4690113  73.2445993  66.5308903  31.9130113  72.9305993  65.9648903
  22.1420113  71.6315993  65.3018903  21.7740113  71.9335993  66.0328903
  22.6760113  71.0025993  65.5858903  22.1660113  71.5835993  65.4518903
  33.8640113  74.8125993  62.3778903  33.9320113  73.9625993  62.5588903
  33.0410113  74.8985993  62.0998903  33.7520113  74.6995993  62.3638903
  37.7630113  70.7495993  76.2668903  37.5670113  71.3935993  76.8218903
  37.0410113  70.2595993  76.2588903  37.6280113  70.7725993  76.3478903
  37.6620113  71.6905993  69.2378903  36.8290113  71.9405993  69.1658903
  37.6060113  70.8505993  69.4668903  37.5310113  71.6035993  69.2608903
  26.9220113  68.6785993  74.4318903  27.1560113  68.1025993  73.8188903
  26.0800113  68.4975993  74.5728903  26.8320113  68.5665993  74.3618903
  31.3130113  66.8815993  44.7866493  31.0680113  67.3695993  44.1066493
  32.1760113  66.8085993  44.6866493  31.4040113  66.9425993  44.6716493
  31.1220113  73.7975993  49.4576493  30.5980113  74.3935993  49.8206493
  31.5190113  73.4295993  50.1416493  31.1030113  73.8315993  49.6126493
  20.7340113  71.7295993  41.4206493  19.9560113  71.8915993  41.0606493
  20.7730113  70.8585993  41.4426493  20.6250113  71.6245993  41.3706493
  33.7930113  74.8645993  46.1336493  33.8730113  74.8685993  45.2646493
  33.2090113  74.2325993  46.2826493  33.7180113  74.7715993  46.0276493
  27.7820113  67.9685993  43.9416493  27.7120113  68.6455993  43.3956493
  28.5230113  67.5805993  43.6926493  27.8810113  68.0115993  43.8236493
  22.3770113  75.1935993  45.3706493  21.9150113  74.8015993  44.7436493
  23.0770113  74.6805993  45.4626493  22.4120113  75.0605993  45.2916493
  26.8850113  70.8035993  50.7176493  27.5630113  70.8215993  50.1686493
  26.8400113  69.9675993  50.9626493  26.9780113  70.6825993  50.6726493
  24.3780113  73.2935993  45.3936493  25.1950113  73.1065993  45.6366493
  23.9010113  72.6795993  45.7896493  24.4280113  73.1755993  45.4886493
  30.6070113  72.8545993  55.5536493  29.7590113  72.7555993  55.3756493
  30.6360113  73.5995993  56.0076493  30.4860113  72.9505993  55.5946493
  24.9750113  68.3875993  44.6596493  24.6790113  68.8885993  44.0096493
  25.8420113  68.4655993  44.6026493  25.0590113  68.4735993  44.5556493
  35.1650113  65.8145993  54.6676493  35.0070113  66.5835993  54.2856493
  34.3930113  65.5945993  55.0116493  35.0270113  65.8955993  54.6626493
  27.9540113  67.5295993  46.8826493  28.0270113  68.3895993  47.0116493
  27.9160113  67.4545993  46.0146493  27.9590113  67.6455993  46.7736493
  32.6270113  70.4555993  39.1816493  32.1770113  71.1365993  39.4886493
  32.7410113  69.9515993  39.8846493  32.5780113  70.4815993  39.3306493
  20.8330113  72.9545993  48.3836493  20.5770113  73.7855993  48.3086493
  20.1690113  72.5715993  48.8006493  20.6970113  73.0205993  48.4346493
  23.8620113  67.7715993  48.8746493  23.3410113  67.1435993  48.5666493
  24.4530113  67.3345993  49.3456493  23.8730113  67.6135993  48.8986493
  27.1680113  69.9045993  58.1726493  27.2850113  69.4505993  57.4366493
  27.4560113  70.7025993  57.9696493  27.2280113  69.9555993  58.0336493
  38.0210113  70.4285993  45.4766493  37.6750113  71.1065993  45.9026493
  37.3850113  69.8305993  45.4926493  37.8760113  70.4405993  45.5416493
  22.9010113  69.5015993  57.1566493  22.1230113  69.1115993  57.0846493
  23.3920113  69.0895993  56.5656493  22.8580113  69.3825993  57.0586493
  29.5500113  67.1445993  56.3246493  29.7280113  66.3355993  56.0496493
  29.4070113  67.5855993  55.5856493  29.5550113  67.0905993  56.1746493
  30.1440113  72.0705993  45.0976493  30.4310113  71.8385993  44.3076493
  30.8760113  72.1495993  45.5666493  30.2940113  72.0475993  45.0506493
  30.8660113  72.4095993  40.2186493  31.1470113  73.1975993  40.4676493
  30.0900113  72.5745993  39.8556493  30.7930113  72.5505993  40.2016493
  37.6960113  68.7515993  50.8456493  38.4530113  68.8235993  50.4176493
  37.7590113  67.9785993  51.2446493  37.8170113  68.6485993  50.8406493
  20.2490113  70.0495993  54.7426493  20.2450113  70.6365993  55.3886493
  20.8430113  70.3615993  54.1856493  20.3360113  70.1825993  54.7556493
  33.2320113  68.4765993  41.0886493  33.7720113  67.7945993  41.1646493
  33.2940113  68.8745993  41.8626493  33.3210113  68.4345993  41.2146493
  21.1860113  69.6445993  43.6576493  21.0720113  68.7805993  43.6886493
  20.7110113  69.9385993  44.3276493  21.0990113  69.5605993  43.7606493
  30.4900113  70.8525993  42.4026493  29.9820113  70.1905993  42.1486493
  30.5420113  71.3565993  41.6926493  30.4230113  70.8295993  42.2606493
  30.4900113  67.7935993  42.2936493  30.0350113  67.3915993  41.6676493
  31.2630113  67.9485993  41.9186493  30.5370113  67.7575993  42.1456493
  29.0880113  70.1605993  46.8156493  29.1620113  70.7285993  46.1576493
  29.2090113  70.6525993  47.5256493  29.1160113  70.3175993  46.8236493
  23.6960113  65.9835993  45.1636493  24.2320113  66.6715993  45.1536493
  23.6990113  65.7095993  44.3356493  23.7750113  66.0445993  45.0396493
  32.8800113  70.3305993  52.7036493  32.7850113  70.6495993  53.5096493
  32.2870113  69.6915993  52.6656493  32.7780113  70.2825993  52.8176493
  34.1360113  66.2745993  45.5396493  34.1850113  65.9565993  46.3506493
  34.4590113  65.6305993  45.0466493  34.1910113  66.1325993  45.5866493
  36.6000113  70.5105993  53.8476493  37.3720113  70.2855993  54.1846493
  36.1250113  70.7275993  54.5476493  36.6440113  70.5095993  54.0006493
  24.1440113  69.7935993  46.8176493  24.4160113  69.3635993  46.1096493
  23.9680113  69.1575993  47.3886493  24.1580113  69.6365993  46.7976493
  22.2850113  70.8955993  49.8996493  23.1280113  71.1155993  49.8566493
  21.8960113  71.4685993  49.3686493  22.3520113  71.0125993  49.8146493
  34.7270113  74.0255993  40.6206493  34.5070113  74.7565993  40.1986493
  34.2790113  74.0765993  41.3676493  34.6280113  74.1405993  40.6686493
  38.9140113  68.8865993  40.0736493  38.2520113  68.3185993  40.0966493
  38.7210113  69.3985993  39.3936493  38.7880113  68.8785993  39.9766493
  28.1390113  72.5805993  58.0176493  27.6550113  73.1575993  58.4596493
  28.1110113  72.8755993  57.1966493  28.0630113  72.7095993  57.9616493
  39.2370113  73.2645993  52.6296493  39.4520113  72.4645993  52.3536493
  38.3870113  73.3245993  52.4406493  39.1430113  73.1555993  52.5606493
  36.9160113  68.4445993  42.3526493  37.6620113  68.0375993  42.5516493
  37.1790113  69.1595993  41.9276493  37.0650113  68.4905993  42.3196493
  33.3700113  70.7325993  47.4256493  33.7140113  70.8845993  48.2126493
  32.9170113  69.9945993  47.5386493  33.3540113  70.6455993  47.5586493
  27.8460113  69.9525993  41.8826493  27.8440113  69.8355993  41.0176493
  27.6650113  70.8005993  41.9746493  27.8190113  70.0605993  41.7686493
  23.7140113  73.3875993  56.3766493  23.1780113  72.8815993  56.8446493
  23.7340113  72.9975993  55.5966493  23.6370113  73.2545993  56.3306493
  24.1990113  72.7845993  41.5166493  24.0710113  72.3365993  42.2546493
  23.6170113  72.4425993  40.9646493  24.0940113  72.6675993  41.5446493
  24.3660113  74.6145993  48.1156493  23.5850113  74.5555993  47.7326493
  24.4380113  73.8625993  48.5526493  24.2610113  74.4955993  48.1236493
  24.7960113  74.3515993  51.5836493  24.8210113  73.6765993  51.0326493
  24.1500113  74.8475993  51.2716493  24.7050113  74.3245993  51.4566493
  34.6910113  72.0645993  49.9796493  34.0290113  72.3925993  50.4426493
  34.8780113  72.6985993  49.4106493  34.6210113  72.2065993  49.9636493
  31.3360113  67.9705993  53.4086493  31.4850113  67.1455993  53.1656493
  31.7150113  68.0255993  54.1926493  31.4140113  67.8565993  53.4886493
  32.8840113  70.0335993  43.4906493  33.3740113  70.7505993  43.4136493
  32.0940113  70.2945993  43.2276493  32.8400113  70.1775993  43.4406493
  29.4660113  71.5035993  49.2156493  29.9460113  72.2025993  49.4236493
  29.8390113  70.8565993  49.6666493  29.5920113  71.5115993  49.3126493
  31.6550113  74.6725993  41.4896493  31.6470113  75.3945993  40.9996493
  31.0160113  74.8075993  42.0666493  31.5600113  74.7995993  41.5026493
  26.2480113  67.0145993  41.1506493  26.3450113  66.9075993  42.0116493
  25.5400113  67.5205993  41.0856493  26.1580113  67.0735993  41.2686493
  36.9770113  66.7555993  56.5476493  36.3400113  66.3555993  56.1056493
  37.0030113  66.3245993  57.3056493  36.8870113  66.6335993  56.5936493
  20.3670113  66.9825993  43.3616493  20.4960113  66.2745993  42.8696493
  20.0000113  66.6645993  44.0866493  20.3320113  66.8305993  43.3966493
  30.0600113  74.6635993  43.8186493  30.1190113  75.3135993  44.3976493
  29.8710113  73.9675993  44.3096493  30.0410113  74.6565993  43.9766493
  24.5560113  69.1805993  40.3306493  24.0450113  69.2335993  39.6246493
  25.3400113  69.4205993  40.0346493  24.5960113  69.2235993  40.1826493
  26.3610113  71.5745993  47.3006493  27.2070113  71.3845993  47.3986493
  25.9910113  70.7975993  47.1626493  26.4310113  71.4315993  47.2946493
  21.1820113  72.9125993  43.9556493  21.6710113  72.6205993  44.6166493
  21.3110113  72.3195993  43.3286493  21.2730113  72.7815993  43.9606493
  25.7070113  74.3465993  39.4416493  25.0970113  73.9415993  39.9156493
  25.3210113  74.4645993  38.6686493  25.5600113  74.3035993  39.3976493
  27.1620113  72.8075993  42.1516493  27.4340113  73.6335993  42.2186493
  26.2990113  72.8825993  42.0556493  27.0750113  72.9405993  42.1466493
  35.1350113  69.9295993  56.7836493  34.6100113  70.3885993  57.3076493
  34.7740113  69.1345993  56.7776493  35.0040113  69.8795993  56.8596493
  20.6420113  68.7775993  48.6876493  20.6860113  69.1215993  47.8866493
  21.3970113  69.0145993  49.0546493  20.7600113  68.8635993  48.6236493
  33.6270113  73.4985993  56.8596493  33.7000113  73.6025993  57.7226493
  32.9930113  74.0565993  56.6386493  33.5440113  73.5965993  56.9546493
  35.8950113  73.8175993  55.2246493  36.2140113  74.6035993  55.4276493
  35.5250113  73.5475993  55.9676493  35.8880113  73.8935993  55.3646493
  35.6910113  72.0755993  46.4136493  34.9460113  71.7525993  46.7316493
  35.6930113  72.9015993  46.6936493  35.5810113  72.1495993  46.5016493
  38.5930113  74.3595993  57.9596493  38.5410113  74.0185993  57.1586493
  39.3300113  74.8265993  57.9376493  38.6940113  74.3785993  57.8376493
  34.6030113  68.4055993  53.8746493  35.3470113  68.8575993  53.8116493
  34.0370113  68.8755993  53.4056493  34.6300113  68.5425993  53.7966493
  26.4910113  71.2925993  53.6936493  26.6520113  70.5485993  54.1206493
  26.4460113  71.0435993  52.8586493  26.5080113  71.1455993  53.6336493
  35.8880113  66.3855993  51.5446493  35.6080113  67.2105993  51.5006493
  36.6040113  66.4385993  52.0406493  35.9530113  66.5155993  51.6116493
  28.2430113  67.1005993  53.5736493  28.9480113  67.4205993  53.1716493
  28.4840113  66.2935993  53.8006493  28.3820113  67.0285993  53.5476493
  37.3090113  72.6405993  40.4016493  37.6870113  73.3175993  40.0016493
  36.4670113  72.8645993  40.4326493  37.2400113  72.7735993  40.3466493
  24.7520113  72.1535993  49.6346493  25.1920113  72.0505993  48.8886493
  25.2970113  71.8405993  50.2396493  24.8970113  72.0925993  49.6136493
  32.7680113  71.2555993  55.2266493  32.1200113  71.7255993  55.5746493
  33.3330113  71.1665993  55.8856493  32.7560113  71.3115993  55.3756493
  32.4560113  72.7925993  51.5246493  32.7580113  73.2125993  52.2276493
  32.4920113  71.9525993  51.7566493  32.5060113  72.7305993  51.6626493
  35.0040113  72.2395993  43.7766493  35.2110113  72.0385993  44.6006493
  35.7600113  72.5075993  43.4346493  35.1460113  72.2495993  43.8476493
  28.2990113  67.1385993  49.6816493  27.4730113  66.9895993  49.9186493
  28.2590113  67.1735993  48.8106493  28.1710113  67.1215993  49.5876493
  36.0260113  68.3225993  45.2506493  35.3120113  67.8515993  45.4216493
  35.8640113  68.6635993  44.4646493  35.8970113  68.3035993  45.1596493
  20.8640113  67.5365993  55.7166493  20.7240113  68.3315993  55.3856493
  20.0780113  67.2935993  56.0056493  20.7270113  67.6185993  55.7106493
  23.9280113  70.2805993  42.9416493  24.0540113  69.9515993  42.1436493
  23.1160113  70.0315993  43.1406493  23.8270113  70.1955993  42.8536493
  38.6050113  73.4345993  55.3886493  37.7500113  73.3125993  55.5146493
  38.7580113  73.0395993  54.6256493  38.5010113  73.3575993  55.2946493
  33.1180113  74.0995993  53.9646493  32.8630113  73.3805993  54.3866493
  33.9390113  74.2155993  54.2346493  33.2020113  74.0105993  54.0666493
  23.9050113  72.2915993  53.3576493  24.2800113  72.9105993  52.8706493
  24.5790113  71.8175993  53.6426493  24.0600113  72.3135993  53.3276493
  21.6800113  70.7395993  52.6326493  21.7570113  70.5705993  51.7796493
  22.4260113  71.1455993  52.8296493  21.8010113  70.7745993  52.5356493
  37.2390113  73.3795993  43.0726493  37.3420113  73.3215993  42.2086493
  37.9800113  73.0475993  43.3906493  37.3640113  73.3225993  42.9916493
  24.2340113  68.1495993  55.0436493  24.1530113  67.3055993  55.2496493
  23.9200113  68.1935993  54.2306493  24.1760113  68.0315993  54.9536493
  36.3410113  73.5255993  52.4286493  36.3390113  72.6625993  52.5526493
  36.4080113  73.8495993  53.2356493  36.3510113  73.4455993  52.5656493
  22.5330113  71.9015993  39.4746493  21.8610113  71.9155993  40.0306493
  22.6280113  71.0535993  39.2906493  22.4480113  71.7785993  39.5296493
  32.2200113  68.3255993  56.2106493  32.3120113  69.0375993  56.7046493
  31.5830113  67.8805993  56.6076493  32.1390113  68.3645993  56.3426493
  31.2140113  68.5155993  47.0646493  30.5140113  69.0335993  47.0086493
  31.2520113  68.1355993  46.2806493  31.1160113  68.5365993  46.9406493
  34.8120113  69.0315993  49.8646493  35.6670113  69.1305993  50.0096493
  34.4430113  69.5845993  50.4296493  34.8840113  69.1285993  49.9696493
  35.1160113  74.3115993  48.3556493  35.7820113  74.8525993  48.5156493
  34.7710113  74.6225993  47.6166493  35.1630113  74.4375993  48.2706493
  26.2690113  68.2345993  51.6916493  25.4050113  68.3185993  51.7716493
  26.4890113  67.7205993  52.3606493  26.1740113  68.1715993  51.8026493
  38.2870113  66.8695993  53.0206493  38.2350113  66.8255993  53.8906493
  38.9740113  66.3665993  52.8306493  38.3810113  66.7895993  53.1206493
  30.3720113  68.9825993  50.0656493  29.6350113  68.5285993  50.1786493
  30.9430113  68.5805993  50.5886493  30.3470113  68.8555993  50.1596493
  27.8750113  73.3115993  55.2696493  27.5530113  72.7355993  54.6996493
  27.5160113  74.0665993  55.0236493  27.7750113  73.3375993  55.1496493
  28.6710113  66.5635993  39.8966493  28.7490113  66.8105993  39.0636493
  27.9280113  66.9405993  40.1546493  28.5730113  66.6555993  39.8116493
  23.4890113  68.3175993  52.3396493  23.1460113  67.5505993  52.1056493
  22.7940113  68.8415993  52.4036493  23.3360113  68.2815993  52.3146493
  32.5350113  67.1735993  49.3166493  33.2050113  67.7175993  49.4436493
  32.0320113  67.5975993  48.7436493  32.5600113  67.3165993  49.2506493
  31.8940113  72.9815993  46.8096493  32.4450113  72.3745993  47.1096493
  31.4690113  73.2445993  47.5246493  31.9130113  72.9305993  46.9586493
  22.1420113  71.6315993  46.2956493  21.7740113  71.9335993  47.0266493
  22.6760113  71.0025993  46.5796493  22.1660113  71.5835993  46.4456493
  33.8640113  74.8125993  43.3716493  33.9320113  73.9625993  43.5526493
  33.0410113  74.8985993  43.0936493  33.7520113  74.6995993  43.3576493
  37.7630113  70.7495993  57.2606493  37.5670113  71.3935993  57.8156493
  37.0410113  70.2595993  57.2526493  37.6280113  70.7725993  57.3416493
  37.6620113  71.6905993  50.2316493  36.8290113  71.9405993  50.1596493
  37.6060113  70.8505993  50.4606493  37.5310113  71.6035993  50.2546493
  26.9220113  68.6785993  55.4256493  27.1560113  68.1025993  54.8126493
  26.0800113  68.4975993  55.5666493  26.8320113  68.5665993  55.3556493
  31.3130113  66.8815993  25.7804083  31.0680113  67.3695993  25.1004083
  32.1760113  66.8085993  25.6804083  31.4040113  66.9425993  25.6654083
  31.1220113  73.7975993  30.4514083  30.5980113  74.3935993  30.8144083
  31.5190113  73.4295993  31.1354083  31.1030113  73.8315993  30.6064083
  20.7340113  71.7295993  22.4144083  19.9560113  71.8915993  22.0544083
  20.7730113  70.8585993  22.4364083  20.6250113  71.6245993  22.3644083
  33.7930113  74.8645993  27.1274083  33.8730113  74.8685993  26.2584083
  33.2090113  74.2325993  27.2764083  33.7180113  74.7715993  27.0214083
  27.7820113  67.9685993  24.9354083  27.7120113  68.6455993  24.3894083
  28.5230113  67.5805993  24.6864083  27.8810113  68.0115993  24.8174083
  22.3770113  75.1935993  26.3644083  21.9150113  74.8015993  25.7374083
  23.0770113  74.6805993  26.4564083  22.4120113  75.0605993  26.2854083
  26.8850113  70.8035993  31.7114083  27.5630113  70.8215993  31.1624083
  26.8400113  69.9675993  31.9564083  26.9780113  70.6825993  31.6664083
  24.3780113  73.2935993  26.3874083  25.1950113  73.1065993  26.6304083
  23.9010113  72.6795993  26.7834083  24.4280113  73.1755993  26.4824083
  30.6070113  72.8545993  36.5474083  29.7590113  72.7555993  36.3694083
  30.6360113  73.5995993  37.0014083  30.4860113  72.9505993  36.5884083
  24.9750113  68.3875993  25.6534083  24.6790113  68.8885993  25.0034083
  25.8420113  68.4655993  25.5964083  25.0590113  68.4735993  25.5494083
  35.1650113  65.8145993  35.6614083  35.0070113  66.5835993  35.2794083
  34.3930113  65.5945993  36.0054083  35.0270113  65.8955993  35.6564083
  27.9540113  67.5295993  27.8764083  28.0270113  68.3895993  28.0054083
  27.9160113  67.4545993  27.0084083  27.9590113  67.6455993  27.7674083
  32.6270113  70.4555993  20.1754083  32.1770113  71.1365993  20.4824083
  32.7410113  69.9515993  20.8784083  32.5780113  70.4815993  20.3244083
  20.8330113  72.9545993  29.3774083  20.5770113  73.7855993  29.3024083
  20.1690113  72.5715993  29.7944083  20.6970113  73.0205993  29.4284083
  23.8620113  67.7715993  29.8684083  23.3410113  67.1435993  29.5604083
  24.4530113  67.3345993  30.3394083  23.8730113  67.6135993  29.8924083
  27.1680113  69.9045993  39.1664083  27.2850113  69.4505993  38.4304083
  27.4560113  70.7025993  38.9634083  27.2280113  69.9555993  39.0274083
  38.0210113  70.4285993  26.4704083  37.6750113  71.1065993  26.8964083
  37.3850113  69.8305993  26.4864083  37.8760113  70.4405993  26.5354083
  22.9010113  69.5015993  38.1504083  22.1230113  69.1115993  38.0784083
  23.3920113  69.0895993  37.5594083  22.8580113  69.3825993  38.0524083
  29.5500113  67.1445993  37.3184083  29.7280113  66.3355993  37.0434083
  29.4070113  67.5855993  36.5794083  29.5550113  67.0905993  37.1684083
  30.1440113  72.0705993  26.0914083  30.4310113  71.8385993  25.3014083
  30.8760113  72.1495993  26.5604083  30.2940113  72.0475993  26.0444083
  30.8660113  72.4095993  21.2124083  31.1470113  73.1975993  21.4614083
  30.0900113  72.5745993  20.8494083  30.7930113  72.5505993  21.1954083
  37.6960113  68.7515993  31.8394083  38.4530113  68.8235993  31.4114083
  37.7590113  67.9785993  32.2384083  37.8170113  68.6485993  31.8344083
  20.2490113  70.0495993  35.7364083  20.2450113  70.6365993  36.3824083
  20.8430113  70.3615993  35.1794083  20.3360113  70.1825993  35.7494083
  33.2320113  68.4765993  22.0824083  33.7720113  67.7945993  22.1584083
  33.2940113  68.8745993  22.8564083  33.3210113  68.4345993  22.2084083
  21.1860113  69.6445993  24.6514083  21.0720113  68.7805993  24.6824083
  20.7110113  69.9385993  25.3214083  21.0990113  69.5605993  24.7544083
  30.4900113  70.8525993  23.3964083  29.9820113  70.1905993  23.1424083
  30.5420113  71.3565993  22.6864083  30.4230113  70.8295993  23.2544083
  30.4900113  67.7935993  23.2874083  30.0350113  67.3915993  22.6614083
  31.2630113  67.9485993  22.9124083  30.5370113  67.7575993  23.1394083
  29.0880113  70.1605993  27.8094083  29.1620113  70.7285993  27.1514083
  29.2090113  70.6525993  28.5194083  29.1160113  70.3175993  27.8174083
  23.6960113  65.9835993  26.1574083  24.2320113  66.6715993  26.1474083
  23.6990113  65.7095993  25.3294083  23.7750113  66.0445993  26.0334083
  32.8800113  70.3305993  33.6974083  32.7850113  70.6495993  34.5034083
  32.2870113  69.6915993  33.6594083  32.7780113  70.2825993  33.8114083
  34.1360113  66.2745993  26.5334083  34.1850113  65.9565993  27.3444083
  34.4590113  65.6305993  26.0404083  34.1910113  66.1325993  26.5804083
  36.6000113  70.5105993  34.8414083  37.3720113  70.2855993  35.1784083
  36.1250113  70.7275993  35.5414083  36.6440113  70.5095993  34.9944083
  24.1440113  69.7935993  27.8114083  24.4160113  69.3635993  27.1034083
  23.9680113  69.1575993  28.3824083  24.1580113  69.6365993  27.7914083
  22.2850113  70.8955993  30.8934083  23.1280113  71.1155993  30.8504083
  21.8960113  71.4685993  30.3624083  22.3520113  71.0125993  30.8084083
  34.7270113  74.0255993  21.6144083  34.5070113  74.7565993  21.1924083
  34.2790113  74.0765993  22.3614083  34.6280113  74.1405993  21.6624083
  38.9140113  68.8865993  21.0674083  38.2520113  68.3185993  21.0904083
  38.7210113  69.3985993  20.3874083  38.7880113  68.8785993  20.9704083
  28.1390113  72.5805993  39.0114083  27.6550113  73.1575993  39.4534083
  28.1110113  72.8755993  38.1904083  28.0630113  72.7095993  38.9554083
  39.2370113  73.2645993  33.6234083  39.4520113  72.4645993  33.3474083
  38.3870113  73.3245993  33.4344083  39.1430113  73.1555993  33.5544083
  36.9160113  68.4445993  23.3464083  37.6620113  68.0375993  23.5454083
  37.1790113  69.1595993  22.9214083  37.0650113  68.4905993  23.3134083
  33.3700113  70.7325993  28.4194083  33.7140113  70.8845993  29.2064083
  32.9170113  69.9945993  28.5324083  33.3540113  70.6455993  28.5524083
  27.8460113  69.9525993  22.8764083  27.8440113  69.8355993  22.0114083
  27.6650113  70.8005993  22.9684083  27.8190113  70.0605993  22.7624083
  23.7140113  73.3875993  37.3704083  23.1780113  72.8815993  37.8384083
  23.7340113  72.9975993  36.5904083  23.6370113  73.2545993  37.3244083
  24.1990113  72.7845993  22.5104083  24.0710113  72.3365993  23.2484083
  23.6170113  72.4425993  21.9584083  24.0940113  72.6675993  22.5384083
  24.3660113  74.6145993  29.1094083  23.5850113  74.5555993  28.7264083
  24.4380113  73.8625993  29.5464083  24.2610113  74.4955993  29.1174083
  24.7960113  74.3515993  32.5774083  24.8210113  73.6765993  32.0264083
  24.1500113  74.8475993  32.2654083  24.7050113  74.3245993  32.4504083
  34.6910113  72.0645993  30.9734083  34.0290113  72.3925993  31.4364083
  34.8780113  72.6985993  30.4044083  34.6210113  72.2065993  30.9574083
  31.3360113  67.9705993  34.4024083  31.4850113  67.1455993  34.1594083
  31.7150113  68.0255993  35.1864083  31.4140113  67.8565993  34.4824083
  32.8840113  70.0335993  24.4844083  33.3740113  70.7505993  24.4074083
  32.0940113  70.2945993  24.2214083  32.8400113  70.1775993  24.4344083
  29.4660113  71.5035993  30.2094083  29.9460113  72.2025993  30.4174083
  29.8390113  70.8565993  30.6604083  29.5920113  71.5115993  30.3064083
  31.6550113  74.6725993  22.4834083  31.6470113  75.3945993  21.9934083
  31.0160113  74.8075993  23.0604083  31.5600113  74.7995993  22.4964083
  26.2480113  67.0145993  22.1444083  26.3450113  66.9075993  23.0054083
  25.5400113  67.5205993  22.0794083  26.1580113  67.0735993  22.2624083
  36.9770113  66.7555993  37.5414083  36.3400113  66.3555993  37.0994083
  37.0030113  66.3245993  38.2994083  36.8870113  66.6335993  37.5874083
  20.3670113  66.9825993  24.3554083  20.4960113  66.2745993  23.8634083
  20.0000113  66.6645993  25.0804083  20.3320113  66.8305993  24.3904083
  30.0600113  74.6635993  24.8124083  30.1190113  75.3135993  25.3914083
  29.8710113  73.9675993  25.3034083  30.0410113  74.6565993  24.9704083
  24.5560113  69.1805993  21.3244083  24.0450113  69.2335993  20.6184083
  25.3400113  69.4205993  21.0284083  24.5960113  69.2235993  21.1764083
  26.3610113  71.5745993  28.2944083  27.2070113  71.3845993  28.3924083
  25.9910113  70.7975993  28.1564083  26.4310113  71.4315993  28.2884083
  21.1820113  72.9125993  24.9494083  21.6710113  72.6205993  25.6104083
  21.3110113  72.3195993  24.3224083  21.2730113  72.7815993  24.9544083
  25.7070113  74.3465993  20.4354083  25.0970113  73.9415993  20.9094083
  25.3210113  74.4645993  19.6624083  25.5600113  74.3035993  20.3914083
  27.1620113  72.8075993  23.1454083  27.4340113  73.6335993  23.2124083
  26.2990113  72.8825993  23.0494083  27.0750113  72.9405993  23.1404083
  35.1350113  69.9295993  37.7774083  34.6100113  70.3885993  38.3014083
  34.7740113  69.1345993  37.7714083  35.0040113  69.8795993  37.8534083
  20.6420113  68.7775993  29.6814083  20.6860113  69.1215993  28.8804083
  21.3970113  69.0145993  30.0484083  20.7600113  68.8635993  29.6174083
  33.6270113  73.4985993  37.8534083  33.7000113  73.6025993  38.7164083
  32.9930113  74.0565993  37.6324083  33.5440113  73.5965993  37.9484083
  35.8950113  73.8175993  36.2184083  36.2140113  74.6035993  36.4214083
  35.5250113  73.5475993  36.9614083  35.8880113  73.8935993  36.3584083
  35.6910113  72.0755993  27.4074083  34.9460113  71.7525993  27.7254083
  35.6930113  72.9015993  27.6874083  35.5810113  72.1495993  27.4954083
  38.5930113  74.3595993  38.9534083  38.5410113  74.0185993  38.1524083
  39.3300113  74.8265993  38.9314083  38.6940113  74.3785993  38.8314083
  34.6030113  68.4055993  34.8684083  35.3470113  68.8575993  34.8054083
  34.0370113  68.8755993  34.3994083  34.6300113  68.5425993  34.7904083
  26.4910113  71.2925993  34.6874083  26.6520113  70.5485993  35.1144083
  26.4460113  71.0435993  33.8524083  26.5080113  71.1455993  34.6274083
  35.8880113  66.3855993  32.5384083  35.6080113  67.2105993  32.4944083
  36.6040113  66.4385993  33.0344083  35.9530113  66.5155993  32.6054083
  28.2430113  67.1005993  34.5674083  28.9480113  67.4205993  34.1654083
  28.4840113  66.2935993  34.7944083  28.3820113  67.0285993  34.5414083
  37.3090113  72.6405993  21.3954083  37.6870113  73.3175993  20.9954083
  36.4670113  72.8645993  21.4264083  37.2400113  72.7735993  21.3404083
  24.7520113  72.1535993  30.6284083  25.1920113  72.0505993  29.8824083
  25.2970113  71.8405993  31.2334083  24.8970113  72.0925993  30.6074083
  32.7680113  71.2555993  36.2204083  32.1200113  71.7255993  36.5684083
  33.3330113  71.1665993  36.8794083  32.7560113  71.3115993  36.3694083
  32.4560113  72.7925993  32.5184083  32.7580113  73.2125993  33.2214083
  32.4920113  71.9525993  32.7504083  32.5060113  72.7305993  32.6564083
  35.0040113  72.2395993  24.7704083  35.2110113  72.0385993  25.5944083
  35.7600113  72.5075993  24.4284083  35.1460113  72.2495993  24.8414083
  28.2990113  67.1385993  30.6754083  27.4730113  66.9895993  30.9124083
  28.2590113  67.1735993  29.8044083  28.1710113  67.1215993  30.5814083
  36.0260113  68.3225993  26.2444083  35.3120113  67.8515993  26.4154083
  35.8640113  68.6635993  25.4584083  35.8970113  68.3035993  26.1534083
  20.8640113  67.5365993  36.7104083  20.7240113  68.3315993  36.3794083
  20.0780113  67.2935993  36.9994083  20.7270113  67.6185993  36.7044083
  23.9280113  70.2805993  23.9354083  24.0540113  69.9515993  23.1374083
  23.1160113  70.0315993  24.1344083  23.8270113  70.1955993  23.8474083
  38.6050113  73.4345993  36.3824083  37.7500113  73.3125993  36.5084083
  38.7580113  73.0395993  35.6194083  38.5010113  73.3575993  36.2884083
  33.1180113  74.0995993  34.9584083  32.8630113  73.3805993  35.3804083
  33.9390113  74.2155993  35.2284083  33.2020113  74.0105993  35.0604083
  23.9050113  72.2915993  34.3514083  24.2800113  72.9105993  33.8644083
  24.5790113  71.8175993  34.6364083  24.0600113  72.3135993  34.3214083
  21.6800113  70.7395993  33.6264083  21.7570113  70.5705993  32.7734083
  22.4260113  71.1455993  33.8234083  21.8010113  70.7745993  33.5294083
  37.2390113  73.3795993  24.0664083  37.3420113  73.3215993  23.2024083
  37.9800113  73.0475993  24.3844083  37.3640113  73.3225993  23.9854083
  24.2340113  68.1495993  36.0374083  24.1530113  67.3055993  36.2434083
  23.9200113  68.1935993  35.2244083  24.1760113  68.0315993  35.9474083
  36.3410113  73.5255993  33.4224083  36.3390113  72.6625993  33.5464083
  36.4080113  73.8495993  34.2294083  36.3510113  73.4455993  33.5594083
  22.5330113  71.9015993  20.4684083  21.8610113  71.9155993  21.0244083
  22.6280113  71.0535993  20.2844083  22.4480113  71.7785993  20.5234083
  32.2200113  68.3255993  37.2044083  32.3120113  69.0375993  37.6984083
  31.5830113  67.8805993  37.6014083  32.1390113  68.3645993  37.3364083
  31.2140113  68.5155993  28.0584083  30.5140113  69.0335993  28.0024083
  31.2520113  68.1355993  27.2744083  31.1160113  68.5365993  27.9344083
  34.8120113  69.0315993  30.8584083  35.6670113  69.1305993  31.0034083
  34.4430113  69.5845993  31.4234083  34.8840113  69.1285993  30.9634083
  35.1160113  74.3115993  29.3494083  35.7820113  74.8525993  29.5094083
  34.7710113  74.6225993  28.6104083  35.1630113  74.4375993  29.2644083
  26.2690113  68.2345993  32.6854083  25.4050113  68.3185993  32.7654083
  26.4890113  67.7205993  33.3544083  26.1740113  68.1715993  32.7964083
  38.2870113  66.8695993  34.0144083  38.2350113  66.8255993  34.8844083
  38.9740113  66.3665993  33.8244083  38.3810113  66.7895993  34.1144083
  30.3720113  68.9825993  31.0594083  29.6350113  68.5285993  31.1724083
  30.9430113  68.5805993  31.5824083  30.3470113  68.8555993  31.1534083
  27.8750113  73.3115993  36.2634083  27.5530113  72.7355993  35.6934083
  27.5160113  74.0665993  36.0174083  27.7750113  73.3375993  36.1434083
  28.6710113  66.5635993  20.8904083  28.7490113  66.8105993  20.0574083
  27.9280113  66.9405993  21.1484083  28.5730113  66.6555993  20.8054083
  23.4890113  68.3175993  33.3334083  23.1460113  67.5505993  33.0994083
  22.7940113  68.8415993  33.3974083  23.3360113  68.2815993  33.3084083
  32.5350113  67.1735993  30.3104083  33.2050113  67.7175993  30.4374083
  32.0320113  67.5975993  29.7374083  32.5600113  67.3165993  30.2444083
  31.8940113  72.9815993  27.8034083  32.4450113  72.3745993  28.1034083
  31.4690113  73.2445993  28.5184083  31.9130113  72.9305993  27.9524083
  22.1420113  71.6315993  27.2894083  21.7740113  71.9335993  28.0204083
  22.6760113  71.0025993  27.5734083  22.1660113  71.5835993  27.4394083
  33.8640113  74.8125993  24.3654083  33.9320113  73.9625993  24.5464083
  33.0410113  74.8985993  24.0874083  33.7520113  74.6995993  24.3514083
  37.7630113  70.7495993  38.2544083  37.5670113  71.3935993  38.8094083
  37.0410113  70.2595993  38.2464083  37.6280113  70.7725993  38.3354083
  37.6620113  71.6905993  31.2254083  36.8290113  71.9405993  31.1534083
  37.6060113  70.8505993  31.4544083  37.5310113  71.6035993  31.2484083
  26.9220113  68.6785993  36.4194083  27.1560113  68.1025993  35.8064083
  26.0800113  68.4975993  36.5604083  26.8320113  68.5665993  36.3494083
  31.3130113  66.8815993   6.7741673  31.0680113  67.3695993   6.0941673
  32.1760113  66.8085993   6.6741673  31.4040113  66.9425993   6.6591673
  31.1220113  73.7975993  11.4451673  30.5980113  74.3935993  11.8081673
  31.5190113  73.4295993  12.1291673  31.1030113  73.8315993  11.6001673
  20.7340113  71.7295993   3.4081673  19.9560113  71.8915993   3.0481673
  20.7730113  70.8585993   3.4301673  20.6250113  71.6245993   3.3581673
  33.7930113  74.8645993   8.1211673  33.8730113  74.8685993   7.2521673
  33.2090113  74.2325993   8.2701673  33.7180113  74.7715993   8.0151673
  27.7820113  67.9685993   5.9291673  27.7120113  68.6455993   5.3831673
  28.5230113  67.5805993   5.6801673  27.8810113  68.0115993   5.8111673
  22.3770113  75.1935993   7.3581673  21.9150113  74.8015993   6.7311673
  23.0770113  74.6805993   7.4501673  22.4120113  75.0605993   7.2791673
  26.8850113  70.8035993  12.7051673  27.5630113  70.8215993  12.1561673
  26.8400113  69.9675993  12.9501673  26.9780113  70.6825993  12.6601673
  24.3780113  73.2935993   7.3811673  25.1950113  73.1065993   7.6241673
  23.9010113  72.6795993   7.7771673  24.4280113  73.1755993   7.4761673
  30.6070113  72.8545993  17.5411673  29.7590113  72.7555993  17.3631673
  30.6360113  73.5995993  17.9951673  30.4860113  72.9505993  17.5821673
  24.9750113  68.3875993   6.6471673  24.6790113  68.8885993   5.9971673
  25.8420113  68.4655993   6.5901673  25.0590113  68.4735993   6.5431673
  35.1650113  65.8145993  16.6551673  35.0070113  66.5835993  16.2731673
  34.3930113  65.5945993  16.9991673  35.0270113  65.8955993  16.6501673
  27.9540113  67.5295993   8.8701673  28.0270113  68.3895993   8.9991673
  27.9160113  67.4545993   8.0021673  27.9590113  67.6455993   8.7611673
  20.8330113  72.9545993  10.3711673  20.5770113  73.7855993  10.2961673
  20.1690113  72.5715993  10.7881673  20.6970113  73.0205993  10.4221673
  23.8620113  67.7715993  10.8621673  23.3410113  67.1435993  10.5541673
  24.4530113  67.3345993  11.3331673  23.8730113  67.6135993  10.8861673
  27.1680113  69.9045993  20.1601673  27.2850113  69.4505993  19.4241673
  27.4560113  70.7025993  19.9571673  27.2280113  69.9555993  20.0211673
  38.0210113  70.4285993   7.4641673  37.6750113  71.1065993   7.8901673
  37.3850113  69.8305993   7.4801673  37.8760113  70.4405993   7.5291673
  22.9010113  69.5015993  19.1441673  22.1230113  69.1115993  19.0721673
  23.3920113  69.0895993  18.5531673  22.8580113  69.3825993  19.0461673
  29.5500113  67.1445993  18.3121673  29.7280113  66.3355993  18.0371673
  29.4070113  67.5855993  17.5731673  29.5550113  67.0905993  18.1621673
  30.1440113  72.0705993   7.0851673  30.4310113  71.8385993   6.2951673
  30.8760113  72.1495993   7.5541673  30.2940113  72.0475993   7.0381673
  30.8660113  72.4095993   2.2061673  31.1470113  73.1975993   2.4551673
  30.0900113  72.5745993   1.8431673  30.7930113  72.5505993   2.1891673
  37.6960113  68.7515993  12.8331673  38.4530113  68.8235993  12.4051673
  37.7590113  67.9785993  13.2321673  37.8170113  68.6485993  12.8281673
  20.2490113  70.0495993  16.7301673  20.2450113  70.6365993  17.3761673
  20.8430113  70.3615993  16.1731673  20.3360113  70.1825993  16.7431673
  33.2320113  68.4765993   3.0761673  33.7720113  67.7945993   3.1521673
  33.2940113  68.8745993   3.8501673  33.3210113  68.4345993   3.2021673
  21.1860113  69.6445993   5.6451673  21.0720113  68.7805993   5.6761673
  20.7110113  69.9385993   6.3151673  21.0990113  69.5605993   5.7481673
  30.4900113  70.8525993   4.3901673  29.9820113  70.1905993   4.1361673
  30.5420113  71.3565993   3.6801673  30.4230113  70.8295993   4.2481673
  30.4900113  67.7935993   4.2811673  30.0350113  67.3915993   3.6551673
  31.2630113  67.9485993   3.9061673  30.5370113  67.7575993   4.1331673
  29.0880113  70.1605993   8.8031673  29.1620113  70.7285993   8.1451673
  29.2090113  70.6525993   9.5131673  29.1160113  70.3175993   8.8111673
  23.6960113  65.9835993   7.1511673  24.2320113  66.6715993   7.1411673
  23.6990113  65.7095993   6.3231673  23.7750113  66.0445993   7.0271673
  32.8800113  70.3305993  14.6911673  32.7850113  70.6495993  15.4971673
  32.2870113  69.6915993  14.6531673  32.7780113  70.2825993  14.8051673
  34.1360113  66.2745993   7.5271673  34.1850113  65.9565993   8.3381673
  34.4590113  65.6305993   7.0341673  34.1910113  66.1325993   7.5741673
  36.6000113  70.5105993  15.8351673  37.3720113  70.2855993  16.1721673
  36.1250113  70.7275993  16.5351673  36.6440113  70.5095993  15.9881673
  24.1440113  69.7935993   8.8051673  24.4160113  69.3635993   8.0971673
  23.9680113  69.1575993   9.3761673  24.1580113  69.6365993   8.7851673
  22.2850113  70.8955993  11.8871673  23.1280113  71.1155993  11.8441673
  21.8960113  71.4685993  11.3561673  22.3520113  71.0125993  11.8021673
  34.7270113  74.0255993   2.6081673  34.5070113  74.7565993   2.1861673
  34.2790113  74.0765993   3.3551673  34.6280113  74.1405993   2.6561673
  38.9140113  68.8865993   2.0611673  38.2520113  68.3185993   2.0841673
  38.7210113  69.3985993   1.3811673  38.7880113  68.8785993   1.9641673
  28.1390113  72.5805993  20.0051673  27.6550113  73.1575993  20.4471673
  28.1110113  72.8755993  19.1841673  28.0630113  72.7095993  19.9491673
  39.2370113  73.2645993  14.6171673  39.4520113  72.4645993  14.3411673
  38.3870113  73.3245993  14.4281673  39.1430113  73.1555993  14.5481673
  36.9160113  68.4445993   4.3401673  37.6620113  68.0375993   4.5391673
  37.1790113  69.1595993   3.9151673  37.0650113  68.4905993   4.3071673
  33.3700113  70.7325993   9.4131673  33.7140113  70.8845993  10.2001673
  32.9170113  69.9945993   9.5261673  33.3540113  70.6455993   9.5461673
  27.8460113  69.9525993   3.8701673  27.8440113  69.8355993   3.0051673
  27.6650113  70.8005993   3.9621673  27.8190113  70.0605993   3.7561673
  23.7140113  73.3875993  18.3641673  23.1780113  72.8815993  18.8321673
  23.7340113  72.9975993  17.5841673  23.6370113  73.2545993  18.3181673
  24.1990113  72.7845993   3.5041673  24.0710113  72.3365993   4.2421673
  23.6170113  72.4425993   2.9521673  24.0940113  72.6675993   3.5321673
  24.3660113  74.6145993  10.1031673  23.5850113  74.5555993   9.7201673
  24.4380113  73.8625993  10.5401673  24.2610113  74.4955993  10.1111673
  24.7960113  74.3515993  13.5711673  24.8210113  73.6765993  13.0201673
  24.1500113  74.8475993  13.2591673  24.7050113  74.3245993  13.4441673
  34.6910113  72.0645993  11.9671673  34.0290113  72.3925993  12.4301673
  34.8780113  72.6985993  11.3981673  34.6210113  72.2065993  11.9511673
  31.3360113  67.9705993  15.3961673  31.4850113  67.1455993  15.1531673
  31.7150113  68.0255993  16.1801673  31.4140113  67.8565993  15.4761673
  32.8840113  70.0335993   5.4781673  33.3740113  70.7505993   5.4011673
  32.0940113  70.2945993   5.2151673  32.8400113  70.1775993   5.4281673
  29.4660113  71.5035993  11.2031673  29.9460113  72.2025993  11.4111673
  29.8390113  70.8565993  11.6541673  29.5920113  71.5115993  11.3001673
  31.6550113  74.6725993   3.4771673  31.6470113  75.3945993   2.9871673
  31.0160113  74.8075993   4.0541673  31.5600113  74.7995993   3.4901673
  26.2480113  67.0145993   3.1381673  26.3450113  66.9075993   3.9991673
  25.5400113  67.5205993   3.0731673  26.1580113  67.0735993   3.2561673
  36.9770113  66.7555993  18.5351673  36.3400113  66.3555993  18.0931673
  37.0030113  66.3245993  19.2931673  36.8870113  66.6335993  18.5811673
  20.3670113  66.9825993   5.3491673  20.4960113  66.2745993   4.8571673
  20.0000113  66.6645993   6.0741673  20.3320113  66.8305993   5.3841673
  30.0600113  74.6635993   5.8061673  30.1190113  75.3135993   6.3851673
  29.8710113  73.9675993   6.2971673  30.0410113  74.6565993   5.9641673
  24.5560113  69.1805993   2.3181673  24.0450113  69.2335993   1.6121673
  25.3400113  69.4205993   2.0221673  24.5960113  69.2235993   2.1701673
  26.3610113  71.5745993   9.2881673  27.2070113  71.3845993   9.3861673
  25.9910113  70.7975993   9.1501673  26.4310113  71.4315993   9.2821673
  21.1820113  72.9125993   5.9431673  21.6710113  72.6205993   6.6041673
  21.3110113  72.3195993   5.3161673  21.2730113  72.7815993   5.9481673
  27.1620113  72.8075993   4.1391673  27.4340113  73.6335993   4.2061673
  26.2990113  72.8825993   4.0431673  27.0750113  72.9405993   4.1341673
  35.1350113  69.9295993  18.7711673  34.6100113  70.3885993  19.2951673
  34.7740113  69.1345993  18.7651673  35.0040113  69.8795993  18.8471673
  20.6420113  68.7775993  10.6751673  20.6860113  69.1215993   9.8741673
  21.3970113  69.0145993  11.0421673  20.7600113  68.8635993  10.6111673
  33.6270113  73.4985993  18.8471673  33.7000113  73.6025993  19.7101673
  32.9930113  74.0565993  18.6261673  33.5440113  73.5965993  18.9421673
  35.8950113  73.8175993  17.2121673  36.2140113  74.6035993  17.4151673
  35.5250113  73.5475993  17.9551673  35.8880113  73.8935993  17.3521673
  35.6910113  72.0755993   8.4011673  34.9460113  71.7525993   8.7191673
  35.6930113  72.9015993   8.6811673  35.5810113  72.1495993   8.4891673
  38.5930113  74.3595993  19.9471673  38.5410113  74.0185993  19.1461673
  39.3300113  74.8265993  19.9251673  38.6940113  74.3785993  19.8251673
  34.6030113  68.4055993  15.8621673  35.3470113  68.8575993  15.7991673
  34.0370113  68.8755993  15.3931673  34.6300113  68.5425993  15.7841673
  26.4910113  71.2925993  15.6811673  26.6520113  70.5485993  16.1081673
  26.4460113  71.0435993  14.8461673  26.5080113  71.1455993  15.6211673
  35.8880113  66.3855993  13.5321673  35.6080113  67.2105993  13.4881673
  36.6040113  66.4385993  14.0281673  35.9530113  66.5155993  13.5991673
  28.2430113  67.1005993  15.5611673  28.9480113  67.4205993  15.1591673
  28.4840113  66.2935993  15.7881673  28.3820113  67.0285993  15.5351673
  37.3090113  72.6405993   2.3891673  37.6870113  73.3175993   1.9891673
  36.4670113  72.8645993   2.4201673  37.2400113  72.7735993   2.3341673
  24.7520113  72.1535993  11.6221673  25.1920113  72.0505993  10.8761673
  25.2970113  71.8405993  12.2271673  24.8970113  72.0925993  11.6011673
  32.7680113  71.2555993  17.2141673  32.1200113  71.7255993  17.5621673
  33.3330113  71.1665993  17.8731673  32.7560113  71.3115993  17.3631673
  32.4560113  72.7925993  13.5121673  32.7580113  73.2125993  14.2151673
  32.4920113  71.9525993  13.7441673  32.5060113  72.7305993  13.6501673
  35.0040113  72.2395993   5.7641673  35.2110113  72.0385993   6.5881673
  35.7600113  72.5075993   5.4221673  35.1460113  72.2495993   5.8351673
  28.2990113  67.1385993  11.6691673  27.4730113  66.9895993  11.9061673
  28.2590113  67.1735993  10.7981673  28.1710113  67.1215993  11.5751673
  36.0260113  68.3225993   7.2381673  35.3120113  67.8515993   7.4091673
  35.8640113  68.6635993   6.4521673  35.8970113  68.3035993   7.1471673
  20.8640113  67.5365993  17.7041673  20.7240113  68.3315993  17.3731673
  20.0780113  67.2935993  17.9931673  20.7270113  67.6185993  17.6981673
  23.9280113  70.2805993   4.9291673  24.0540113  69.9515993   4.1311673
  23.1160113  70.0315993   5.1281673  23.8270113  70.1955993   4.8411673
  38.6050113  73.4345993  17.3761673  37.7500113  73.3125993  17.5021673
  38.7580113  73.0395993  16.6131673  38.5010113  73.3575993  17.2821673
  33.1180113  74.0995993  15.9521673  32.8630113  73.3805993  16.3741673
  33.9390113  74.2155993  16.2221673  33.2020113  74.0105993  16.0541673
  23.9050113  72.2915993  15.3451673  24.2800113  72.9105993  14.8581673
  24.5790113  71.8175993  15.6301673  24.0600113  72.3135993  15.3151673
  21.6800113  70.7395993  14.6201673  21.7570113  70.5705993  13.7671673
  22.4260113  71.1455993  14.8171673  21.8010113  70.7745993  14.5231673
  37.2390113  73.3795993   5.0601673  37.3420113  73.3215993   4.1961673
  37.9800113  73.0475993   5.3781673  37.3640113  73.3225993   4.9791673
  24.2340113  68.1495993  17.0311673  24.1530113  67.3055993  17.2371673
  23.9200113  68.1935993  16.2181673  24.1760113  68.0315993  16.9411673
  36.3410113  73.5255993  14.4161673  36.3390113  72.6625993  14.5401673
  36.4080113  73.8495993  15.2231673  36.3510113  73.4455993  14.5531673
  32.2200113  68.3255993  18.1981673  32.3120113  69.0375993  18.6921673
  31.5830113  67.8805993  18.5951673  32.1390113  68.3645993  18.3301673
  31.2140113  68.5155993   9.0521673  30.5140113  69.0335993   8.9961673
  31.2520113  68.1355993   8.2681673  31.1160113  68.5365993   8.9281673
  34.8120113  69.0315993  11.8521673  35.6670113  69.1305993  11.9971673
  34.4430113  69.5845993  12.4171673  34.8840113  69.1285993  11.9571673
  35.1160113  74.3115993  10.3431673  35.7820113  74.8525993  10.5031673
  34.7710113  74.6225993   9.6041673  35.1630113  74.4375993  10.2581673
  26.2690113  68.2345993  13.6791673  25.4050113  68.3185993  13.7591673
  26.4890113  67.7205993  14.3481673  26.1740113  68.1715993  13.7901673
  38.2870113  66.8695993  15.0081673  38.2350113  66.8255993  15.8781673
  38.9740113  66.3665993  14.8181673  38.3810113  66.7895993  15.1081673
  30.3720113  68.9825993  12.0531673  29.6350113  68.5285993  12.1661673
  30.9430113  68.5805993  12.5761673  30.3470113  68.8555993  12.1471673
  27.8750113  73.3115993  17.2571673  27.5530113  72.7355993  16.6871673
  27.5160113  74.0665993  17.0111673  27.7750113  73.3375993  17.1371673
  23.4890113  68.3175993  14.3271673  23.1460113  67.5505993  14.0931673
  22.7940113  68.8415993  14.3911673  23.3360113  68.2815993  14.3021673
  32.5350113  67.1735993  11.3041673  33.2050113  67.7175993  11.4311673
  32.0320113  67.5975993  10.7311673  32.5600113  67.3165993  11.2381673
  31.8940113  72.9815993   8.7971673  32.4450113  72.3745993   9.0971673
  31.4690113  73.2445993   9.5121673  31.9130113  72.9305993   8.9461673
  22.1420113  71.6315993   8.2831673  21.7740113  71.9335993   9.0141673
  22.6760113  71.0025993   8.5671673  22.1660113  71.5835993   8.4331673
  33.8640113  74.8125993   5.3591673  33.9320113  73.9625993   5.5401673
  33.0410113  74.8985993   5.0811673  33.7520113  74.6995993   5.3451673
  37.7630113  70.7495993  19.2481673  37.5670113  71.3935993  19.8031673
  37.0410113  70.2595993  19.2401673  37.6280113  70.7725993  19.3291673
  37.6620113  71.6905993  12.2191673  36.8290113  71.9405993  12.1471673
  37.6060113  70.8505993  12.4481673  37.5310113  71.6035993  12.2421673
  26.9220113  68.6785993  17.4131673  27.1560113  68.1025993  16.8001673
  26.0800113  68.4975993  17.5541673  26.8320113  68.5665993  17.3431673
  31.3130113  48.4034913  63.7928903  31.0680113  48.8914913  63.1128903
  32.1760113  48.3304913  63.6928903  31.4040113  48.4644913  63.6778903
  31.1220113  55.3194913  68.4638903  30.5980113  55.9154913  68.8268903
  31.5190113  54.9514913  69.1478903  31.1030113  55.3534913  68.6188903
  20.9910113  59.4594913  63.9198903  20.5500113  59.5774913  64.6628903
  20.7080113  58.6844913  63.6348903  20.8840113  59.3624913  63.9878903
  37.2660113  62.7604913  61.4348903  37.9670113  62.2414913  61.4308903
  36.6790113  62.3154913  60.9658903  37.2830113  62.6174913  61.3648903
  20.7340113  53.2514913  60.4268903  19.9560113  53.4134913  60.0668903
  20.7730113  52.3804913  60.4488903  20.6250113  53.1464913  60.3768903
  23.8730113  58.5144913  59.0988903  23.4810113  58.1434913  58.4128903
  23.7930113  57.9164913  59.7278903  23.8030113  58.3714913  59.0898903
  33.7930113  56.3864913  65.1398903  33.8730113  56.3904913  64.2708903
  33.2090113  55.7544913  65.2888903  33.7180113  56.2934913  65.0338903
  23.5000113  60.1554913  62.9988903  24.1080113  59.9854913  63.6018903
  22.7490113  60.0154913  63.4198903  23.4790113  60.1094913  63.1498903
  27.7820113  49.4904913  62.9478903  27.7120113  50.1674913  62.4018903
  28.5230113  49.1024913  62.6988903  27.8810113  49.5334913  62.8298903
  22.3910113  63.2464913  59.0758903  22.8580113  63.3304913  58.3438903
  22.8460113  62.6684913  59.5448903  22.5270113  63.1734913  59.0368903
  20.9310113  62.1944913  70.1748903  21.0600113  61.9144913  70.9908903
  20.3210113  61.6534913  69.8658903  20.8600113  62.0734913  70.2498903
  27.5050113  59.7194913  75.2418903  27.2690113  59.7164913  76.0818903
  26.7570113  59.5714913  74.8178903  27.3590113  59.6964913  75.3028903
  22.3770113  56.7154913  64.3768903  21.9150113  56.3234913  63.7498903
  23.0770113  56.2024913  64.4688903  22.4120113  56.5824913  64.2978903
  26.8850113  52.3254913  69.7238903  27.5630113  52.3434913  69.1748903
  26.8400113  51.4894913  69.9688903  26.9780113  52.2044913  69.6788903
  27.4870113  62.9114913  72.5048903  27.6250113  63.6714913  72.0978903
  28.2780113  62.5464913  72.5318903  27.6240113  62.9704913  72.4488903
  24.3780113  54.8154913  64.3998903  25.1950113  54.6284913  64.6428903
  23.9010113  54.2014913  64.7958903  24.4280113  54.6974913  64.4948903
  28.5820113  60.7964913  67.0098903  28.9300113  59.9974913  67.0398903
  29.2470113  61.3004913  66.7548903  28.7320113  60.7524913  66.9768903
  28.6390113  60.2454913  63.2208903  28.9700113  59.6014913  63.7068903
  28.8790113  60.0344913  62.4098903  28.7230113  60.1194913  63.1728903
  30.6070113  54.3764913  74.5598903  29.7590113  54.2774913  74.3818903
  30.6360113  55.1214913  75.0138903  30.4860113  54.4724913  74.6008903
  24.9750113  49.9094913  63.6658903  24.6790113  50.4104913  63.0158903
  25.8420113  49.9874913  63.6088903  25.0590113  49.9954913  63.5618903
  35.1650113  47.3364913  73.6738903  35.0070113  48.1054913  73.2918903
  34.3930113  47.1164913  74.0178903  35.0270113  47.4174913  73.6688903
  27.9540113  49.0514913  65.8888903  28.0270113  49.9114913  66.0178903
  27.9160113  48.9764913  65.0208903  27.9590113  49.1674913  65.7798903
  32.6270113  51.9774913  58.1878903  32.1770113  52.6584913  58.4948903
  32.7410113  51.4734913  58.8908903  32.5780113  52.0034913  58.3368903
  20.8330113  54.4764913  67.3898903  20.5770113  55.3074913  67.3148903
  20.1690113  54.0934913  67.8068903  20.6970113  54.5424913  67.4408903
  20.7430113  64.1864913  65.2898903  20.1510113  64.7444913  64.9768903
  21.1690113  63.9174913  64.5778903  20.7190113  64.2284913  65.1388903
  26.5830113  62.0304913  62.7698903  26.0040113  61.7554913  63.3618903
  27.2070113  61.4214913  62.7948903  26.5900113  61.9004913  62.8608903
  32.7260113  64.3184913  60.2918903  33.4530113  64.7904913  60.3938903
  32.9550113  63.5244913  60.5718903  32.8680113  64.2714913  60.3488903
  30.8940113  64.7104913  62.2818903  31.1080113  65.2374913  62.9438903
  31.6610113  64.5364913  61.9028903  31.0390113  64.7624913  62.3238903
  23.8620113  49.2934913  67.8808903  23.3410113  48.6654913  67.5728903
  24.4530113  48.8564913  68.3518903  23.8730113  49.1354913  67.9048903
  22.2880113  62.8564913  63.2208903  22.9440113  62.2814913  63.2358903
  22.6770113  63.6054913  62.9998903  22.4430113  62.8814913  63.1908903
  38.0210113  51.9504913  64.4828903  37.6750113  52.6284913  64.9088903
  37.3850113  51.3524913  64.4988903  37.8760113  51.9624913  64.5478903
  33.3330113  64.7204913  70.5868903  34.0770113  65.1764913  70.5768903
  33.2120113  64.5064913  69.7498903  33.4250113  64.7564913  70.4618903
  22.9010113  51.0234913  76.1628903  22.1230113  50.6334913  76.0908903
  23.3920113  50.6114913  75.5718903  22.8580113  50.9044913  76.0648903
  23.1060113  61.3434913  66.7208903  23.5290113  60.9874913  66.0468903
  23.4300113  60.9214913  67.4128903  23.2160113  61.2284913  66.7238903
  26.3370113  64.1954913  66.0168903  27.1810113  64.2994913  65.8218903
  26.0400113  65.0134913  66.0848903  26.4180113  64.3314913  65.9978903
  29.5500113  48.6664913  75.3308903  29.7280113  47.8574913  75.0558903
  29.4070113  49.1074913  74.5918903  29.5550113  48.6124913  75.1808903
  30.1440113  53.5924913  64.1038903  30.4310113  53.3604913  63.3138903
  30.8760113  53.6714913  64.5728903  30.2940113  53.5694913  64.0568903
  34.9070113  65.9054913  60.6918903  35.5720113  65.7574913  60.1468903
  35.2670113  65.8224913  61.4818903  35.0590113  65.8714913  60.7278903
  25.3350113  65.4144913  71.7568903  25.6270113  65.3474913  72.5768903
  24.7090113  64.8094913  71.7118903  25.2860113  65.3154913  71.8718903
  37.6960113  50.2734913  69.8518903  38.4530113  50.3454913  69.4238903
  37.7590113  49.5004913  70.2508903  37.8170113  50.1704913  69.8468903
  20.2490113  51.5714913  73.7488903  20.2450113  52.1584913  74.3948903
  20.8430113  51.8834913  73.1918903  20.3360113  51.7044913  73.7618903
  32.5870113  61.9054913  74.2908903  32.5530113  62.2874913  75.0748903
  33.4410113  61.8634913  74.1198903  32.7080113  61.9554913  74.3818903
  29.7250113  62.1024913  59.0408903  29.5440113  62.6474913  59.6978903
  30.4910113  62.3924913  58.7398903  29.8110113  62.2264913  59.0938903
  33.2320113  49.9984913  60.0948903  33.7720113  49.3164913  60.1708903
  33.2940113  50.3964913  60.8688903  33.3210113  49.9564913  60.2208903
  21.1860113  51.1664913  62.6638903  21.0720113  50.3024913  62.6948903
  20.7110113  51.4604913  63.3338903  21.0990113  51.0824913  62.7668903
  23.3280113  63.5764913  70.8788903  22.6300113  63.0684913  71.0048903
  23.5880113  63.3714913  70.0708903  23.2630113  63.4714913  70.7778903
  30.4900113  52.3744913  61.4088903  29.9820113  51.7124913  61.1548903
  30.5420113  52.8784913  60.6988903  30.4230113  52.3514913  61.2668903
  31.0390113  65.0694913  71.7888903  31.8070113  64.9894913  71.3828903
  30.4560113  64.9484913  71.1508903  31.0660113  65.0394913  71.6348903
  30.4900113  49.3154913  61.2998903  30.0350113  48.9134913  60.6738903
  31.2630113  49.4704913  60.9248903  30.5370113  49.2794913  61.1518903
  37.3160113  65.6724913  64.6898903  36.8610113  66.3894913  64.8908903
  36.7020113  65.1014913  64.4478903  37.1580113  65.6944913  64.6838903
  29.0880113  51.6824913  65.8218903  29.1620113  52.2504913  65.1638903
  29.2090113  52.1744913  66.5318903  29.1160113  51.8394913  65.8298903
  34.3130113  61.5174913  64.2338903  35.0140113  61.0354913  64.4228903
  33.6530113  60.9484913  64.2788903  34.3190113  61.3624913  64.2678903
  24.6890113  62.4274913  73.4458903  25.5300113  62.4904913  73.2238903
  24.6520113  62.8244913  74.2218903  24.8080113  62.4954913  73.5278903
  23.6960113  47.5054913  64.1698903  24.2320113  48.1934913  64.1598903
  23.6990113  47.2314913  63.3418903  23.7750113  47.5664913  64.0458903
  26.6520113  57.9384913  68.1948903  26.8240113  57.7284913  69.0238903
  25.9970113  57.4044913  67.9788903  26.5810113  57.8284913  68.2858903
  32.8800113  51.8524913  71.7098903  32.7850113  52.1714913  72.5158903
  32.2870113  51.2134913  71.6718903  32.7780113  51.8044913  71.8238903
  27.4020113  57.8764913  70.7848903  27.4550113  58.7234913  70.9868903
  27.1170113  57.5064913  71.5218903  27.3680113  57.9464913  70.9228903
  33.5790113  58.5714913  69.9148903  33.0650113  58.1594913  70.4858903
  33.4530113  59.4154913  70.0958903  33.4850113  58.6354913  70.0258903
  34.1360113  47.7964913  64.5458903  34.1850113  47.4784913  65.3568903
  34.4590113  47.1524913  64.0528903  34.1910113  47.6544913  64.5928903
  36.6000113  52.0324913  72.8538903  37.3720113  51.8074913  73.1908903
  36.1250113  52.2494913  73.5538903  36.6440113  52.0314913  73.0068903
  24.1440113  51.3154913  65.8238903  24.4160113  50.8854913  65.1158903
  23.9680113  50.6794913  66.3948903  24.1580113  51.1584913  65.8038903
  36.8320113  59.0104913  60.0418903  36.9510113  58.7234913  60.8568903
  37.6390113  59.0314913  59.7118903  36.9680113  58.9714913  60.1138903
  23.9680113  58.7424913  65.3728903  24.8190113  58.6624913  65.1998903
  23.6110113  58.0604913  64.9608903  24.0410113  58.6294913  65.2858903
  22.7350113  65.4674913  66.6098903  22.0620113  64.9694913  66.3648903
  23.1380113  65.6524913  65.8588903  22.6950113  65.4214913  66.4628903
  22.2850113  52.4174913  68.9058903  23.1280113  52.6374913  68.8628903
  21.8960113  52.9904913  68.3748903  22.3520113  52.5344913  68.8208903
  39.0660113  63.5194913  74.2958903  38.3840113  63.8294913  73.8488903
  38.6970113  63.0614913  74.9408903  38.9100113  63.4974913  74.3248903
  34.7270113  55.5474913  59.6268903  34.5070113  56.2784913  59.2048903
  34.2790113  55.5984913  60.3738903  34.6280113  55.6624913  59.6748903
  26.3360113  58.7494913  63.6078903  27.0490113  59.2444913  63.6978903
  26.5580113  58.1824913  62.9818903  26.4740113  58.7384913  63.5288903
  20.4920113  60.3924913  66.9278903  19.8250113  60.8804913  67.2038903
  21.1720113  60.9374913  66.9568903  20.4940113  60.5444913  66.9728903
  39.2370113  54.7864913  71.6358903  39.4520113  53.9864913  71.3598903
  38.3870113  54.8464913  71.4468903  39.1430113  54.6774913  71.5668903
  20.5580113  57.0764913  62.0308903  20.3730113  56.2374913  62.1828903
  21.2170113  57.0404913  61.4608903  20.6280113  56.9474913  61.9688903
  30.8590113  62.4524913  65.9348903  30.3360113  63.0864913  65.6418903
  31.1690113  62.0884913  65.2058903  30.8270113  62.4924913  65.7838903
  20.7300113  61.2404913  61.6058903  21.2820113  61.8094913  61.9698903
  20.4980113  60.7254913  62.2708903  20.7770113  61.2484913  61.7578903
  24.9340113  60.2404913  68.6948903  25.4010113  60.5294913  69.3728903
  25.5060113  59.7624913  68.2408903  25.0880113  60.2124913  68.7278903
  33.3700113  52.2544913  66.4318903  33.7140113  52.4064913  67.2188903
  32.9170113  51.5164913  66.5448903  33.3540113  52.1674913  66.5648903
  20.5600113  59.6894913  59.2338903  21.3160113  59.2574913  59.2918903
  20.5750113  60.2214913  59.9248903  20.6740113  59.7044913  59.3448903
  21.5000113  57.9104913  67.2388903  21.9310113  57.7814913  66.4918903
  21.2950113  58.7584913  67.2128903  21.5330113  58.0164913  67.1248903
  27.8460113  51.4744913  60.8888903  27.8440113  51.3574913  60.0238903
  27.6650113  52.3224913  60.9808903  27.8190113  51.5824913  60.7748903
  36.9000113  63.9014913  72.3858903  36.2290113  64.4154913  72.6038903
  36.9630113  64.0014913  71.5218903  36.8100113  63.9924913  72.2908903
  25.5840113  61.4264913  65.5208903  25.7100113  62.2694913  65.7078903
  26.2520113  61.0274913  65.9168903  25.7020113  61.4924913  65.6068903
  23.7140113  54.9094913  75.3828903  23.1780113  54.4034913  75.8508903
  23.7340113  54.5194913  74.6028903  23.6370113  54.7764913  75.3368903
  24.1990113  54.3064913  60.5228903  24.0710113  53.8584913  61.2608903
  23.6170113  53.9644913  59.9708903  24.0940113  54.1894913  60.5508903
  24.3660113  56.1364913  67.1218903  23.5850113  56.0774913  66.7388903
  24.4380113  55.3844913  67.5588903  24.2610113  56.0174913  67.1298903
  24.7960113  55.8734913  70.5898903  24.8210113  55.1984913  70.0388903
  24.1500113  56.3694913  70.2778903  24.7050113  55.8464913  70.4628903
  34.6910113  53.5864913  68.9858903  34.0290113  53.9144913  69.4488903
  34.8780113  54.2204913  68.4168903  34.6210113  53.7284913  68.9698903
  28.8960113  64.6504913  69.9818903  28.6190113  64.0094913  69.4588903
  28.6880113  65.3764913  69.5438903  28.8250113  64.6634913  69.8398903
  31.3360113  49.4924913  72.4148903  31.4850113  48.6674913  72.1718903
  31.7150113  49.5474913  73.1988903  31.4140113  49.3784913  72.4948903
  32.8840113  51.5554913  62.4968903  33.3740113  52.2724913  62.4198903
  32.0940113  51.8164913  62.2338903  32.8400113  51.6994913  62.4468903
  22.5950113  57.2284913  76.1488903  22.5580113  57.7294913  75.4348903
  22.9260113  56.4764913  75.8538903  22.6380113  57.1904913  75.9998903
  34.1980113  59.4334913  74.4068903  34.6820113  60.1514913  74.5048903
  34.5920113  59.0064913  73.7558903  34.3280113  59.4764913  74.3248903
  28.4940113  62.2784913  75.5838903  28.8480113  62.1004913  76.3608903
  28.0580113  61.5494913  75.3848903  28.4820113  62.1444913  75.6698903
  29.4660113  53.0254913  68.2218903  29.9460113  53.7244913  68.4298903
  29.8390113  52.3784913  68.6728903  29.5920113  53.0334913  68.3188903
  31.6550113  56.1944913  60.4958903  31.6470113  56.9164913  60.0058903
  31.0160113  56.3294913  61.0728903  31.5600113  56.3214913  60.5088903
  36.6270113  60.0644913  64.4768903  36.9830113  59.7144913  65.1918903
  36.6190113  59.4034913  63.9068903  36.6790113  59.9144913  64.4978903
  32.6720113  63.1304913  68.3208903  32.0690113  62.8344913  67.7638903
  33.2170113  63.5824913  67.8118903  32.6630113  63.1534913  68.1628903
  32.6850113  59.9814913  67.7208903  31.8880113  60.2054913  67.9948903
  32.9430113  59.3874913  68.3058903  32.6050113  59.9264913  67.8478903
  26.5770113  64.7934913  62.1688903  26.4300113  64.0174913  62.5398903
  27.2660113  64.6464913  61.6538903  26.6570113  64.6564913  62.1478903
  26.2480113  48.5364913  60.1568903  26.3450113  48.4294913  61.0178903
  25.5400113  49.0424913  60.0918903  26.1580113  48.5954913  60.2748903
  28.8690113  64.3094913  60.5708903  29.4910113  64.4724913  61.1608903
  28.9050113  65.0004913  60.0388903  28.9660113  64.4354913  60.5798903
  35.9450113  57.9794913  72.5668903  36.0000113  58.1044913  71.7048903
  36.6980113  58.2994913  72.8688903  36.0640113  58.0444913  72.4838903
  36.9770113  48.2774913  75.5538903  36.3400113  47.8774913  75.1118903
  37.0030113  47.8464913  76.3118903  36.8870113  48.1554913  75.5998903
  23.3700113  56.8434913  61.3998903  23.6940113  56.0644913  61.1778903
  24.0160113  57.2114913  61.8548903  23.5130113  56.7824913  61.4338903
  31.6760113  57.7854913  72.1668903  31.5210113  58.3954913  72.7708903
  32.2100113  57.2274913  72.5728903  31.7320113  57.7934913  72.3158903
  20.3670113  48.5044913  62.3678903  20.4960113  47.7964913  61.8758903
  20.0000113  48.1864913  63.0928903  20.3320113  48.3524913  62.4028903
  30.0600113  56.1854913  62.8248903  30.1190113  56.8354913  63.4038903
  29.8710113  55.4894913  63.3158903  30.0410113  56.1784913  62.9828903
  35.2860113  60.5144913  68.6938903  34.8070113  60.8124913  68.0278903
  34.9300113  59.7384913  68.8718903  35.1630113  60.4434913  68.6218903
  24.5560113  50.7024913  59.3368903  24.0450113  50.7554913  58.6308903
  25.3400113  50.9424913  59.0408903  24.5960113  50.7454913  59.1888903
  29.2830113  58.2324913  67.2558903  28.4360113  58.0384913  67.3368903
  29.6070113  58.0674913  68.0488903  29.2050113  58.1794913  67.3848903
  26.0350113  64.9624913  58.1418903  26.4740113  64.2654913  58.4298903
  26.2420113  65.5864913  58.7148903  26.1310113  64.9514913  58.2688903
  23.1310113  57.9254913  69.5718903  23.8530113  58.4134913  69.5348903
  22.8610113  57.8954913  68.7428903  23.1980113  57.9934913  69.4438903
  26.3610113  53.0964913  66.3068903  27.2070113  52.9064913  66.4048903
  25.9910113  52.3194913  66.1688903  26.4310113  52.9534913  66.3008903
  38.9780113  64.6804913  60.6338903  39.6720113  64.2134913  60.3858903
  38.4390113  64.0824913  60.9708903  39.0010113  64.5224913  60.6468903
  21.1820113  54.4344913  62.9618903  21.6710113  54.1424913  63.6228903
  21.3110113  53.8414913  62.3348903  21.2730113  54.3034913  62.9668903
  36.2170113  57.4564913  69.8128903  36.2100113  56.6804913  70.2108903
  35.3760113  57.6904913  69.8058903  36.0920113  57.3764913  69.8708903
  25.7070113  55.8684913  58.4478903  25.0970113  55.4634913  58.9218903
  25.3210113  55.9864913  57.6748903  25.5600113  55.8254913  58.4038903
  22.5260113  58.9774913  73.8498903  22.1050113  58.4594913  73.2888903
  22.1740113  59.7634913  73.7068903  22.4120113  59.0174913  73.7458903
  37.4730113  57.5274913  67.2498903  37.1870113  57.9284913  67.9698903
  38.3330113  57.4654913  67.3768903  37.5580113  57.5774913  67.3748903
  27.1620113  54.3294913  61.1578903  27.4340113  55.1554913  61.2248903
  26.2990113  54.4044913  61.0618903  27.0750113  54.4624913  61.1528903
  35.1350113  51.4514913  75.7898903  34.6100113  51.9104913  76.3138903
  34.7740113  50.6564913  75.7838903  35.0040113  51.4014913  75.8658903
  20.6420113  50.2994913  67.6938903  20.6860113  50.6434913  66.8928903
  21.3970113  50.5364913  68.0608903  20.7600113  50.3854913  67.6298903
  38.6040113  63.1604913  67.7788903  38.8940113  63.4174913  66.9978903
  39.2990113  63.2564913  68.2978903  38.7500113  63.2124913  67.7398903
  33.6270113  55.0204913  75.8658903  33.7000113  55.1244913  76.7288903
  32.9930113  55.5784913  75.6448903  33.5440113  55.1184913  75.9608903
  35.8950113  55.3394913  74.2308903  36.2140113  56.1254913  74.4338903
  35.5250113  55.0694913  74.9738903  35.8880113  55.4154913  74.3708903
  35.2090113  61.7634913  59.7608903  35.5430113  60.9574913  59.7958903
  34.4540113  61.6914913  60.1908903  35.1470113  61.6334913  59.8298903
  35.6910113  53.5974913  65.4198903  34.9460113  53.2744913  65.7378903
  35.6930113  54.4234913  65.6998903  35.5810113  53.6714913  65.5078903
  38.1310113  59.5574913  73.1718903  38.7590113  59.0084913  72.9158903
  38.0700113  60.1224913  72.5098903  38.2150113  59.5604913  73.0358903
  32.5830113  59.6384913  59.1638903  33.2670113  59.1244913  58.9948903
  32.1660113  59.6844913  58.3988903  32.6220113  59.5694913  59.0258903
  27.2650113  60.7884913  70.4678903  26.9670113  61.3804913  71.0348903
  27.3200113  61.2304913  69.7188903  27.2290113  60.9414913  70.4408903
  25.2440113  59.7384913  73.8658903  24.4380113  59.4484913  74.0328903
  25.1550113  60.6064913  73.8718903  25.1120113  59.8234913  73.8908903
  29.7810113  57.2114913  69.9588903  30.2570113  57.5854913  70.5868903
  28.9580113  57.3454913  70.2178903  29.7300113  57.2864913  70.0898903
  26.4910113  52.8144913  72.6998903  26.6520113  52.0704913  73.1268903
  26.4460113  52.5654913  71.8648903  26.5080113  52.6674913  72.6398903
  29.0450113  64.6044913  65.1868903  29.5910113  65.2834913  65.2408903
  28.6950113  64.6864913  64.3918903  29.0740113  64.7174913  65.0768903
  35.8880113  47.9074913  70.5508903  35.6080113  48.7324913  70.5068903
  36.6040113  47.9604913  71.0468903  35.9530113  48.0374913  70.6178903
  28.2430113  48.6224913  72.5798903  28.9480113  48.9424913  72.1778903
  28.4840113  47.8154913  72.8068903  28.3820113  48.5504913  72.5538903
  27.2280113  62.8324913  68.5758903  26.6040113  63.4144913  68.3938903
  27.4760113  62.5464913  67.7898903  27.1720113  62.8764913  68.4328903
  31.5370113  59.4664913  75.5648903  32.2940113  59.7524913  75.2388903
  30.9900113  59.5184913  74.8868903  31.5680113  59.5164913  75.4158903
  35.4460113  62.0164913  74.0688903  35.7920113  62.2864913  74.8228903
  35.7400113  62.5984913  73.4888903  35.5410113  62.1424913  74.0948903
  28.8220113  57.6084913  58.4908903  28.0170113  57.4314913  58.2058903
  28.7890113  58.4594913  58.6828903  28.6980113  57.7074913  58.4778903
  24.7520113  53.6754913  68.6408903  25.1920113  53.5724913  67.8948903
  25.2970113  53.3624913  69.2458903  24.8970113  53.6144913  68.6198903
  32.7680113  52.7774913  74.2328903  32.1200113  53.2474913  74.5808903
  33.3330113  52.6884913  74.8918903  32.7560113  52.8334913  74.3818903
  32.4560113  54.3144913  70.5308903  32.7580113  54.7344913  71.2338903
  32.4920113  53.4744913  70.7628903  32.5060113  54.2524913  70.6688903
  29.8810113  64.4814913  74.4558903  30.3590113  63.8814913  74.0398903
  29.5300113  64.0384913  75.1208903  29.9000113  64.3274913  74.4928903
  35.0040113  53.7614913  62.7828903  35.2110113  53.5604913  63.6068903
  35.7600113  54.0294913  62.4408903  35.1460113  53.7714913  62.8538903
  28.2990113  48.6604913  68.6878903  27.4730113  48.5114913  68.9248903
  28.2590113  48.6954913  67.8168903  28.1710113  48.6434913  68.5938903
  36.0260113  49.8444913  64.2568903  35.3120113  49.3734913  64.4278903
  35.8640113  50.1854913  63.4708903  35.8970113  49.8254913  64.1658903
  36.4690113  57.7884913  62.6368903  36.9450113  57.0594913  62.5888903
  35.6480113  57.5024913  62.5608903  36.4180113  57.6384913  62.6178903
  29.9400113  59.7004913  73.4758903  29.1450113  59.6364913  73.8268903
  30.0110113  60.5474913  73.2808903  29.8330113  59.8154913  73.4988903
  20.8640113  49.0584913  74.7228903  20.7240113  49.8534913  74.3918903
  20.0780113  48.8154913  75.0118903  20.7270113  49.1404913  74.7168903
  25.7700113  65.9074913  68.7928903  25.7810113  65.9664913  69.6628903
  25.3450113  65.1604913  68.6428903  25.7090113  65.8054913  68.8988903
  23.9280113  51.8024913  61.9478903  24.0540113  51.4734913  61.1498903
  23.1160113  51.5534913  62.1468903  23.8270113  51.7174913  61.8598903
  32.6850113  58.9554913  64.9918903  32.7610113  59.2964913  65.7908903
  32.8540113  58.1084913  65.1128903  32.7210113  58.8804913  65.1278903
  30.2070113  58.2294913  64.5568903  29.9090113  57.9144913  65.3138903
  30.9020113  58.7024913  64.7918903  30.2660113  58.2524913  64.7038903
  30.4290113  62.3474913  72.5838903  31.1160113  62.2334913  73.1088903
  30.5630113  63.1384913  72.2398903  30.5500113  62.4474913  72.6108903
  38.6050113  54.9564913  74.3948903  37.7500113  54.8344913  74.5208903
  38.7580113  54.5614913  73.6318903  38.5010113  54.8794913  74.3008903
  33.1180113  55.6214913  72.9708903  32.8630113  54.9024913  73.3928903
  33.9390113  55.7374913  73.2408903  33.2020113  55.5324913  73.0728903
  22.5340113  65.4054913  74.2348903  21.8800113  64.8364913  74.3328903
  22.1590113  66.1784913  74.3858903  22.3820113  65.4354913  74.2718903
  31.0520113  56.8114913  76.1578903  31.3750113  57.4974913  75.7258903
  30.3480113  57.1344913  76.5598903  30.9950113  56.9604913  76.1528903
  34.1360113  65.1854913  67.0868903  33.6850113  65.8284913  67.4658903
  34.8440113  65.1064913  67.5918903  34.1740113  65.2684913  67.2178903
  30.8370113  60.2754913  70.0168903  30.1430113  60.6774913  70.3598903
  31.5140113  60.7084913  70.3558903  30.8340113  60.3984913  70.1178903
  23.9050113  53.8134913  72.3638903  24.2800113  54.4324913  71.8768903
  24.5790113  53.3394913  72.6488903  24.0600113  53.8354913  72.3338903
  21.6800113  52.2614913  71.6388903  21.7570113  52.0924913  70.7858903
  22.4260113  52.6674913  71.8358903  21.8010113  52.2964913  71.5418903
  24.2340113  49.6714913  74.0498903  24.1530113  48.8274913  74.2558903
  23.9200113  49.7154913  73.2368903  24.1760113  49.5534913  73.9598903
  31.1590113  61.8664913  63.1858903  30.9540113  62.6994913  63.0268903
  30.3840113  61.4844913  63.3078903  31.0140113  61.9334913  63.1808903
  36.3410113  55.0474913  71.4348903  36.3390113  54.1844913  71.5588903
  36.4080113  55.3714913  72.2418903  36.3510113  54.9674913  71.5718903
  21.0770113  57.4874913  71.8628903  21.3970113  57.7064913  71.0818903
  20.9770113  56.6224913  71.8078903  21.1090113  57.3924913  71.7398903
  22.5330113  53.4234913  58.4808903  21.8610113  53.4374913  59.0368903
  22.6280113  52.5754913  58.2968903  22.4480113  53.3004913  58.5358903
  32.2200113  49.8474913  75.2168903  32.3120113  50.5594913  75.7108903
  31.5830113  49.4024913  75.6138903  32.1390113  49.8864913  75.3488903
  31.2140113  50.0374913  66.0708903  30.5140113  50.5554913  66.0148903
  31.2520113  49.6574913  65.2868903  31.1160113  50.0584913  65.9468903
  26.5210113  62.1284913  59.5948903  26.9620113  62.2084913  60.3428903
  25.7160113  61.9124913  59.8528903  26.4670113  62.1084913  59.7438903
  34.8120113  50.5534913  68.8708903  35.6670113  50.6524913  69.0158903
  34.4430113  51.1064913  69.4358903  34.8840113  50.6504913  68.9758903
  25.8400113  56.7794913  73.2478903  25.4440113  57.5534913  73.3228903
  25.4340113  56.4064913  72.5718903  25.7220113  56.8384913  73.1588903
  35.1160113  55.8334913  67.3618903  35.7820113  56.3744913  67.5218903
  34.7710113  56.1444913  66.6228903  35.1630113  55.9594913  67.2768903
  35.4290113  63.8994913  63.1688903  35.2550113  63.2454913  63.7188903
  36.1420113  63.6284913  62.7458903  35.5090113  63.7624913  63.1878903
  23.8500113  61.1984913  60.1958903  23.6060113  60.8914913  60.9758903
  23.8170113  60.4954913  59.6798903  23.8090113  61.0494913  60.2348903
  26.6690113  59.4434913  58.9388903  25.8510113  59.1754913  59.0788903
  26.6410113  60.2954913  59.1238903  26.5440113  59.5304913  58.9868903
  26.2690113  49.7564913  70.6978903  25.4050113  49.8404913  70.7778903
  26.4890113  49.2424913  71.3668903  26.1740113  49.6934913  70.8088903
  38.2870113  48.3914913  72.0268903  38.2350113  48.3474913  72.8968903
  38.9740113  47.8884913  71.8368903  38.3810113  48.3114913  72.1268903
  30.3720113  50.5044913  69.0718903  29.6350113  50.0504913  69.1848903
  30.9430113  50.1024913  69.5948903  30.3470113  50.3774913  69.1658903
  33.1040113  61.3524913  70.8598903  33.3100113  61.6534913  71.6518903
  33.0430113  62.0744913  70.3748903  33.1250113  61.5034913  70.9048903
  32.6380113  65.5664913  75.1058903  31.8850113  65.5484913  74.6648903
  32.8060113  66.4184913  75.1898903  32.5520113  65.6894913  75.0528903
  27.8750113  54.8334913  74.2758903  27.5530113  54.2574913  73.7058903
  27.5160113  55.5884913  74.0298903  27.7750113  54.8594913  74.1558903
  28.6710113  48.0854913  58.9028903  28.7490113  48.3324913  58.0698903
  27.9280113  48.4624913  59.1608903  28.5730113  48.1774913  58.8178903
  37.9160113  59.9914913  70.3178903  37.8840113  59.1294913  70.1828903
  37.2230113  60.2934913  69.8838903  37.8090113  59.9084913  70.2338903
  26.3100113  65.1894913  74.5238903  26.3510113  65.3154913  75.3868903
  26.9610113  64.6294913  74.3678903  26.4120113  65.1254913  74.6288903
  36.0210113  63.2514913  69.1148903  36.5480113  63.1684913  68.4238903
  35.6300113  62.4734913  69.1688903  36.0410113  63.1244913  69.0208903
  23.4890113  49.8394913  71.3458903  23.1460113  49.0724913  71.1118903
  22.7940113  50.3634913  71.4098903  23.3360113  49.8034913  71.3208903
  32.5350113  48.6954913  68.3228903  33.2050113  49.2394913  68.4498903
  32.0320113  49.1194913  67.7498903  32.5600113  48.8384913  68.2568903
  23.9030113  63.5724913  75.8838903  24.4980113  64.0034913  76.3558903
  23.5390113  64.1964913  75.3948903  23.9370113  63.7284913  75.8808903
  22.1420113  53.1534913  65.3018903  21.7740113  53.4554913  66.0328903
  22.6760113  52.5244913  65.5858903  22.1660113  53.1054913  65.4518903
  21.8300113  61.5614913  72.8128903  21.2560113  61.9774913  73.3218903
  22.5630113  62.0264913  72.9078903  21.8540113  61.6914913  72.9018903
  33.8640113  56.3344913  62.3778903  33.9320113  55.4844913  62.5588903
  33.0410113  56.4204913  62.0998903  33.7520113  56.2214913  62.3638903
  23.6160113  64.8284913  61.5878903  23.4710113  64.9844913  60.7418903
  24.4820113  64.9074913  61.6658903  23.7230113  64.8634913  61.4748903
  27.7830113  57.2254913  61.3158903  27.8830113  57.3644913  60.4608903
  28.6010113  57.1654913  61.6118903  27.9180113  57.2364913  61.2328903
  36.9430113  65.2894913  58.7958903  37.5800113  65.1554913  59.3768903
  36.6020113  64.4954913  58.6788903  36.9870113  65.1524913  58.8638903
  37.1380113  57.7074913  75.5288903  37.7720113  57.5374913  76.1028903
  37.5550113  58.1104913  74.8768903  37.2930113  57.7424913  75.5178903
  33.0180113  61.5544913  61.1178903  32.7670113  61.4264913  61.9438903
  32.7010113  60.8594913  60.6968903  32.9340113  61.4334913  61.1778903
  37.7630113  52.2714913  76.2668903  37.5670113  52.9154913  76.8218903
  37.0410113  51.7814913  76.2588903  37.6280113  52.2944913  76.3478903
  37.6620113  53.2124913  69.2378903  36.8290113  53.4624913  69.1658903
  37.6060113  52.3724913  69.4668903  37.5310113  53.1254913  69.2608903
  26.9220113  50.2004913  74.4318903  27.1560113  49.6244913  73.8188903
  26.0800113  50.0194913  74.5728903  26.8320113  50.0884913  74.3618903
  34.5490113  57.8184913  76.8838903  35.4200113  57.7824913  76.8478903
  34.3300113  58.2384913  76.1518903  34.6460113  57.8744913  76.7708903
  24.3030113  63.6434913  68.0648903  24.2240113  62.8334913  67.7488903
  23.8590113  64.1304913  67.4928903  24.2260113  63.5954913  67.9338903
  29.9040113  59.7624913  60.5478903  30.6210113  59.4154913  60.1918903
  29.8700113  60.5624913  60.1998903  30.0050113  59.8294913  60.4438903
  21.8750113  65.8874913  71.6458903  22.3680113  65.8314913  72.3638903
  22.0630113  65.1544913  71.2108903  21.9760113  65.7704913  71.6878903
  31.1220113  55.3194913  49.4576493  30.5980113  55.9154913  49.8206493
  31.5190113  54.9514913  50.1416493  31.1030113  55.3534913  49.6126493
  20.9910113  59.4594913  44.9136493  20.5500113  59.5774913  45.6566493
  20.7080113  58.6844913  44.6286493  20.8840113  59.3624913  44.9816493
  37.2660113  62.7604913  42.4286493  37.9670113  62.2414913  42.4246493
  36.6790113  62.3154913  41.9596493  37.2830113  62.6174913  42.3586493
  20.7340113  53.2514913  41.4206493  19.9560113  53.4134913  41.0606493
  20.7730113  52.3804913  41.4426493  20.6250113  53.1464913  41.3706493
  23.8730113  58.5144913  40.0926493  23.4810113  58.1434913  39.4066493
  23.7930113  57.9164913  40.7216493  23.8030113  58.3714913  40.0836493
  23.5000113  60.1554913  43.9926493  24.1080113  59.9854913  44.5956493
  22.7490113  60.0154913  44.4136493  23.4790113  60.1094913  44.1436493
  27.7820113  49.4904913  43.9416493  27.7120113  50.1674913  43.3956493
  28.5230113  49.1024913  43.6926493  27.8810113  49.5334913  43.8236493
  22.3910113  63.2464913  40.0696493  22.8580113  63.3304913  39.3376493
  22.8460113  62.6684913  40.5386493  22.5270113  63.1734913  40.0306493
  20.9310113  62.1944913  51.1686493  21.0600113  61.9144913  51.9846493
  20.3210113  61.6534913  50.8596493  20.8600113  62.0734913  51.2436493
  27.5050113  59.7194913  56.2356493  27.2690113  59.7164913  57.0756493
  26.7570113  59.5714913  55.8116493  27.3590113  59.6964913  56.2966493
  22.3770113  56.7154913  45.3706493  21.9150113  56.3234913  44.7436493
  23.0770113  56.2024913  45.4626493  22.4120113  56.5824913  45.2916493
  26.8850113  52.3254913  50.7176493  27.5630113  52.3434913  50.1686493
  26.8400113  51.4894913  50.9626493  26.9780113  52.2044913  50.6726493
  27.4870113  62.9114913  53.4986493  27.6250113  63.6714913  53.0916493
  28.2780113  62.5464913  53.5256493  27.6240113  62.9704913  53.4426493
  28.5820113  60.7964913  48.0036493  28.9300113  59.9974913  48.0336493
  29.2470113  61.3004913  47.7486493  28.7320113  60.7524913  47.9706493
  28.6390113  60.2454913  44.2146493  28.9700113  59.6014913  44.7006493
  28.8790113  60.0344913  43.4036493  28.7230113  60.1194913  44.1666493
  30.6070113  54.3764913  55.5536493  29.7590113  54.2774913  55.3756493
  30.6360113  55.1214913  56.0076493  30.4860113  54.4724913  55.5946493
  24.9750113  49.9094913  44.6596493  24.6790113  50.4104913  44.0096493
  25.8420113  49.9874913  44.6026493  25.0590113  49.9954913  44.5556493
  27.9540113  49.0514913  46.8826493  28.0270113  49.9114913  47.0116493
  27.9160113  48.9764913  46.0146493  27.9590113  49.1674913  46.7736493
  20.8330113  54.4764913  48.3836493  20.5770113  55.3074913  48.3086493
  20.1690113  54.0934913  48.8006493  20.6970113  54.5424913  48.4346493
  20.7430113  64.1864913  46.2836493  20.1510113  64.7444913  45.9706493
  21.1690113  63.9174913  45.5716493  20.7190113  64.2284913  46.1326493
  26.5830113  62.0304913  43.7636493  26.0040113  61.7554913  44.3556493
  27.2070113  61.4214913  43.7886493  26.5900113  61.9004913  43.8546493
  32.7260113  64.3184913  41.2856493  33.4530113  64.7904913  41.3876493
  32.9550113  63.5244913  41.5656493  32.8680113  64.2714913  41.3426493
  30.8940113  64.7104913  43.2756493  31.1080113  65.2374913  43.9376493
  31.6610113  64.5364913  42.8966493  31.0390113  64.7624913  43.3176493
  23.8620113  49.2934913  48.8746493  23.3410113  48.6654913  48.5666493
  24.4530113  48.8564913  49.3456493  23.8730113  49.1354913  48.8986493
  27.1680113  51.4264913  58.1726493  27.2850113  50.9724913  57.4366493
  27.4560113  52.2244913  57.9696493  27.2280113  51.4774913  58.0336493
  22.2880113  62.8564913  44.2146493  22.9440113  62.2814913  44.2296493
  22.6770113  63.6054913  43.9936493  22.4430113  62.8814913  44.1846493
  33.3330113  64.7204913  51.5806493  34.0770113  65.1764913  51.5706493
  33.2120113  64.5064913  50.7436493  33.4250113  64.7564913  51.4556493
  22.9010113  51.0234913  57.1566493  22.1230113  50.6334913  57.0846493
  23.3920113  50.6114913  56.5656493  22.8580113  50.9044913  57.0586493
  23.1060113  61.3434913  47.7146493  23.5290113  60.9874913  47.0406493
  23.4300113  60.9214913  48.4066493  23.2160113  61.2284913  47.7176493
  26.3370113  64.1954913  47.0106493  27.1810113  64.2994913  46.8156493
  26.0400113  65.0134913  47.0786493  26.4180113  64.3314913  46.9916493
  29.5500113  48.6664913  56.3246493  29.7280113  47.8574913  56.0496493
  29.4070113  49.1074913  55.5856493  29.5550113  48.6124913  56.1746493
  30.1440113  53.5924913  45.0976493  30.4310113  53.3604913  44.3076493
  30.8760113  53.6714913  45.5666493  30.2940113  53.5694913  45.0506493
  34.9070113  65.9054913  41.6856493  35.5720113  65.7574913  41.1406493
  35.2670113  65.8224913  42.4756493  35.0590113  65.8714913  41.7216493
  25.3350113  65.4144913  52.7506493  25.6270113  65.3474913  53.5706493
  24.7090113  64.8094913  52.7056493  25.2860113  65.3154913  52.8656493
  20.2490113  51.5714913  54.7426493  20.2450113  52.1584913  55.3886493
  20.8430113  51.8834913  54.1856493  20.3360113  51.7044913  54.7556493
  32.5870113  61.9054913  55.2846493  32.5530113  62.2874913  56.0686493
  33.4410113  61.8634913  55.1136493  32.7080113  61.9554913  55.3756493
  29.7250113  62.1024913  40.0346493  29.5440113  62.6474913  40.6916493
  30.4910113  62.3924913  39.7336493  29.8110113  62.2264913  40.0876493
  21.1860113  51.1664913  43.6576493  21.0720113  50.3024913  43.6886493
  20.7110113  51.4604913  44.3276493  21.0990113  51.0824913  43.7606493
  23.3280113  63.5764913  51.8726493  22.6300113  63.0684913  51.9986493
  23.5880113  63.3714913  51.0646493  23.2630113  63.4714913  51.7716493
  31.0390113  65.0694913  52.7826493  31.8070113  64.9894913  52.3766493
  30.4560113  64.9484913  52.1446493  31.0660113  65.0394913  52.6286493
  37.3160113  65.6724913  45.6836493  36.8610113  66.3894913  45.8846493
  36.7020113  65.1014913  45.4416493  37.1580113  65.6944913  45.6776493
  34.3130113  61.5174913  45.2276493  35.0140113  61.0354913  45.4166493
  33.6530113  60.9484913  45.2726493  34.3190113  61.3624913  45.2616493
  24.6890113  62.4274913  54.4396493  25.5300113  62.4904913  54.2176493
  24.6520113  62.8244913  55.2156493  24.8080113  62.4954913  54.5216493
  23.6960113  47.5054913  45.1636493  24.2320113  48.1934913  45.1536493
  23.6990113  47.2314913  44.3356493  23.7750113  47.5664913  45.0396493
  26.6520113  57.9384913  49.1886493  26.8240113  57.7284913  50.0176493
  25.9970113  57.4044913  48.9726493  26.5810113  57.8284913  49.2796493
  27.4020113  57.8764913  51.7786493  27.4550113  58.7234913  51.9806493
  27.1170113  57.5064913  52.5156493  27.3680113  57.9464913  51.9166493
  33.5790113  58.5714913  50.9086493  33.0650113  58.1594913  51.4796493
  33.4530113  59.4154913  51.0896493  33.4850113  58.6354913  51.0196493
  20.2230113  62.2474913  57.9896493  20.9790113  62.5964913  58.2476493
  20.4000113  61.3944913  57.9326493  20.3610113  62.1724913  58.0196493
  24.1440113  51.3154913  46.8176493  24.4160113  50.8854913  46.1096493
  23.9680113  50.6794913  47.3886493  24.1580113  51.1584913  46.7976493
  36.8320113  59.0104913  41.0356493  36.9510113  58.7234913  41.8506493
  37.6390113  59.0314913  40.7056493  36.9680113  58.9714913  41.1076493
  23.9680113  58.7424913  46.3666493  24.8190113  58.6624913  46.1936493
  23.6110113  58.0604913  45.9546493  24.0410113  58.6294913  46.2796493
  22.7350113  65.4674913  47.6036493  22.0620113  64.9694913  47.3586493
  23.1380113  65.6524913  46.8526493  22.6950113  65.4214913  47.4566493
  22.2850113  52.4174913  49.8996493  23.1280113  52.6374913  49.8566493
  21.8960113  52.9904913  49.3686493  22.3520113  52.5344913  49.8146493
  39.0660113  63.5194913  55.2896493  38.3840113  63.8294913  54.8426493
  38.6970113  63.0614913  55.9346493  38.9100113  63.4974913  55.3186493
  26.3360113  58.7494913  44.6016493  27.0490113  59.2444913  44.6916493
  26.5580113  58.1824913  43.9756493  26.4740113  58.7384913  44.5226493
  20.4920113  60.3924913  47.9216493  19.8250113  60.8804913  48.1976493
  21.1720113  60.9374913  47.9506493  20.4940113  60.5444913  47.9666493
  28.1390113  54.1024913  58.0176493  27.6550113  54.6794913  58.4596493
  28.1110113  54.3974913  57.1966493  28.0630113  54.2314913  57.9616493
  20.5580113  57.0764913  43.0246493  20.3730113  56.2374913  43.1766493
  21.2170113  57.0404913  42.4546493  20.6280113  56.9474913  42.9626493
  30.8590113  62.4524913  46.9286493  30.3360113  63.0864913  46.6356493
  31.1690113  62.0884913  46.1996493  30.8270113  62.4924913  46.7776493
  20.7300113  61.2404913  42.5996493  21.2820113  61.8094913  42.9636493
  20.4980113  60.7254913  43.2646493  20.7770113  61.2484913  42.7516493
  24.9340113  60.2404913  49.6886493  25.4010113  60.5294913  50.3666493
  25.5060113  59.7624913  49.2346493  25.0880113  60.2124913  49.7216493
  20.5600113  59.6894913  40.2276493  21.3160113  59.2574913  40.2856493
  20.5750113  60.2214913  40.9186493  20.6740113  59.7044913  40.3386493
  21.5000113  57.9104913  48.2326493  21.9310113  57.7814913  47.4856493
  21.2950113  58.7584913  48.2066493  21.5330113  58.0164913  48.1186493
  27.8460113  51.4744913  41.8826493  27.8440113  51.3574913  41.0176493
  27.6650113  52.3224913  41.9746493  27.8190113  51.5824913  41.7686493
  36.9000113  63.9014913  53.3796493  36.2290113  64.4154913  53.5976493
  36.9630113  64.0014913  52.5156493  36.8100113  63.9924913  53.2846493
  25.5840113  61.4264913  46.5146493  25.7100113  62.2694913  46.7016493
  26.2520113  61.0274913  46.9106493  25.7020113  61.4924913  46.6006493
  23.7140113  54.9094913  56.3766493  23.1780113  54.4034913  56.8446493
  23.7340113  54.5194913  55.5966493  23.6370113  54.7764913  56.3306493
  24.1990113  54.3064913  41.5166493  24.0710113  53.8584913  42.2546493
  23.6170113  53.9644913  40.9646493  24.0940113  54.1894913  41.5446493
  24.3660113  56.1364913  48.1156493  23.5850113  56.0774913  47.7326493
  24.4380113  55.3844913  48.5526493  24.2610113  56.0174913  48.1236493
  24.7960113  55.8734913  51.5836493  24.8210113  55.1984913  51.0326493
  24.1500113  56.3694913  51.2716493  24.7050113  55.8464913  51.4566493
  28.8960113  64.6504913  50.9756493  28.6190113  64.0094913  50.4526493
  28.6880113  65.3764913  50.5376493  28.8250113  64.6634913  50.8336493
  22.5950113  57.2284913  57.1426493  22.5580113  57.7294913  56.4286493
  22.9260113  56.4764913  56.8476493  22.6380113  57.1904913  56.9936493
  34.1980113  59.4334913  55.4006493  34.6820113  60.1514913  55.4986493
  34.5920113  59.0064913  54.7496493  34.3280113  59.4764913  55.3186493
  28.4940113  62.2784913  56.5776493  28.8480113  62.1004913  57.3546493
  28.0580113  61.5494913  56.3786493  28.4820113  62.1444913  56.6636493
  31.6550113  56.1944913  41.4896493  31.6470113  56.9164913  40.9996493
  31.0160113  56.3294913  42.0666493  31.5600113  56.3214913  41.5026493
  36.6270113  60.0644913  45.4706493  36.9830113  59.7144913  46.1856493
  36.6190113  59.4034913  44.9006493  36.6790113  59.9144913  45.4916493
  32.6720113  63.1304913  49.3146493  32.0690113  62.8344913  48.7576493
  33.2170113  63.5824913  48.8056493  32.6630113  63.1534913  49.1566493
  32.6850113  59.9814913  48.7146493  31.8880113  60.2054913  48.9886493
  32.9430113  59.3874913  49.2996493  32.6050113  59.9264913  48.8416493
  26.5770113  64.7934913  43.1626493  26.4300113  64.0174913  43.5336493
  27.2660113  64.6464913  42.6476493  26.6570113  64.6564913  43.1416493
  26.2480113  48.5364913  41.1506493  26.3450113  48.4294913  42.0116493
  25.5400113  49.0424913  41.0856493  26.1580113  48.5954913  41.2686493
  28.8690113  64.3094913  41.5646493  29.4910113  64.4724913  42.1546493
  28.9050113  65.0004913  41.0326493  28.9660113  64.4354913  41.5736493
  35.9450113  57.9794913  53.5606493  36.0000113  58.1044913  52.6986493
  36.6980113  58.2994913  53.8626493  36.0640113  58.0444913  53.4776493
  32.1360113  63.3284913  57.8376493  32.3000113  63.6114913  58.6466493
  32.3990113  63.9894913  57.3326493  32.1990113  63.4684913  57.8826493
  23.3700113  56.8434913  42.3936493  23.6940113  56.0644913  42.1716493
  24.0160113  57.2114913  42.8486493  23.5130113  56.7824913  42.4276493
  31.6760113  57.7854913  53.1606493  31.5210113  58.3954913  53.7646493
  32.2100113  57.2274913  53.5666493  31.7320113  57.7934913  53.3096493
  20.3670113  48.5044913  43.3616493  20.4960113  47.7964913  42.8696493
  20.0000113  48.1864913  44.0866493  20.3320113  48.3524913  43.3966493
  30.0600113  56.1854913  43.8186493  30.1190113  56.8354913  44.3976493
  29.8710113  55.4894913  44.3096493  30.0410113  56.1784913  43.9766493
  35.2860113  60.5144913  49.6876493  34.8070113  60.8124913  49.0216493
  34.9300113  59.7384913  49.8656493  35.1630113  60.4434913  49.6156493
  24.5560113  50.7024913  40.3306493  24.0450113  50.7554913  39.6246493
  25.3400113  50.9424913  40.0346493  24.5960113  50.7454913  40.1826493
  29.2830113  58.2324913  48.2496493  28.4360113  58.0384913  48.3306493
  29.6070113  58.0674913  49.0426493  29.2050113  58.1794913  48.3786493
  26.0350113  64.9624913  39.1356493  26.4740113  64.2654913  39.4236493
  26.2420113  65.5864913  39.7086493  26.1310113  64.9514913  39.2626493
  23.1310113  57.9254913  50.5656493  23.8530113  58.4134913  50.5286493
  22.8610113  57.8954913  49.7366493  23.1980113  57.9934913  50.4376493
  26.3610113  53.0964913  47.3006493  27.2070113  52.9064913  47.3986493
  25.9910113  52.3194913  47.1626493  26.4310113  52.9534913  47.2946493
  38.9780113  64.6804913  41.6276493  39.6720113  64.2134913  41.3796493
  38.4390113  64.0824913  41.9646493  39.0010113  64.5224913  41.6406493
  21.1820113  54.4344913  43.9556493  21.6710113  54.1424913  44.6166493
  21.3110113  53.8414913  43.3286493  21.2730113  54.3034913  43.9606493
  25.7070113  55.8684913  39.4416493  25.0970113  55.4634913  39.9156493
  25.3210113  55.9864913  38.6686493  25.5600113  55.8254913  39.3976493
  22.5260113  58.9774913  54.8436493  22.1050113  58.4594913  54.2826493
  22.1740113  59.7634913  54.7006493  22.4120113  59.0174913  54.7396493
  27.1620113  54.3294913  42.1516493  27.4340113  55.1554913  42.2186493
  26.2990113  54.4044913  42.0556493  27.0750113  54.4624913  42.1466493
  20.6420113  50.2994913  48.6876493  20.6860113  50.6434913  47.8866493
  21.3970113  50.5364913  49.0546493  20.7600113  50.3854913  48.6236493
  38.6040113  63.1604913  48.7726493  38.8940113  63.4174913  47.9916493
  39.2990113  63.2564913  49.2916493  38.7500113  63.2124913  48.7336493
  33.6270113  55.0204913  56.8596493  33.7000113  55.1244913  57.7226493
  32.9930113  55.5784913  56.6386493  33.5440113  55.1184913  56.9546493
  35.8950113  55.3394913  55.2246493  36.2140113  56.1254913  55.4276493
  35.5250113  55.0694913  55.9676493  35.8880113  55.4154913  55.3646493
  35.2090113  61.7634913  40.7546493  35.5430113  60.9574913  40.7896493
  34.4540113  61.6914913  41.1846493  35.1470113  61.6334913  40.8236493
  38.1310113  59.5574913  54.1656493  38.7590113  59.0084913  53.9096493
  38.0700113  60.1224913  53.5036493  38.2150113  59.5604913  54.0296493
  32.5830113  59.6384913  40.1576493  33.2670113  59.1244913  39.9886493
  32.1660113  59.6844913  39.3926493  32.6220113  59.5694913  40.0196493
  27.2650113  60.7884913  51.4616493  26.9670113  61.3804913  52.0286493
  27.3200113  61.2304913  50.7126493  27.2290113  60.9414913  51.4346493
  25.2440113  59.7384913  54.8596493  24.4380113  59.4484913  55.0266493
  25.1550113  60.6064913  54.8656493  25.1120113  59.8234913  54.8846493
  29.7810113  57.2114913  50.9526493  30.2570113  57.5854913  51.5806493
  28.9580113  57.3454913  51.2116493  29.7300113  57.2864913  51.0836493
  26.4910113  52.8144913  53.6936493  26.6520113  52.0704913  54.1206493
  26.4460113  52.5654913  52.8586493  26.5080113  52.6674913  53.6336493
  29.0450113  64.6044913  46.1806493  29.5910113  65.2834913  46.2346493
  28.6950113  64.6864913  45.3856493  29.0740113  64.7174913  46.0706493
  27.2280113  62.8324913  49.5696493  26.6040113  63.4144913  49.3876493
  27.4760113  62.5464913  48.7836493  27.1720113  62.8764913  49.4266493
  31.5370113  59.4664913  56.5586493  32.2940113  59.7524913  56.2326493
  30.9900113  59.5184913  55.8806493  31.5680113  59.5164913  56.4096493
  35.4460113  62.0164913  55.0626493  35.7920113  62.2864913  55.8166493
  35.7400113  62.5984913  54.4826493  35.5410113  62.1424913  55.0886493
  28.8220113  57.6084913  39.4846493  28.0170113  57.4314913  39.1996493
  28.7890113  58.4594913  39.6766493  28.6980113  57.7074913  39.4716493
  24.7520113  53.6754913  49.6346493  25.1920113  53.5724913  48.8886493
  25.2970113  53.3624913  50.2396493  24.8970113  53.6144913  49.6136493
  29.8810113  64.4814913  55.4496493  30.3590113  63.8814913  55.0336493
  29.5300113  64.0384913  56.1146493  29.9000113  64.3274913  55.4866493
  36.4690113  57.7884913  43.6306493  36.9450113  57.0594913  43.5826493
  35.6480113  57.5024913  43.5546493  36.4180113  57.6384913  43.6116493
  29.9400113  59.7004913  54.4696493  29.1450113  59.6364913  54.8206493
  30.0110113  60.5474913  54.2746493  29.8330113  59.8154913  54.4926493
  20.8640113  49.0584913  55.7166493  20.7240113  49.8534913  55.3856493
  20.0780113  48.8154913  56.0056493  20.7270113  49.1404913  55.7106493
  25.7700113  65.9074913  49.7866493  25.7810113  65.9664913  50.6566493
  25.3450113  65.1604913  49.6366493  25.7090113  65.8054913  49.8926493
  23.9280113  51.8024913  42.9416493  24.0540113  51.4734913  42.1436493
  23.1160113  51.5534913  43.1406493  23.8270113  51.7174913  42.8536493
  32.6850113  58.9554913  45.9856493  32.7610113  59.2964913  46.7846493
  32.8540113  58.1084913  46.1066493  32.7210113  58.8804913  46.1216493
  30.2070113  58.2294913  45.5506493  29.9090113  57.9144913  46.3076493
  30.9020113  58.7024913  45.7856493  30.2660113  58.2524913  45.6976493
  30.4290113  62.3474913  53.5776493  31.1160113  62.2334913  54.1026493
  30.5630113  63.1384913  53.2336493  30.5500113  62.4474913  53.6046493
  22.5340113  65.4054913  55.2286493  21.8800113  64.8364913  55.3266493
  22.1590113  66.1784913  55.3796493  22.3820113  65.4354913  55.2656493
  31.0520113  56.8114913  57.1516493  31.3750113  57.4974913  56.7196493
  30.3480113  57.1344913  57.5536493  30.9950113  56.9604913  57.1466493
  34.1360113  65.1854913  48.0806493  33.6850113  65.8284913  48.4596493
  34.8440113  65.1064913  48.5856493  34.1740113  65.2684913  48.2116493
  36.2140113  62.8684913  57.5906493  36.9900113  62.4784913  57.6736493
  35.7450113  62.5324913  58.2456493  36.2590113  62.7614913  57.6996493
  23.9050113  53.8134913  53.3576493  24.2800113  54.4324913  52.8706493
  24.5790113  53.3394913  53.6426493  24.0600113  53.8354913  53.3276493
  21.6800113  52.2614913  52.6326493  21.7570113  52.0924913  51.7796493
  22.4260113  52.6674913  52.8296493  21.8010113  52.2964913  52.5356493
  24.2340113  49.6714913  55.0436493  24.1530113  48.8274913  55.2496493
  23.9200113  49.7154913  54.2306493  24.1760113  49.5534913  54.9536493
  31.1590113  61.8664913  44.1796493  30.9540113  62.6994913  44.0206493
  30.3840113  61.4844913  44.3016493  31.0140113  61.9334913  44.1746493
  21.0770113  57.4874913  52.8566493  21.3970113  57.7064913  52.0756493
  20.9770113  56.6224913  52.8016493  21.1090113  57.3924913  52.7336493
  22.5330113  53.4234913  39.4746493  21.8610113  53.4374913  40.0306493
  22.6280113  52.5754913  39.2906493  22.4480113  53.3004913  39.5296493
  32.2200113  49.8474913  56.2106493  32.3120113  50.5594913  56.7046493
  31.5830113  49.4024913  56.6076493  32.1390113  49.8864913  56.3426493
  26.5210113  62.1284913  40.5886493  26.9620113  62.2084913  41.3366493
  25.7160113  61.9124913  40.8466493  26.4670113  62.1084913  40.7376493
  25.8400113  56.7794913  54.2416493  25.4440113  57.5534913  54.3166493
  25.4340113  56.4064913  53.5656493  25.7220113  56.8384913  54.1526493
  35.4290113  63.8994913  44.1626493  35.2550113  63.2454913  44.7126493
  36.1420113  63.6284913  43.7396493  35.5090113  63.7624913  44.1816493
  23.8500113  61.1984913  41.1896493  23.6060113  60.8914913  41.9696493
  23.8170113  60.4954913  40.6736493  23.8090113  61.0494913  41.2286493
  26.6690113  59.4434913  39.9326493  25.8510113  59.1754913  40.0726493
  26.6410113  60.2954913  40.1176493  26.5440113  59.5304913  39.9806493
  26.2690113  49.7564913  51.6916493  25.4050113  49.8404913  51.7716493
  26.4890113  49.2424913  52.3606493  26.1740113  49.6934913  51.8026493
  33.1040113  61.3524913  51.8536493  33.3100113  61.6534913  52.6456493
  33.0430113  62.0744913  51.3686493  33.1250113  61.5034913  51.8986493
  32.6380113  65.5664913  56.0996493  31.8850113  65.5484913  55.6586493
  32.8060113  66.4184913  56.1836493  32.5520113  65.6894913  56.0466493
  27.8750113  54.8334913  55.2696493  27.5530113  54.2574913  54.6996493
  27.5160113  55.5884913  55.0236493  27.7750113  54.8594913  55.1496493
  37.9160113  59.9914913  51.3116493  37.8840113  59.1294913  51.1766493
  37.2230113  60.2934913  50.8776493  37.8090113  59.9084913  51.2276493
  26.3100113  65.1894913  55.5176493  26.3510113  65.3154913  56.3806493
  26.9610113  64.6294913  55.3616493  26.4120113  65.1254913  55.6226493
  36.0210113  63.2514913  50.1086493  36.5480113  63.1684913  49.4176493
  35.6300113  62.4734913  50.1626493  36.0410113  63.1244913  50.0146493
  23.4890113  49.8394913  52.3396493  23.1460113  49.0724913  52.1056493
  22.7940113  50.3634913  52.4036493  23.3360113  49.8034913  52.3146493
  23.9030113  63.5724913  56.8776493  24.4980113  64.0034913  57.3496493
  23.5390113  64.1964913  56.3886493  23.9370113  63.7284913  56.8746493
  22.1420113  53.1534913  46.2956493  21.7740113  53.4554913  47.0266493
  22.6760113  52.5244913  46.5796493  22.1660113  53.1054913  46.4456493
  21.8300113  61.5614913  53.8066493  21.2560113  61.9774913  54.3156493
  22.5630113  62.0264913  53.9016493  21.8540113  61.6914913  53.8956493
  33.8640113  56.3344913  43.3716493  33.9320113  55.4844913  43.5526493
  33.0410113  56.4204913  43.0936493  33.7520113  56.2214913  43.3576493
  23.6160113  64.8284913  42.5816493  23.4710113  64.9844913  41.7356493
  24.4820113  64.9074913  42.6596493  23.7230113  64.8634913  42.4686493
  27.7830113  57.2254913  42.3096493  27.8830113  57.3644913  41.4546493
  28.6010113  57.1654913  42.6056493  27.9180113  57.2364913  42.2266493
  36.9430113  65.2894913  39.7896493  37.5800113  65.1554913  40.3706493
  36.6020113  64.4954913  39.6726493  36.9870113  65.1524913  39.8576493
  37.1380113  57.7074913  56.5226493  37.7720113  57.5374913  57.0966493
  37.5550113  58.1104913  55.8706493  37.2930113  57.7424913  56.5116493
  33.0180113  61.5544913  42.1116493  32.7670113  61.4264913  42.9376493
  32.7010113  60.8594913  41.6906493  32.9340113  61.4334913  42.1716493
  26.9220113  50.2004913  55.4256493  27.1560113  49.6244913  54.8126493
  26.0800113  50.0194913  55.5666493  26.8320113  50.0884913  55.3556493
  34.5490113  57.8184913  57.8776493  35.4200113  57.7824913  57.8416493
  34.3300113  58.2384913  57.1456493  34.6460113  57.8744913  57.7646493
  24.3030113  63.6434913  49.0586493  24.2240113  62.8334913  48.7426493
  23.8590113  64.1304913  48.4866493  24.2260113  63.5954913  48.9276493
  29.9040113  59.7624913  41.5416493  30.6210113  59.4154913  41.1856493
  29.8700113  60.5624913  41.1936493  30.0050113  59.8294913  41.4376493
  21.8750113  65.8874913  52.6396493  22.3680113  65.8314913  53.3576493
  22.0630113  65.1544913  52.2046493  21.9760113  65.7704913  52.6816493
  31.3130113  48.4034913  25.7804083  31.0680113  48.8914913  25.1004083
  32.1760113  48.3304913  25.6804083  31.4040113  48.4644913  25.6654083
  31.1220113  55.3194913  30.4514083  30.5980113  55.9154913  30.8144083
  31.5190113  54.9514913  31.1354083  31.1030113  55.3534913  30.6064083
  20.9910113  59.4594913  25.9074083  20.5500113  59.5774913  26.6504083
  20.7080113  58.6844913  25.6224083  20.8840113  59.3624913  25.9754083
  37.2660113  62.7604913  23.4224083  37.9670113  62.2414913  23.4184083
  36.6790113  62.3154913  22.9534083  37.2830113  62.6174913  23.3524083
  20.7340113  53.2514913  22.4144083  19.9560113  53.4134913  22.0544083
  20.7730113  52.3804913  22.4364083  20.6250113  53.1464913  22.3644083
  23.8730113  58.5144913  21.0864083  23.4810113  58.1434913  20.4004083
  23.7930113  57.9164913  21.7154083  23.8030113  58.3714913  21.0774083
  33.7930113  56.3864913  27.1274083  33.8730113  56.3904913  26.2584083
  33.2090113  55.7544913  27.2764083  33.7180113  56.2934913  27.0214083
  23.5000113  60.1554913  24.9864083  24.1080113  59.9854913  25.5894083
  22.7490113  60.0154913  25.4074083  23.4790113  60.1094913  25.1374083
  27.7820113  49.4904913  24.9354083  27.7120113  50.1674913  24.3894083
  28.5230113  49.1024913  24.6864083  27.8810113  49.5334913  24.8174083
  22.3910113  63.2464913  21.0634083  22.8580113  63.3304913  20.3314083
  22.8460113  62.6684913  21.5324083  22.5270113  63.1734913  21.0244083
  20.9310113  62.1944913  32.1624083  21.0600113  61.9144913  32.9784083
  20.3210113  61.6534913  31.8534083  20.8600113  62.0734913  32.2374083
  27.5050113  59.7194913  37.2294083  27.2690113  59.7164913  38.0694083
  26.7570113  59.5714913  36.8054083  27.3590113  59.6964913  37.2904083
  22.3770113  56.7154913  26.3644083  21.9150113  56.3234913  25.7374083
  23.0770113  56.2024913  26.4564083  22.4120113  56.5824913  26.2854083
  26.8850113  52.3254913  31.7114083  27.5630113  52.3434913  31.1624083
  26.8400113  51.4894913  31.9564083  26.9780113  52.2044913  31.6664083
  27.4870113  62.9114913  34.4924083  27.6250113  63.6714913  34.0854083
  28.2780113  62.5464913  34.5194083  27.6240113  62.9704913  34.4364083
  24.3780113  54.8154913  26.3874083  25.1950113  54.6284913  26.6304083
  23.9010113  54.2014913  26.7834083  24.4280113  54.6974913  26.4824083
  28.5820113  60.7964913  28.9974083  28.9300113  59.9974913  29.0274083
  29.2470113  61.3004913  28.7424083  28.7320113  60.7524913  28.9644083
  28.6390113  60.2454913  25.2084083  28.9700113  59.6014913  25.6944083
  28.8790113  60.0344913  24.3974083  28.7230113  60.1194913  25.1604083
  24.9750113  49.9094913  25.6534083  24.6790113  50.4104913  25.0034083
  25.8420113  49.9874913  25.5964083  25.0590113  49.9954913  25.5494083
  35.1650113  47.3364913  35.6614083  35.0070113  48.1054913  35.2794083
  34.3930113  47.1164913  36.0054083  35.0270113  47.4174913  35.6564083
  27.9540113  49.0514913  27.8764083  28.0270113  49.9114913  28.0054083
  27.9160113  48.9764913  27.0084083  27.9590113  49.1674913  27.7674083
  32.6270113  51.9774913  20.1754083  32.1770113  52.6584913  20.4824083
  32.7410113  51.4734913  20.8784083  32.5780113  52.0034913  20.3244083
  20.8330113  54.4764913  29.3774083  20.5770113  55.3074913  29.3024083
  20.1690113  54.0934913  29.7944083  20.6970113  54.5424913  29.4284083
  20.7430113  64.1864913  27.2774083  20.1510113  64.7444913  26.9644083
  21.1690113  63.9174913  26.5654083  20.7190113  64.2284913  27.1264083
  26.5830113  62.0304913  24.7574083  26.0040113  61.7554913  25.3494083
  27.2070113  61.4214913  24.7824083  26.5900113  61.9004913  24.8484083
  32.7260113  64.3184913  22.2794083  33.4530113  64.7904913  22.3814083
  32.9550113  63.5244913  22.5594083  32.8680113  64.2714913  22.3364083
  30.8940113  64.7104913  24.2694083  31.1080113  65.2374913  24.9314083
  31.6610113  64.5364913  23.8904083  31.0390113  64.7624913  24.3114083
  23.8620113  49.2934913  29.8684083  23.3410113  48.6654913  29.5604083
  24.4530113  48.8564913  30.3394083  23.8730113  49.1354913  29.8924083
  27.1680113  51.4264913  39.1664083  27.2850113  50.9724913  38.4304083
  27.4560113  52.2244913  38.9634083  27.2280113  51.4774913  39.0274083
  22.2880113  62.8564913  25.2084083  22.9440113  62.2814913  25.2234083
  22.6770113  63.6054913  24.9874083  22.4430113  62.8814913  25.1784083
  38.0210113  51.9504913  26.4704083  37.6750113  52.6284913  26.8964083
  37.3850113  51.3524913  26.4864083  37.8760113  51.9624913  26.5354083
  33.3330113  64.7204913  32.5744083  34.0770113  65.1764913  32.5644083
  33.2120113  64.5064913  31.7374083  33.4250113  64.7564913  32.4494083
  22.9010113  51.0234913  38.1504083  22.1230113  50.6334913  38.0784083
  23.3920113  50.6114913  37.5594083  22.8580113  50.9044913  38.0524083
  23.1060113  61.3434913  28.7084083  23.5290113  60.9874913  28.0344083
  23.4300113  60.9214913  29.4004083  23.2160113  61.2284913  28.7114083
  26.3370113  64.1954913  28.0044083  27.1810113  64.2994913  27.8094083
  26.0400113  65.0134913  28.0724083  26.4180113  64.3314913  27.9854083
  30.1440113  53.5924913  26.0914083  30.4310113  53.3604913  25.3014083
  30.8760113  53.6714913  26.5604083  30.2940113  53.5694913  26.0444083
  30.8660113  53.9314913  21.2124083  31.1470113  54.7194913  21.4614083
  30.0900113  54.0964913  20.8494083  30.7930113  54.0724913  21.1954083
  34.9070113  65.9054913  22.6794083  35.5720113  65.7574913  22.1344083
  35.2670113  65.8224913  23.4694083  35.0590113  65.8714913  22.7154083
  25.3350113  65.4144913  33.7444083  25.6270113  65.3474913  34.5644083
  24.7090113  64.8094913  33.6994083  25.2860113  65.3154913  33.8594083
  37.6960113  50.2734913  31.8394083  38.4530113  50.3454913  31.4114083
  37.7590113  49.5004913  32.2384083  37.8170113  50.1704913  31.8344083
  20.2490113  51.5714913  35.7364083  20.2450113  52.1584913  36.3824083
  20.8430113  51.8834913  35.1794083  20.3360113  51.7044913  35.7494083
  32.5870113  61.9054913  36.2784083  32.5530113  62.2874913  37.0624083
  33.4410113  61.8634913  36.1074083  32.7080113  61.9554913  36.3694083
  29.7250113  62.1024913  21.0284083  29.5440113  62.6474913  21.6854083
  30.4910113  62.3924913  20.7274083  29.8110113  62.2264913  21.0814083
  33.2320113  49.9984913  22.0824083  33.7720113  49.3164913  22.1584083
  33.2940113  50.3964913  22.8564083  33.3210113  49.9564913  22.2084083
  21.1860113  51.1664913  24.6514083  21.0720113  50.3024913  24.6824083
  20.7110113  51.4604913  25.3214083  21.0990113  51.0824913  24.7544083
  23.3280113  63.5764913  32.8664083  22.6300113  63.0684913  32.9924083
  23.5880113  63.3714913  32.0584083  23.2630113  63.4714913  32.7654083
  30.4900113  52.3744913  23.3964083  29.9820113  51.7124913  23.1424083
  30.5420113  52.8784913  22.6864083  30.4230113  52.3514913  23.2544083
  31.0390113  65.0694913  33.7764083  31.8070113  64.9894913  33.3704083
  30.4560113  64.9484913  33.1384083  31.0660113  65.0394913  33.6224083
  30.4900113  49.3154913  23.2874083  30.0350113  48.9134913  22.6614083
  31.2630113  49.4704913  22.9124083  30.5370113  49.2794913  23.1394083
  37.3160113  65.6724913  26.6774083  36.8610113  66.3894913  26.8784083
  36.7020113  65.1014913  26.4354083  37.1580113  65.6944913  26.6714083
  29.0880113  51.6824913  27.8094083  29.1620113  52.2504913  27.1514083
  29.2090113  52.1744913  28.5194083  29.1160113  51.8394913  27.8174083
  34.3130113  61.5174913  26.2214083  35.0140113  61.0354913  26.4104083
  33.6530113  60.9484913  26.2664083  34.3190113  61.3624913  26.2554083
  24.6890113  62.4274913  35.4334083  25.5300113  62.4904913  35.2114083
  24.6520113  62.8244913  36.2094083  24.8080113  62.4954913  35.5154083
  23.6960113  47.5054913  26.1574083  24.2320113  48.1934913  26.1474083
  23.6990113  47.2314913  25.3294083  23.7750113  47.5664913  26.0334083
  26.6520113  57.9384913  30.1824083  26.8240113  57.7284913  31.0114083
  25.9970113  57.4044913  29.9664083  26.5810113  57.8284913  30.2734083
  27.4020113  57.8764913  32.7724083  27.4550113  58.7234913  32.9744083
  27.1170113  57.5064913  33.5094083  27.3680113  57.9464913  32.9104083
  33.5790113  58.5714913  31.9024083  33.0650113  58.1594913  32.4734083
  33.4530113  59.4154913  32.0834083  33.4850113  58.6354913  32.0134083
  34.1360113  47.7964913  26.5334083  34.1850113  47.4784913  27.3444083
  34.4590113  47.1524913  26.0404083  34.1910113  47.6544913  26.5804083
  20.2230113  62.2474913  38.9834083  20.9790113  62.5964913  39.2414083
  20.4000113  61.3944913  38.9264083  20.3610113  62.1724913  39.0134083
  24.1440113  51.3154913  27.8114083  24.4160113  50.8854913  27.1034083
  23.9680113  50.6794913  28.3824083  24.1580113  51.1584913  27.7914083
  36.8320113  59.0104913  22.0294083  36.9510113  58.7234913  22.8444083
  37.6390113  59.0314913  21.6994083  36.9680113  58.9714913  22.1014083
  23.9680113  58.7424913  27.3604083  24.8190113  58.6624913  27.1874083
  23.6110113  58.0604913  26.9484083  24.0410113  58.6294913  27.2734083
  22.7350113  65.4674913  28.5974083  22.0620113  64.9694913  28.3524083
  23.1380113  65.6524913  27.8464083  22.6950113  65.4214913  28.4504083
  22.2850113  52.4174913  30.8934083  23.1280113  52.6374913  30.8504083
  21.8960113  52.9904913  30.3624083  22.3520113  52.5344913  30.8084083
  39.0660113  63.5194913  36.2834083  38.3840113  63.8294913  35.8364083
  38.6970113  63.0614913  36.9284083  38.9100113  63.4974913  36.3124083
  34.7270113  55.5474913  21.6144083  34.5070113  56.2784913  21.1924083
  34.2790113  55.5984913  22.3614083  34.6280113  55.6624913  21.6624083
  26.3360113  58.7494913  25.5954083  27.0490113  59.2444913  25.6854083
  26.5580113  58.1824913  24.9694083  26.4740113  58.7384913  25.5164083
  20.4920113  60.3924913  28.9154083  19.8250113  60.8804913  29.1914083
  21.1720113  60.9374913  28.9444083  20.4940113  60.5444913  28.9604083
  28.1390113  54.1024913  39.0114083  27.6550113  54.6794913  39.4534083
  28.1110113  54.3974913  38.1904083  28.0630113  54.2314913  38.9554083
  39.2370113  54.7864913  33.6234083  39.4520113  53.9864913  33.3474083
  38.3870113  54.8464913  33.4344083  39.1430113  54.6774913  33.5544083
  20.5580113  57.0764913  24.0184083  20.3730113  56.2374913  24.1704083
  21.2170113  57.0404913  23.4484083  20.6280113  56.9474913  23.9564083
  36.9160113  49.9664913  23.3464083  37.6620113  49.5594913  23.5454083
  37.1790113  50.6814913  22.9214083  37.0650113  50.0124913  23.3134083
  30.8590113  62.4524913  27.9224083  30.3360113  63.0864913  27.6294083
  31.1690113  62.0884913  27.1934083  30.8270113  62.4924913  27.7714083
  20.7300113  61.2404913  23.5934083  21.2820113  61.8094913  23.9574083
  20.4980113  60.7254913  24.2584083  20.7770113  61.2484913  23.7454083
  24.9340113  60.2404913  30.6824083  25.4010113  60.5294913  31.3604083
  25.5060113  59.7624913  30.2284083  25.0880113  60.2124913  30.7154083
  33.3700113  52.2544913  28.4194083  33.7140113  52.4064913  29.2064083
  32.9170113  51.5164913  28.5324083  33.3540113  52.1674913  28.5524083
  20.5600113  59.6894913  21.2214083  21.3160113  59.2574913  21.2794083
  20.5750113  60.2214913  21.9124083  20.6740113  59.7044913  21.3324083
  21.5000113  57.9104913  29.2264083  21.9310113  57.7814913  28.4794083
  21.2950113  58.7584913  29.2004083  21.5330113  58.0164913  29.1124083
  27.8460113  51.4744913  22.8764083  27.8440113  51.3574913  22.0114083
  27.6650113  52.3224913  22.9684083  27.8190113  51.5824913  22.7624083
  36.9000113  63.9014913  34.3734083  36.2290113  64.4154913  34.5914083
  36.9630113  64.0014913  33.5094083  36.8100113  63.9924913  34.2784083
  25.5840113  61.4264913  27.5084083  25.7100113  62.2694913  27.6954083
  26.2520113  61.0274913  27.9044083  25.7020113  61.4924913  27.5944083
  23.7140113  54.9094913  37.3704083  23.1780113  54.4034913  37.8384083
  23.7340113  54.5194913  36.5904083  23.6370113  54.7764913  37.3244083
  24.1990113  54.3064913  22.5104083  24.0710113  53.8584913  23.2484083
  23.6170113  53.9644913  21.9584083  24.0940113  54.1894913  22.5384083
  24.3660113  56.1364913  29.1094083  23.5850113  56.0774913  28.7264083
  24.4380113  55.3844913  29.5464083  24.2610113  56.0174913  29.1174083
  34.6910113  53.5864913  30.9734083  34.0290113  53.9144913  31.4364083
  34.8780113  54.2204913  30.4044083  34.6210113  53.7284913  30.9574083
  28.8960113  64.6504913  31.9694083  28.6190113  64.0094913  31.4464083
  28.6880113  65.3764913  31.5314083  28.8250113  64.6634913  31.8274083
  32.8840113  51.5554913  24.4844083  33.3740113  52.2724913  24.4074083
  32.0940113  51.8164913  24.2214083  32.8400113  51.6994913  24.4344083
  22.5950113  57.2284913  38.1364083  22.5580113  57.7294913  37.4224083
  22.9260113  56.4764913  37.8414083  22.6380113  57.1904913  37.9874083
  34.1980113  59.4334913  36.3944083  34.6820113  60.1514913  36.4924083
  34.5920113  59.0064913  35.7434083  34.3280113  59.4764913  36.3124083
  28.4940113  62.2784913  37.5714083  28.8480113  62.1004913  38.3484083
  28.0580113  61.5494913  37.3724083  28.4820113  62.1444913  37.6574083
  29.4660113  53.0254913  30.2094083  29.9460113  53.7244913  30.4174083
  29.8390113  52.3784913  30.6604083  29.5920113  53.0334913  30.3064083
  31.6550113  56.1944913  22.4834083  31.6470113  56.9164913  21.9934083
  31.0160113  56.3294913  23.0604083  31.5600113  56.3214913  22.4964083
  36.6270113  60.0644913  26.4644083  36.9830113  59.7144913  27.1794083
  36.6190113  59.4034913  25.8944083  36.6790113  59.9144913  26.4854083
  32.6720113  63.1304913  30.3084083  32.0690113  62.8344913  29.7514083
  33.2170113  63.5824913  29.7994083  32.6630113  63.1534913  30.1504083
  32.6850113  59.9814913  29.7084083  31.8880113  60.2054913  29.9824083
  32.9430113  59.3874913  30.2934083  32.6050113  59.9264913  29.8354083
  26.5770113  64.7934913  24.1564083  26.4300113  64.0174913  24.5274083
  27.2660113  64.6464913  23.6414083  26.6570113  64.6564913  24.1354083
  26.2480113  48.5364913  22.1444083  26.3450113  48.4294913  23.0054083
  25.5400113  49.0424913  22.0794083  26.1580113  48.5954913  22.2624083
  28.8690113  64.3094913  22.5584083  29.4910113  64.4724913  23.1484083
  28.9050113  65.0004913  22.0264083  28.9660113  64.4354913  22.5674083
  35.9450113  57.9794913  34.5544083  36.0000113  58.1044913  33.6924083
  36.6980113  58.2994913  34.8564083  36.0640113  58.0444913  34.4714083
  32.1360113  63.3284913  38.8314083  32.3000113  63.6114913  39.6404083
  32.3990113  63.9894913  38.3264083  32.1990113  63.4684913  38.8764083
  23.3700113  56.8434913  23.3874083  23.6940113  56.0644913  23.1654083
  24.0160113  57.2114913  23.8424083  23.5130113  56.7824913  23.4214083
  31.6760113  57.7854913  34.1544083  31.5210113  58.3954913  34.7584083
  32.2100113  57.2274913  34.5604083  31.7320113  57.7934913  34.3034083
  20.3670113  48.5044913  24.3554083  20.4960113  47.7964913  23.8634083
  20.0000113  48.1864913  25.0804083  20.3320113  48.3524913  24.3904083
  30.0600113  56.1854913  24.8124083  30.1190113  56.8354913  25.3914083
  29.8710113  55.4894913  25.3034083  30.0410113  56.1784913  24.9704083
  35.2860113  60.5144913  30.6814083  34.8070113  60.8124913  30.0154083
  34.9300113  59.7384913  30.8594083  35.1630113  60.4434913  30.6094083
  24.5560113  50.7024913  21.3244083  24.0450113  50.7554913  20.6184083
  25.3400113  50.9424913  21.0284083  24.5960113  50.7454913  21.1764083
  29.2830113  58.2324913  29.2434083  28.4360113  58.0384913  29.3244083
  29.6070113  58.0674913  30.0364083  29.2050113  58.1794913  29.3724083
  26.0350113  64.9624913  20.1294083  26.4740113  64.2654913  20.4174083
  26.2420113  65.5864913  20.7024083  26.1310113  64.9514913  20.2564083
  23.1310113  57.9254913  31.5594083  23.8530113  58.4134913  31.5224083
  22.8610113  57.8954913  30.7304083  23.1980113  57.9934913  31.4314083
  26.3610113  53.0964913  28.2944083  27.2070113  52.9064913  28.3924083
  25.9910113  52.3194913  28.1564083  26.4310113  52.9534913  28.2884083
  38.9780113  64.6804913  22.6214083  39.6720113  64.2134913  22.3734083
  38.4390113  64.0824913  22.9584083  39.0010113  64.5224913  22.6344083
  21.1820113  54.4344913  24.9494083  21.6710113  54.1424913  25.6104083
  21.3110113  53.8414913  24.3224083  21.2730113  54.3034913  24.9544083
  36.2170113  57.4564913  31.8004083  36.2100113  56.6804913  32.1984083
  35.3760113  57.6904913  31.7934083  36.0920113  57.3764913  31.8584083
  25.7070113  55.8684913  20.4354083  25.0970113  55.4634913  20.9094083
  25.3210113  55.9864913  19.6624083  25.5600113  55.8254913  20.3914083
  22.5260113  58.9774913  35.8374083  22.1050113  58.4594913  35.2764083
  22.1740113  59.7634913  35.6944083  22.4120113  59.0174913  35.7334083
  37.4730113  57.5274913  29.2374083  37.1870113  57.9284913  29.9574083
  38.3330113  57.4654913  29.3644083  37.5580113  57.5774913  29.3624083
  27.1620113  54.3294913  23.1454083  27.4340113  55.1554913  23.2124083
  26.2990113  54.4044913  23.0494083  27.0750113  54.4624913  23.1404083
  20.6420113  50.2994913  29.6814083  20.6860113  50.6434913  28.8804083
  21.3970113  50.5364913  30.0484083  20.7600113  50.3854913  29.6174083
  38.6040113  63.1604913  29.7664083  38.8940113  63.4174913  28.9854083
  39.2990113  63.2564913  30.2854083  38.7500113  63.2124913  29.7274083
  35.2090113  61.7634913  21.7484083  35.5430113  60.9574913  21.7834083
  34.4540113  61.6914913  22.1784083  35.1470113  61.6334913  21.8174083
  35.6910113  53.5974913  27.4074083  34.9460113  53.2744913  27.7254083
  35.6930113  54.4234913  27.6874083  35.5810113  53.6714913  27.4954083
  38.1310113  59.5574913  35.1594083  38.7590113  59.0084913  34.9034083
  38.0700113  60.1224913  34.4974083  38.2150113  59.5604913  35.0234083
  32.5830113  59.6384913  21.1514083  33.2670113  59.1244913  20.9824083
  32.1660113  59.6844913  20.3864083  32.6220113  59.5694913  21.0134083
  27.2650113  60.7884913  32.4554083  26.9670113  61.3804913  33.0224083
  27.3200113  61.2304913  31.7064083  27.2290113  60.9414913  32.4284083
  25.2440113  59.7384913  35.8534083  24.4380113  59.4484913  36.0204083
  25.1550113  60.6064913  35.8594083  25.1120113  59.8234913  35.8784083
  29.7810113  57.2114913  31.9464083  30.2570113  57.5854913  32.5744083
  28.9580113  57.3454913  32.2054083  29.7300113  57.2864913  32.0774083
  26.4910113  52.8144913  34.6874083  26.6520113  52.0704913  35.1144083
  26.4460113  52.5654913  33.8524083  26.5080113  52.6674913  34.6274083
  29.0450113  64.6044913  27.1744083  29.5910113  65.2834913  27.2284083
  28.6950113  64.6864913  26.3794083  29.0740113  64.7174913  27.0644083
  35.8880113  47.9074913  32.5384083  35.6080113  48.7324913  32.4944083
  36.6040113  47.9604913  33.0344083  35.9530113  48.0374913  32.6054083
  28.2430113  48.6224913  34.5674083  28.9480113  48.9424913  34.1654083
  28.4840113  47.8154913  34.7944083  28.3820113  48.5504913  34.5414083
  31.5370113  59.4664913  37.5524083  32.2940113  59.7524913  37.2264083
  30.9900113  59.5184913  36.8744083  31.5680113  59.5164913  37.4034083
  35.4460113  62.0164913  36.0564083  35.7920113  62.2864913  36.8104083
  35.7400113  62.5984913  35.4764083  35.5410113  62.1424913  36.0824083
  37.3090113  54.1624913  21.3954083  37.6870113  54.8394913  20.9954083
  36.4670113  54.3864913  21.4264083  37.2400113  54.2954913  21.3404083
  28.8220113  57.6084913  20.4784083  28.0170113  57.4314913  20.1934083
  28.7890113  58.4594913  20.6704083  28.6980113  57.7074913  20.4654083
  24.7520113  53.6754913  30.6284083  25.1920113  53.5724913  29.8824083
  25.2970113  53.3624913  31.2334083  24.8970113  53.6144913  30.6074083
  29.8810113  64.4814913  36.4434083  30.3590113  63.8814913  36.0274083
  29.5300113  64.0384913  37.1084083  29.9000113  64.3274913  36.4804083
  35.0040113  53.7614913  24.7704083  35.2110113  53.5604913  25.5944083
  35.7600113  54.0294913  24.4284083  35.1460113  53.7714913  24.8414083
  28.2990113  48.6604913  30.6754083  27.4730113  48.5114913  30.9124083
  28.2590113  48.6954913  29.8044083  28.1710113  48.6434913  30.5814083
  36.0260113  49.8444913  26.2444083  35.3120113  49.3734913  26.4154083
  35.8640113  50.1854913  25.4584083  35.8970113  49.8254913  26.1534083
  29.9400113  59.7004913  35.4634083  29.1450113  59.6364913  35.8144083
  30.0110113  60.5474913  35.2684083  29.8330113  59.8154913  35.4864083
  20.8640113  49.0584913  36.7104083  20.7240113  49.8534913  36.3794083
  20.0780113  48.8154913  36.9994083  20.7270113  49.1404913  36.7044083
  25.7700113  65.9074913  30.7804083  25.7810113  65.9664913  31.6504083
  25.3450113  65.1604913  30.6304083  25.7090113  65.8054913  30.8864083
  23.9280113  51.8024913  23.9354083  24.0540113  51.4734913  23.1374083
  23.1160113  51.5534913  24.1344083  23.8270113  51.7174913  23.8474083
  32.6850113  58.9554913  26.9794083  32.7610113  59.2964913  27.7784083
  32.8540113  58.1084913  27.1004083  32.7210113  58.8804913  27.1154083
  30.2070113  58.2294913  26.5444083  29.9090113  57.9144913  27.3014083
  30.9020113  58.7024913  26.7794083  30.2660113  58.2524913  26.6914083
  30.4290113  62.3474913  34.5714083  31.1160113  62.2334913  35.0964083
  30.5630113  63.1384913  34.2274083  30.5500113  62.4474913  34.5984083
  22.5340113  65.4054913  36.2224083  21.8800113  64.8364913  36.3204083
  22.1590113  66.1784913  36.3734083  22.3820113  65.4354913  36.2594083
  31.0520113  56.8114913  38.1454083  31.3750113  57.4974913  37.7134083
  30.3480113  57.1344913  38.5474083  30.9950113  56.9604913  38.1404083
  34.1360113  65.1854913  29.0744083  33.6850113  65.8284913  29.4534083
  34.8440113  65.1064913  29.5794083  34.1740113  65.2684913  29.2054083
  30.8370113  60.2754913  32.0044083  30.1430113  60.6774913  32.3474083
  31.5140113  60.7084913  32.3434083  30.8340113  60.3984913  32.1054083
  36.2140113  62.8684913  38.5844083  36.9900113  62.4784913  38.6674083
  35.7450113  62.5324913  39.2394083  36.2590113  62.7614913  38.6934083
  23.9050113  53.8134913  34.3514083  24.2800113  54.4324913  33.8644083
  24.5790113  53.3394913  34.6364083  24.0600113  53.8354913  34.3214083
  21.6800113  52.2614913  33.6264083  21.7570113  52.0924913  32.7734083
  22.4260113  52.6674913  33.8234083  21.8010113  52.2964913  33.5294083
  37.2390113  54.9014913  24.0664083  37.3420113  54.8434913  23.2024083
  37.9800113  54.5694913  24.3844083  37.3640113  54.8444913  23.9854083
  24.2340113  49.6714913  36.0374083  24.1530113  48.8274913  36.2434083
  23.9200113  49.7154913  35.2244083  24.1760113  49.5534913  35.9474083
  31.1590113  61.8664913  25.1734083  30.9540113  62.6994913  25.0144083
  30.3840113  61.4844913  25.2954083  31.0140113  61.9334913  25.1684083
  21.0770113  57.4874913  33.8504083  21.3970113  57.7064913  33.0694083
  20.9770113  56.6224913  33.7954083  21.1090113  57.3924913  33.7274083
  22.5330113  53.4234913  20.4684083  21.8610113  53.4374913  21.0244083
  22.6280113  52.5754913  20.2844083  22.4480113  53.3004913  20.5234083
  26.5210113  62.1284913  21.5824083  26.9620113  62.2084913  22.3304083
  25.7160113  61.9124913  21.8404083  26.4670113  62.1084913  21.7314083
  34.8120113  50.5534913  30.8584083  35.6670113  50.6524913  31.0034083
  34.4430113  51.1064913  31.4234083  34.8840113  50.6504913  30.9634083
  25.8400113  56.7794913  35.2354083  25.4440113  57.5534913  35.3104083
  25.4340113  56.4064913  34.5594083  25.7220113  56.8384913  35.1464083
  35.1160113  55.8334913  29.3494083  35.7820113  56.3744913  29.5094083
  34.7710113  56.1444913  28.6104083  35.1630113  55.9594913  29.2644083
  35.4290113  63.8994913  25.1564083  35.2550113  63.2454913  25.7064083
  36.1420113  63.6284913  24.7334083  35.5090113  63.7624913  25.1754083
  23.8500113  61.1984913  22.1834083  23.6060113  60.8914913  22.9634083
  23.8170113  60.4954913  21.6674083  23.8090113  61.0494913  22.2224083
  26.6690113  59.4434913  20.9264083  25.8510113  59.1754913  21.0664083
  26.6410113  60.2954913  21.1114083  26.5440113  59.5304913  20.9744083
  26.2690113  49.7564913  32.6854083  25.4050113  49.8404913  32.7654083
  26.4890113  49.2424913  33.3544083  26.1740113  49.6934913  32.7964083
  30.3720113  50.5044913  31.0594083  29.6350113  50.0504913  31.1724083
  30.9430113  50.1024913  31.5824083  30.3470113  50.3774913  31.1534083
  33.1040113  61.3524913  32.8474083  33.3100113  61.6534913  33.6394083
  33.0430113  62.0744913  32.3624083  33.1250113  61.5034913  32.8924083
  32.6380113  65.5664913  37.0934083  31.8850113  65.5484913  36.6524083
  32.8060113  66.4184913  37.1774083  32.5520113  65.6894913  37.0404083
  27.8750113  54.8334913  36.2634083  27.5530113  54.2574913  35.6934083
  27.5160113  55.5884913  36.0174083  27.7750113  54.8594913  36.1434083
  28.6710113  48.0854913  20.8904083  28.7490113  48.3324913  20.0574083
  27.9280113  48.4624913  21.1484083  28.5730113  48.1774913  20.8054083
  37.9160113  59.9914913  32.3054083  37.8840113  59.1294913  32.1704083
  37.2230113  60.2934913  31.8714083  37.8090113  59.9084913  32.2214083
  26.3100113  65.1894913  36.5114083  26.3510113  65.3154913  37.3744083
  26.9610113  64.6294913  36.3554083  26.4120113  65.1254913  36.6164083
  36.0210113  63.2514913  31.1024083  36.5480113  63.1684913  30.4114083
  35.6300113  62.4734913  31.1564083  36.0410113  63.1244913  31.0084083
  23.4890113  49.8394913  33.3334083  23.1460113  49.0724913  33.0994083
  22.7940113  50.3634913  33.3974083  23.3360113  49.8034913  33.3084083
  32.5350113  48.6954913  30.3104083  33.2050113  49.2394913  30.4374083
  32.0320113  49.1194913  29.7374083  32.5600113  48.8384913  30.2444083
  23.9030113  63.5724913  37.8714083  24.4980113  64.0034913  38.3434083
  23.5390113  64.1964913  37.3824083  23.9370113  63.7284913  37.8684083
  31.8940113  54.5034913  27.8034083  32.4450113  53.8964913  28.1034083
  31.4690113  54.7664913  28.5184083  31.9130113  54.4524913  27.9524083
  22.1420113  53.1534913  27.2894083  21.7740113  53.4554913  28.0204083
  22.6760113  52.5244913  27.5734083  22.1660113  53.1054913  27.4394083
  21.8300113  61.5614913  34.8004083  21.2560113  61.9774913  35.3094083
  22.5630113  62.0264913  34.8954083  21.8540113  61.6914913  34.8894083
  33.8640113  56.3344913  24.3654083  33.9320113  55.4844913  24.5464083
  33.0410113  56.4204913  24.0874083  33.7520113  56.2214913  24.3514083
  23.6160113  64.8284913  23.5754083  23.4710113  64.9844913  22.7294083
  24.4820113  64.9074913  23.6534083  23.7230113  64.8634913  23.4624083
  27.7830113  57.2254913  23.3034083  27.8830113  57.3644913  22.4484083
  28.6010113  57.1654913  23.5994083  27.9180113  57.2364913  23.2204083
  36.9430113  65.2894913  20.7834083  37.5800113  65.1554913  21.3644083
  36.6020113  64.4954913  20.6664083  36.9870113  65.1524913  20.8514083
  37.1380113  57.7074913  37.5164083  37.7720113  57.5374913  38.0904083
  37.5550113  58.1104913  36.8644083  37.2930113  57.7424913  37.5054083
  33.0180113  61.5544913  23.1054083  32.7670113  61.4264913  23.9314083
  32.7010113  60.8594913  22.6844083  32.9340113  61.4334913  23.1654083
  37.6620113  53.2124913  31.2254083  36.8290113  53.4624913  31.1534083
  37.6060113  52.3724913  31.4544083  37.5310113  53.1254913  31.2484083
  26.9220113  50.2004913  36.4194083  27.1560113  49.6244913  35.8064083
  26.0800113  50.0194913  36.5604083  26.8320113  50.0884913  36.3494083
  34.5490113  57.8184913  38.8714083  35.4200113  57.7824913  38.8354083
  34.3300113  58.2384913  38.1394083  34.6460113  57.8744913  38.7584083
  24.3030113  63.6434913  30.0524083  24.2240113  62.8334913  29.7364083
  23.8590113  64.1304913  29.4804083  24.2260113  63.5954913  29.9214083
  29.9040113  59.7624913  22.5354083  30.6210113  59.4154913  22.1794083
  29.8700113  60.5624913  22.1874083  30.0050113  59.8294913  22.4314083
  21.8750113  65.8874913  33.6334083  22.3680113  65.8314913  34.3514083
  22.0630113  65.1544913  33.1984083  21.9760113  65.7704913  33.6754083
  31.3130113  48.4034913   6.7741673  31.0680113  48.8914913   6.0941673
  32.1760113  48.3304913   6.6741673  31.4040113  48.4644913   6.6591673
  31.1220113  55.3194913  11.4451673  30.5980113  55.9154913  11.8081673
  31.5190113  54.9514913  12.1291673  31.1030113  55.3534913  11.6001673
  20.9910113  59.4594913   6.9011673  20.5500113  59.5774913   7.6441673
  20.7080113  58.6844913   6.6161673  20.8840113  59.3624913   6.9691673
  37.2660113  62.7604913   4.4161673  37.9670113  62.2414913   4.4121673
  36.6790113  62.3154913   3.9471673  37.2830113  62.6174913   4.3461673
  20.7340113  53.2514913   3.4081673  19.9560113  53.4134913   3.0481673
  20.7730113  52.3804913   3.4301673  20.6250113  53.1464913   3.3581673
  23.8730113  58.5144913   2.0801673  23.4810113  58.1434913   1.3941673
  23.7930113  57.9164913   2.7091673  23.8030113  58.3714913   2.0711673
  33.7930113  56.3864913   8.1211673  33.8730113  56.3904913   7.2521673
  33.2090113  55.7544913   8.2701673  33.7180113  56.2934913   8.0151673
  23.5000113  60.1554913   5.9801673  24.1080113  59.9854913   6.5831673
  22.7490113  60.0154913   6.4011673  23.4790113  60.1094913   6.1311673
  27.7820113  49.4904913   5.9291673  27.7120113  50.1674913   5.3831673
  28.5230113  49.1024913   5.6801673  27.8810113  49.5334913   5.8111673
  22.3910113  63.2464913   2.0571673  22.8580113  63.3304913   1.3251673
  22.8460113  62.6684913   2.5261673  22.5270113  63.1734913   2.0181673
  20.9310113  62.1944913  13.1561673  21.0600113  61.9144913  13.9721673
  20.3210113  61.6534913  12.8471673  20.8600113  62.0734913  13.2311673
  27.5050113  59.7194913  18.2231673  27.2690113  59.7164913  19.0631673
  26.7570113  59.5714913  17.7991673  27.3590113  59.6964913  18.2841673
  22.3770113  56.7154913   7.3581673  21.9150113  56.3234913   6.7311673
  23.0770113  56.2024913   7.4501673  22.4120113  56.5824913   7.2791673
  26.8850113  52.3254913  12.7051673  27.5630113  52.3434913  12.1561673
  26.8400113  51.4894913  12.9501673  26.9780113  52.2044913  12.6601673
  27.4870113  62.9114913  15.4861673  27.6250113  63.6714913  15.0791673
  28.2780113  62.5464913  15.5131673  27.6240113  62.9704913  15.4301673
  24.3780113  54.8154913   7.3811673  25.1950113  54.6284913   7.6241673
  23.9010113  54.2014913   7.7771673  24.4280113  54.6974913   7.4761673
  28.5820113  60.7964913   9.9911673  28.9300113  59.9974913  10.0211673
  29.2470113  61.3004913   9.7361673  28.7320113  60.7524913   9.9581673
  28.6390113  60.2454913   6.2021673  28.9700113  59.6014913   6.6881673
  28.8790113  60.0344913   5.3911673  28.7230113  60.1194913   6.1541673
  30.6070113  54.3764913  17.5411673  29.7590113  54.2774913  17.3631673
  30.6360113  55.1214913  17.9951673  30.4860113  54.4724913  17.5821673
  24.9750113  49.9094913   6.6471673  24.6790113  50.4104913   5.9971673
  25.8420113  49.9874913   6.5901673  25.0590113  49.9954913   6.5431673
  35.1650113  47.3364913  16.6551673  35.0070113  48.1054913  16.2731673
  34.3930113  47.1164913  16.9991673  35.0270113  47.4174913  16.6501673
  27.9540113  49.0514913   8.8701673  28.0270113  49.9114913   8.9991673
  27.9160113  48.9764913   8.0021673  27.9590113  49.1674913   8.7611673
  20.8330113  54.4764913  10.3711673  20.5770113  55.3074913  10.2961673
  20.1690113  54.0934913  10.7881673  20.6970113  54.5424913  10.4221673
  20.7430113  64.1864913   8.2711673  20.1510113  64.7444913   7.9581673
  21.1690113  63.9174913   7.5591673  20.7190113  64.2284913   8.1201673
  26.5830113  62.0304913   5.7511673  26.0040113  61.7554913   6.3431673
  27.2070113  61.4214913   5.7761673  26.5900113  61.9004913   5.8421673
  32.7260113  64.3184913   3.2731673  33.4530113  64.7904913   3.3751673
  32.9550113  63.5244913   3.5531673  32.8680113  64.2714913   3.3301673
  30.8940113  64.7104913   5.2631673  31.1080113  65.2374913   5.9251673
  31.6610113  64.5364913   4.8841673  31.0390113  64.7624913   5.3051673
  23.8620113  49.2934913  10.8621673  23.3410113  48.6654913  10.5541673
  24.4530113  48.8564913  11.3331673  23.8730113  49.1354913  10.8861673
  27.1680113  51.4264913  20.1601673  27.2850113  50.9724913  19.4241673
  27.4560113  52.2244913  19.9571673  27.2280113  51.4774913  20.0211673
  22.2880113  62.8564913   6.2021673  22.9440113  62.2814913   6.2171673
  22.6770113  63.6054913   5.9811673  22.4430113  62.8814913   6.1721673
  38.0210113  51.9504913   7.4641673  37.6750113  52.6284913   7.8901673
  37.3850113  51.3524913   7.4801673  37.8760113  51.9624913   7.5291673
  33.3330113  64.7204913  13.5681673  34.0770113  65.1764913  13.5581673
  33.2120113  64.5064913  12.7311673  33.4250113  64.7564913  13.4431673
  22.9010113  51.0234913  19.1441673  22.1230113  50.6334913  19.0721673
  23.3920113  50.6114913  18.5531673  22.8580113  50.9044913  19.0461673
  23.1060113  61.3434913   9.7021673  23.5290113  60.9874913   9.0281673
  23.4300113  60.9214913  10.3941673  23.2160113  61.2284913   9.7051673
  26.3370113  64.1954913   8.9981673  27.1810113  64.2994913   8.8031673
  26.0400113  65.0134913   9.0661673  26.4180113  64.3314913   8.9791673
  29.5500113  48.6664913  18.3121673  29.7280113  47.8574913  18.0371673
  29.4070113  49.1074913  17.5731673  29.5550113  48.6124913  18.1621673
  30.1440113  53.5924913   7.0851673  30.4310113  53.3604913   6.2951673
  30.8760113  53.6714913   7.5541673  30.2940113  53.5694913   7.0381673
  30.8660113  53.9314913   2.2061673  31.1470113  54.7194913   2.4551673
  30.0900113  54.0964913   1.8431673  30.7930113  54.0724913   2.1891673
  34.9070113  65.9054913   3.6731673  35.5720113  65.7574913   3.1281673
  35.2670113  65.8224913   4.4631673  35.0590113  65.8714913   3.7091673
  25.3350113  65.4144913  14.7381673  25.6270113  65.3474913  15.5581673
  24.7090113  64.8094913  14.6931673  25.2860113  65.3154913  14.8531673
  37.6960113  50.2734913  12.8331673  38.4530113  50.3454913  12.4051673
  37.7590113  49.5004913  13.2321673  37.8170113  50.1704913  12.8281673
  20.2490113  51.5714913  16.7301673  20.2450113  52.1584913  17.3761673
  20.8430113  51.8834913  16.1731673  20.3360113  51.7044913  16.7431673
  32.5870113  61.9054913  17.2721673  32.5530113  62.2874913  18.0561673
  33.4410113  61.8634913  17.1011673  32.7080113  61.9554913  17.3631673
  29.7250113  62.1024913   2.0221673  29.5440113  62.6474913   2.6791673
  30.4910113  62.3924913   1.7211673  29.8110113  62.2264913   2.0751673
  33.2320113  49.9984913   3.0761673  33.7720113  49.3164913   3.1521673
  33.2940113  50.3964913   3.8501673  33.3210113  49.9564913   3.2021673
  21.1860113  51.1664913   5.6451673  21.0720113  50.3024913   5.6761673
  20.7110113  51.4604913   6.3151673  21.0990113  51.0824913   5.7481673
  23.3280113  63.5764913  13.8601673  22.6300113  63.0684913  13.9861673
  23.5880113  63.3714913  13.0521673  23.2630113  63.4714913  13.7591673
  30.4900113  52.3744913   4.3901673  29.9820113  51.7124913   4.1361673
  30.5420113  52.8784913   3.6801673  30.4230113  52.3514913   4.2481673
  31.0390113  65.0694913  14.7701673  31.8070113  64.9894913  14.3641673
  30.4560113  64.9484913  14.1321673  31.0660113  65.0394913  14.6161673
  30.4900113  49.3154913   4.2811673  30.0350113  48.9134913   3.6551673
  31.2630113  49.4704913   3.9061673  30.5370113  49.2794913   4.1331673
  37.3160113  65.6724913   7.6711673  36.8610113  66.3894913   7.8721673
  36.7020113  65.1014913   7.4291673  37.1580113  65.6944913   7.6651673
  29.0880113  51.6824913   8.8031673  29.1620113  52.2504913   8.1451673
  29.2090113  52.1744913   9.5131673  29.1160113  51.8394913   8.8111673
  34.3130113  61.5174913   7.2151673  35.0140113  61.0354913   7.4041673
  33.6530113  60.9484913   7.2601673  34.3190113  61.3624913   7.2491673
  24.6890113  62.4274913  16.4271673  25.5300113  62.4904913  16.2051673
  24.6520113  62.8244913  17.2031673  24.8080113  62.4954913  16.5091673
  23.6960113  47.5054913   7.1511673  24.2320113  48.1934913   7.1411673
  23.6990113  47.2314913   6.3231673  23.7750113  47.5664913   7.0271673
  26.6520113  57.9384913  11.1761673  26.8240113  57.7284913  12.0051673
  25.9970113  57.4044913  10.9601673  26.5810113  57.8284913  11.2671673
  32.8800113  51.8524913  14.6911673  32.7850113  52.1714913  15.4971673
  32.2870113  51.2134913  14.6531673  32.7780113  51.8044913  14.8051673
  27.4020113  57.8764913  13.7661673  27.4550113  58.7234913  13.9681673
  27.1170113  57.5064913  14.5031673  27.3680113  57.9464913  13.9041673
  33.5790113  58.5714913  12.8961673  33.0650113  58.1594913  13.4671673
  33.4530113  59.4154913  13.0771673  33.4850113  58.6354913  13.0071673
  34.1360113  47.7964913   7.5271673  34.1850113  47.4784913   8.3381673
  34.4590113  47.1524913   7.0341673  34.1910113  47.6544913   7.5741673
  20.2230113  62.2474913  19.9771673  20.9790113  62.5964913  20.2351673
  20.4000113  61.3944913  19.9201673  20.3610113  62.1724913  20.0071673
  36.6000113  52.0324913  15.8351673  37.3720113  51.8074913  16.1721673
  36.1250113  52.2494913  16.5351673  36.6440113  52.0314913  15.9881673
  24.1440113  51.3154913   8.8051673  24.4160113  50.8854913   8.0971673
  23.9680113  50.6794913   9.3761673  24.1580113  51.1584913   8.7851673
  36.8320113  59.0104913   3.0231673  36.9510113  58.7234913   3.8381673
  37.6390113  59.0314913   2.6931673  36.9680113  58.9714913   3.0951673
  23.9680113  58.7424913   8.3541673  24.8190113  58.6624913   8.1811673
  23.6110113  58.0604913   7.9421673  24.0410113  58.6294913   8.2671673
  22.7350113  65.4674913   9.5911673  22.0620113  64.9694913   9.3461673
  23.1380113  65.6524913   8.8401673  22.6950113  65.4214913   9.4441673
  22.2850113  52.4174913  11.8871673  23.1280113  52.6374913  11.8441673
  21.8960113  52.9904913  11.3561673  22.3520113  52.5344913  11.8021673
  39.0660113  63.5194913  17.2771673  38.3840113  63.8294913  16.8301673
  38.6970113  63.0614913  17.9221673  38.9100113  63.4974913  17.3061673
  34.7270113  55.5474913   2.6081673  34.5070113  56.2784913   2.1861673
  34.2790113  55.5984913   3.3551673  34.6280113  55.6624913   2.6561673
  26.3360113  58.7494913   6.5891673  27.0490113  59.2444913   6.6791673
  26.5580113  58.1824913   5.9631673  26.4740113  58.7384913   6.5101673
  38.9140113  50.4084913   2.0611673  38.2520113  49.8404913   2.0841673
  38.7210113  50.9204913   1.3811673  38.7880113  50.4004913   1.9641673
  20.4920113  60.3924913   9.9091673  19.8250113  60.8804913  10.1851673
  21.1720113  60.9374913   9.9381673  20.4940113  60.5444913   9.9541673
  28.1390113  54.1024913  20.0051673  27.6550113  54.6794913  20.4471673
  28.1110113  54.3974913  19.1841673  28.0630113  54.2314913  19.9491673
  39.2370113  54.7864913  14.6171673  39.4520113  53.9864913  14.3411673
  38.3870113  54.8464913  14.4281673  39.1430113  54.6774913  14.5481673
  20.5580113  57.0764913   5.0121673  20.3730113  56.2374913   5.1641673
  21.2170113  57.0404913   4.4421673  20.6280113  56.9474913   4.9501673
  36.9160113  49.9664913   4.3401673  37.6620113  49.5594913   4.5391673
  37.1790113  50.6814913   3.9151673  37.0650113  50.0124913   4.3071673
  30.8590113  62.4524913   8.9161673  30.3360113  63.0864913   8.6231673
  31.1690113  62.0884913   8.1871673  30.8270113  62.4924913   8.7651673
  20.7300113  61.2404913   4.5871673  21.2820113  61.8094913   4.9511673
  20.4980113  60.7254913   5.2521673  20.7770113  61.2484913   4.7391673
  24.9340113  60.2404913  11.6761673  25.4010113  60.5294913  12.3541673
  25.5060113  59.7624913  11.2221673  25.0880113  60.2124913  11.7091673
  33.3700113  52.2544913   9.4131673  33.7140113  52.4064913  10.2001673
  32.9170113  51.5164913   9.5261673  33.3540113  52.1674913   9.5461673
  20.5600113  59.6894913   2.2151673  21.3160113  59.2574913   2.2731673
  20.5750113  60.2214913   2.9061673  20.6740113  59.7044913   2.3261673
  21.5000113  57.9104913  10.2201673  21.9310113  57.7814913   9.4731673
  21.2950113  58.7584913  10.1941673  21.5330113  58.0164913  10.1061673
  27.8460113  51.4744913   3.8701673  27.8440113  51.3574913   3.0051673
  27.6650113  52.3224913   3.9621673  27.8190113  51.5824913   3.7561673
  36.9000113  63.9014913  15.3671673  36.2290113  64.4154913  15.5851673
  36.9630113  64.0014913  14.5031673  36.8100113  63.9924913  15.2721673
  25.5840113  61.4264913   8.5021673  25.7100113  62.2694913   8.6891673
  26.2520113  61.0274913   8.8981673  25.7020113  61.4924913   8.5881673
  23.7140113  54.9094913  18.3641673  23.1780113  54.4034913  18.8321673
  23.7340113  54.5194913  17.5841673  23.6370113  54.7764913  18.3181673
  24.1990113  54.3064913   3.5041673  24.0710113  53.8584913   4.2421673
  23.6170113  53.9644913   2.9521673  24.0940113  54.1894913   3.5321673
  24.3660113  56.1364913  10.1031673  23.5850113  56.0774913   9.7201673
  24.4380113  55.3844913  10.5401673  24.2610113  56.0174913  10.1111673
  24.7960113  55.8734913  13.5711673  24.8210113  55.1984913  13.0201673
  24.1500113  56.3694913  13.2591673  24.7050113  55.8464913  13.4441673
  34.6910113  53.5864913  11.9671673  34.0290113  53.9144913  12.4301673
  34.8780113  54.2204913  11.3981673  34.6210113  53.7284913  11.9511673
  28.8960113  64.6504913  12.9631673  28.6190113  64.0094913  12.4401673
  28.6880113  65.3764913  12.5251673  28.8250113  64.6634913  12.8211673
  31.3360113  49.4924913  15.3961673  31.4850113  48.6674913  15.1531673
  31.7150113  49.5474913  16.1801673  31.4140113  49.3784913  15.4761673
  32.8840113  51.5554913   5.4781673  33.3740113  52.2724913   5.4011673
  32.0940113  51.8164913   5.2151673  32.8400113  51.6994913   5.4281673
  22.5950113  57.2284913  19.1301673  22.5580113  57.7294913  18.4161673
  22.9260113  56.4764913  18.8351673  22.6380113  57.1904913  18.9811673
  34.1980113  59.4334913  17.3881673  34.6820113  60.1514913  17.4861673
  34.5920113  59.0064913  16.7371673  34.3280113  59.4764913  17.3061673
  28.4940113  62.2784913  18.5651673  28.8480113  62.1004913  19.3421673
  28.0580113  61.5494913  18.3661673  28.4820113  62.1444913  18.6511673
  29.4660113  53.0254913  11.2031673  29.9460113  53.7244913  11.4111673
  29.8390113  52.3784913  11.6541673  29.5920113  53.0334913  11.3001673
  31.6550113  56.1944913   3.4771673  31.6470113  56.9164913   2.9871673
  31.0160113  56.3294913   4.0541673  31.5600113  56.3214913   3.4901673
  36.6270113  60.0644913   7.4581673  36.9830113  59.7144913   8.1731673
  36.6190113  59.4034913   6.8881673  36.6790113  59.9144913   7.4791673
  32.6720113  63.1304913  11.3021673  32.0690113  62.8344913  10.7451673
  33.2170113  63.5824913  10.7931673  32.6630113  63.1534913  11.1441673
  32.6850113  59.9814913  10.7021673  31.8880113  60.2054913  10.9761673
  32.9430113  59.3874913  11.2871673  32.6050113  59.9264913  10.8291673
  26.5770113  64.7934913   5.1501673  26.4300113  64.0174913   5.5211673
  27.2660113  64.6464913   4.6351673  26.6570113  64.6564913   5.1291673
  26.2480113  48.5364913   3.1381673  26.3450113  48.4294913   3.9991673
  25.5400113  49.0424913   3.0731673  26.1580113  48.5954913   3.2561673
  28.8690113  64.3094913   3.5521673  29.4910113  64.4724913   4.1421673
  28.9050113  65.0004913   3.0201673  28.9660113  64.4354913   3.5611673
  35.9450113  57.9794913  15.5481673  36.0000113  58.1044913  14.6861673
  36.6980113  58.2994913  15.8501673  36.0640113  58.0444913  15.4651673
  32.1360113  63.3284913  19.8251673  32.3000113  63.6114913  20.6341673
  32.3990113  63.9894913  19.3201673  32.1990113  63.4684913  19.8701673
  36.9770113  48.2774913  18.5351673  36.3400113  47.8774913  18.0931673
  37.0030113  47.8464913  19.2931673  36.8870113  48.1554913  18.5811673
  23.3700113  56.8434913   4.3811673  23.6940113  56.0644913   4.1591673
  24.0160113  57.2114913   4.8361673  23.5130113  56.7824913   4.4151673
  31.6760113  57.7854913  15.1481673  31.5210113  58.3954913  15.7521673
  32.2100113  57.2274913  15.5541673  31.7320113  57.7934913  15.2971673
  20.3670113  48.5044913   5.3491673  20.4960113  47.7964913   4.8571673
  20.0000113  48.1864913   6.0741673  20.3320113  48.3524913   5.3841673
  30.0600113  56.1854913   5.8061673  30.1190113  56.8354913   6.3851673
  29.8710113  55.4894913   6.2971673  30.0410113  56.1784913   5.9641673
  35.2860113  60.5144913  11.6751673  34.8070113  60.8124913  11.0091673
  34.9300113  59.7384913  11.8531673  35.1630113  60.4434913  11.6031673
  24.5560113  50.7024913   2.3181673  24.0450113  50.7554913   1.6121673
  25.3400113  50.9424913   2.0221673  24.5960113  50.7454913   2.1701673
  29.2830113  58.2324913  10.2371673  28.4360113  58.0384913  10.3181673
  29.6070113  58.0674913  11.0301673  29.2050113  58.1794913  10.3661673
  23.1310113  57.9254913  12.5531673  23.8530113  58.4134913  12.5161673
  22.8610113  57.8954913  11.7241673  23.1980113  57.9934913  12.4251673
  26.3610113  53.0964913   9.2881673  27.2070113  52.9064913   9.3861673
  25.9910113  52.3194913   9.1501673  26.4310113  52.9534913   9.2821673
  38.9780113  64.6804913   3.6151673  39.6720113  64.2134913   3.3671673
  38.4390113  64.0824913   3.9521673  39.0010113  64.5224913   3.6281673
  21.1820113  54.4344913   5.9431673  21.6710113  54.1424913   6.6041673
  21.3110113  53.8414913   5.3161673  21.2730113  54.3034913   5.9481673
  36.2170113  57.4564913  12.7941673  36.2100113  56.6804913  13.1921673
  35.3760113  57.6904913  12.7871673  36.0920113  57.3764913  12.8521673
  22.5260113  58.9774913  16.8311673  22.1050113  58.4594913  16.2701673
  22.1740113  59.7634913  16.6881673  22.4120113  59.0174913  16.7271673
  37.4730113  57.5274913  10.2311673  37.1870113  57.9284913  10.9511673
  38.3330113  57.4654913  10.3581673  37.5580113  57.5774913  10.3561673
  27.1620113  54.3294913   4.1391673  27.4340113  55.1554913   4.2061673
  26.2990113  54.4044913   4.0431673  27.0750113  54.4624913   4.1341673
  35.1350113  51.4514913  18.7711673  34.6100113  51.9104913  19.2951673
  34.7740113  50.6564913  18.7651673  35.0040113  51.4014913  18.8471673
  20.6420113  50.2994913  10.6751673  20.6860113  50.6434913   9.8741673
  21.3970113  50.5364913  11.0421673  20.7600113  50.3854913  10.6111673
  38.6040113  63.1604913  10.7601673  38.8940113  63.4174913   9.9791673
  39.2990113  63.2564913  11.2791673  38.7500113  63.2124913  10.7211673
  33.6270113  55.0204913  18.8471673  33.7000113  55.1244913  19.7101673
  32.9930113  55.5784913  18.6261673  33.5440113  55.1184913  18.9421673
  35.8950113  55.3394913  17.2121673  36.2140113  56.1254913  17.4151673
  35.5250113  55.0694913  17.9551673  35.8880113  55.4154913  17.3521673
  35.2090113  61.7634913   2.7421673  35.5430113  60.9574913   2.7771673
  34.4540113  61.6914913   3.1721673  35.1470113  61.6334913   2.8111673
  35.6910113  53.5974913   8.4011673  34.9460113  53.2744913   8.7191673
  35.6930113  54.4234913   8.6811673  35.5810113  53.6714913   8.4891673
  38.5930113  55.8814913  19.9471673  38.5410113  55.5404913  19.1461673
  39.3300113  56.3484913  19.9251673  38.6940113  55.9004913  19.8251673
  38.1310113  59.5574913  16.1531673  38.7590113  59.0084913  15.8971673
  38.0700113  60.1224913  15.4911673  38.2150113  59.5604913  16.0171673
  32.5830113  59.6384913   2.1451673  33.2670113  59.1244913   1.9761673
  32.1660113  59.6844913   1.3801673  32.6220113  59.5694913   2.0071673
  27.2650113  60.7884913  13.4491673  26.9670113  61.3804913  14.0161673
  27.3200113  61.2304913  12.7001673  27.2290113  60.9414913  13.4221673
  25.2440113  59.7384913  16.8471673  24.4380113  59.4484913  17.0141673
  25.1550113  60.6064913  16.8531673  25.1120113  59.8234913  16.8721673
  34.6030113  49.9274913  15.8621673  35.3470113  50.3794913  15.7991673
  34.0370113  50.3974913  15.3931673  34.6300113  50.0644913  15.7841673
  29.7810113  57.2114913  12.9401673  30.2570113  57.5854913  13.5681673
  28.9580113  57.3454913  13.1991673  29.7300113  57.2864913  13.0711673
  26.4910113  52.8144913  15.6811673  26.6520113  52.0704913  16.1081673
  26.4460113  52.5654913  14.8461673  26.5080113  52.6674913  15.6211673
  29.0450113  64.6044913   8.1681673  29.5910113  65.2834913   8.2221673
  28.6950113  64.6864913   7.3731673  29.0740113  64.7174913   8.0581673
  35.8880113  47.9074913  13.5321673  35.6080113  48.7324913  13.4881673
  36.6040113  47.9604913  14.0281673  35.9530113  48.0374913  13.5991673
  28.2430113  48.6224913  15.5611673  28.9480113  48.9424913  15.1591673
  28.4840113  47.8154913  15.7881673  28.3820113  48.5504913  15.5351673
  27.2280113  62.8324913  11.5571673  26.6040113  63.4144913  11.3751673
  27.4760113  62.5464913  10.7711673  27.1720113  62.8764913  11.4141673
  31.5370113  59.4664913  18.5461673  32.2940113  59.7524913  18.2201673
  30.9900113  59.5184913  17.8681673  31.5680113  59.5164913  18.3971673
  35.4460113  62.0164913  17.0501673  35.7920113  62.2864913  17.8041673
  35.7400113  62.5984913  16.4701673  35.5410113  62.1424913  17.0761673
  37.3090113  54.1624913   2.3891673  37.6870113  54.8394913   1.9891673
  36.4670113  54.3864913   2.4201673  37.2400113  54.2954913   2.3341673
  24.7520113  53.6754913  11.6221673  25.1920113  53.5724913  10.8761673
  25.2970113  53.3624913  12.2271673  24.8970113  53.6144913  11.6011673
  32.7680113  52.7774913  17.2141673  32.1200113  53.2474913  17.5621673
  33.3330113  52.6884913  17.8731673  32.7560113  52.8334913  17.3631673
  32.4560113  54.3144913  13.5121673  32.7580113  54.7344913  14.2151673
  32.4920113  53.4744913  13.7441673  32.5060113  54.2524913  13.6501673
  29.8810113  64.4814913  17.4371673  30.3590113  63.8814913  17.0211673
  29.5300113  64.0384913  18.1021673  29.9000113  64.3274913  17.4741673
  35.0040113  53.7614913   5.7641673  35.2110113  53.5604913   6.5881673
  35.7600113  54.0294913   5.4221673  35.1460113  53.7714913   5.8351673
  28.2990113  48.6604913  11.6691673  27.4730113  48.5114913  11.9061673
  28.2590113  48.6954913  10.7981673  28.1710113  48.6434913  11.5751673
  36.0260113  49.8444913   7.2381673  35.3120113  49.3734913   7.4091673
  35.8640113  50.1854913   6.4521673  35.8970113  49.8254913   7.1471673
  36.4690113  57.7884913   5.6181673  36.9450113  57.0594913   5.5701673
  35.6480113  57.5024913   5.5421673  36.4180113  57.6384913   5.5991673
  29.9400113  59.7004913  16.4571673  29.1450113  59.6364913  16.8081673
  30.0110113  60.5474913  16.2621673  29.8330113  59.8154913  16.4801673
  20.8640113  49.0584913  17.7041673  20.7240113  49.8534913  17.3731673
  20.0780113  48.8154913  17.9931673  20.7270113  49.1404913  17.6981673
  25.7700113  65.9074913  11.7741673  25.7810113  65.9664913  12.6441673
  25.3450113  65.1604913  11.6241673  25.7090113  65.8054913  11.8801673
  23.9280113  51.8024913   4.9291673  24.0540113  51.4734913   4.1311673
  23.1160113  51.5534913   5.1281673  23.8270113  51.7174913   4.8411673
  32.6850113  58.9554913   7.9731673  32.7610113  59.2964913   8.7721673
  32.8540113  58.1084913   8.0941673  32.7210113  58.8804913   8.1091673
  30.2070113  58.2294913   7.5381673  29.9090113  57.9144913   8.2951673
  30.9020113  58.7024913   7.7731673  30.2660113  58.2524913   7.6851673
  30.4290113  62.3474913  15.5651673  31.1160113  62.2334913  16.0901673
  30.5630113  63.1384913  15.2211673  30.5500113  62.4474913  15.5921673
  38.6050113  54.9564913  17.3761673  37.7500113  54.8344913  17.5021673
  38.7580113  54.5614913  16.6131673  38.5010113  54.8794913  17.2821673
  33.1180113  55.6214913  15.9521673  32.8630113  54.9024913  16.3741673
  33.9390113  55.7374913  16.2221673  33.2020113  55.5324913  16.0541673
  22.5340113  65.4054913  17.2161673  21.8800113  64.8364913  17.3141673
  22.1590113  66.1784913  17.3671673  22.3820113  65.4354913  17.2531673
  31.0520113  56.8114913  19.1391673  31.3750113  57.4974913  18.7071673
  30.3480113  57.1344913  19.5411673  30.9950113  56.9604913  19.1341673
  34.1360113  65.1854913  10.0681673  33.6850113  65.8284913  10.4471673
  34.8440113  65.1064913  10.5731673  34.1740113  65.2684913  10.1991673
  30.8370113  60.2754913  12.9981673  30.1430113  60.6774913  13.3411673
  31.5140113  60.7084913  13.3371673  30.8340113  60.3984913  13.0991673
  36.2140113  62.8684913  19.5781673  36.9900113  62.4784913  19.6611673
  35.7450113  62.5324913  20.2331673  36.2590113  62.7614913  19.6871673
  23.9050113  53.8134913  15.3451673  24.2800113  54.4324913  14.8581673
  24.5790113  53.3394913  15.6301673  24.0600113  53.8354913  15.3151673
  21.6800113  52.2614913  14.6201673  21.7570113  52.0924913  13.7671673
  22.4260113  52.6674913  14.8171673  21.8010113  52.2964913  14.5231673
  37.2390113  54.9014913   5.0601673  37.3420113  54.8434913   4.1961673
  37.9800113  54.5694913   5.3781673  37.3640113  54.8444913   4.9791673
  24.2340113  49.6714913  17.0311673  24.1530113  48.8274913  17.2371673
  23.9200113  49.7154913  16.2181673  24.1760113  49.5534913  16.9411673
  31.1590113  61.8664913   6.1671673  30.9540113  62.6994913   6.0081673
  30.3840113  61.4844913   6.2891673  31.0140113  61.9334913   6.1621673
  36.3410113  55.0474913  14.4161673  36.3390113  54.1844913  14.5401673
  36.4080113  55.3714913  15.2231673  36.3510113  54.9674913  14.5531673
  21.0770113  57.4874913  14.8441673  21.3970113  57.7064913  14.0631673
  20.9770113  56.6224913  14.7891673  21.1090113  57.3924913  14.7211673
  32.2200113  49.8474913  18.1981673  32.3120113  50.5594913  18.6921673
  31.5830113  49.4024913  18.5951673  32.1390113  49.8864913  18.3301673
  31.2140113  50.0374913   9.0521673  30.5140113  50.5554913   8.9961673
  31.2520113  49.6574913   8.2681673  31.1160113  50.0584913   8.9281673
  26.5210113  62.1284913   2.5761673  26.9620113  62.2084913   3.3241673
  25.7160113  61.9124913   2.8341673  26.4670113  62.1084913   2.7251673
  34.8120113  50.5534913  11.8521673  35.6670113  50.6524913  11.9971673
  34.4430113  51.1064913  12.4171673  34.8840113  50.6504913  11.9571673
  25.8400113  56.7794913  16.2291673  25.4440113  57.5534913  16.3041673
  25.4340113  56.4064913  15.5531673  25.7220113  56.8384913  16.1401673
  35.1160113  55.8334913  10.3431673  35.7820113  56.3744913  10.5031673
  34.7710113  56.1444913   9.6041673  35.1630113  55.9594913  10.2581673
  35.4290113  63.8994913   6.1501673  35.2550113  63.2454913   6.7001673
  36.1420113  63.6284913   5.7271673  35.5090113  63.7624913   6.1691673
  23.8500113  61.1984913   3.1771673  23.6060113  60.8914913   3.9571673
  23.8170113  60.4954913   2.6611673  23.8090113  61.0494913   3.2161673
  26.6690113  59.4434913   1.9201673  25.8510113  59.1754913   2.0601673
  26.6410113  60.2954913   2.1051673  26.5440113  59.5304913   1.9681673
  26.2690113  49.7564913  13.6791673  25.4050113  49.8404913  13.7591673
  26.4890113  49.2424913  14.3481673  26.1740113  49.6934913  13.7901673
  38.2870113  48.3914913  15.0081673  38.2350113  48.3474913  15.8781673
  38.9740113  47.8884913  14.8181673  38.3810113  48.3114913  15.1081673
  30.3720113  50.5044913  12.0531673  29.6350113  50.0504913  12.1661673
  30.9430113  50.1024913  12.5761673  30.3470113  50.3774913  12.1471673
  33.1040113  61.3524913  13.8411673  33.3100113  61.6534913  14.6331673
  33.0430113  62.0744913  13.3561673  33.1250113  61.5034913  13.8861673
  32.6380113  65.5664913  18.0871673  31.8850113  65.5484913  17.6461673
  32.8060113  66.4184913  18.1711673  32.5520113  65.6894913  18.0341673
  27.8750113  54.8334913  17.2571673  27.5530113  54.2574913  16.6871673
  27.5160113  55.5884913  17.0111673  27.7750113  54.8594913  17.1371673
  37.9160113  59.9914913  13.2991673  37.8840113  59.1294913  13.1641673
  37.2230113  60.2934913  12.8651673  37.8090113  59.9084913  13.2151673
  26.3100113  65.1894913  17.5051673  26.3510113  65.3154913  18.3681673
  26.9610113  64.6294913  17.3491673  26.4120113  65.1254913  17.6101673
  36.0210113  63.2514913  12.0961673  36.5480113  63.1684913  11.4051673
  35.6300113  62.4734913  12.1501673  36.0410113  63.1244913  12.0021673
  23.4890113  49.8394913  14.3271673  23.1460113  49.0724913  14.0931673
  22.7940113  50.3634913  14.3911673  23.3360113  49.8034913  14.3021673
  32.5350113  48.6954913  11.3041673  33.2050113  49.2394913  11.4311673
  32.0320113  49.1194913  10.7311673  32.5600113  48.8384913  11.2381673
  23.9030113  63.5724913  18.8651673  24.4980113  64.0034913  19.3371673
  23.5390113  64.1964913  18.3761673  23.9370113  63.7284913  18.8621673
  31.8940113  54.5034913   8.7971673  32.4450113  53.8964913   9.0971673
  31.4690113  54.7664913   9.5121673  31.9130113  54.4524913   8.9461673
  22.1420113  53.1534913   8.2831673  21.7740113  53.4554913   9.0141673
  22.6760113  52.5244913   8.5671673  22.1660113  53.1054913   8.4331673
  21.8300113  61.5614913  15.7941673  21.2560113  61.9774913  16.3031673
  22.5630113  62.0264913  15.8891673  21.8540113  61.6914913  15.8831673
  33.8640113  56.3344913   5.3591673  33.9320113  55.4844913   5.5401673
  33.0410113  56.4204913   5.0811673  33.7520113  56.2214913   5.3451673
  23.6160113  64.8284913   4.5691673  23.4710113  64.9844913   3.7231673
  24.4820113  64.9074913   4.6471673  23.7230113  64.8634913   4.4561673
  27.7830113  57.2254913   4.2971673  27.8830113  57.3644913   3.4421673
  28.6010113  57.1654913   4.5931673  27.9180113  57.2364913   4.2141673
  36.9430113  65.2894913   1.7771673  37.5800113  65.1554913   2.3581673
  36.6020113  64.4954913   1.6601673  36.9870113  65.1524913   1.8451673
  37.1380113  57.7074913  18.5101673  37.7720113  57.5374913  19.0841673
  37.5550113  58.1104913  17.8581673  37.2930113  57.7424913  18.4991673
  33.0180113  61.5544913   4.0991673  32.7670113  61.4264913   4.9251673
  32.7010113  60.8594913   3.6781673  32.9340113  61.4334913   4.1591673
  37.7630113  52.2714913  19.2481673  37.5670113  52.9154913  19.8031673
  37.0410113  51.7814913  19.2401673  37.6280113  52.2944913  19.3291673
  37.6620113  53.2124913  12.2191673  36.8290113  53.4624913  12.1471673
  37.6060113  52.3724913  12.4481673  37.5310113  53.1254913  12.2421673
  26.9220113  50.2004913  17.4131673  27.1560113  49.6244913  16.8001673
  26.0800113  50.0194913  17.5541673  26.8320113  50.0884913  17.3431673
  34.5490113  57.8184913  19.8651673  35.4200113  57.7824913  19.8291673
  34.3300113  58.2384913  19.1331673  34.6460113  57.8744913  19.7521673
  24.3030113  63.6434913  11.0461673  24.2240113  62.8334913  10.7301673
  23.8590113  64.1304913  10.4741673  24.2260113  63.5954913  10.9151673
  29.9040113  59.7624913   3.5291673  30.6210113  59.4154913   3.1731673
  29.8700113  60.5624913   3.1811673  30.0050113  59.8294913   3.4251673
  21.8750113  65.8874913  14.6271673  22.3680113  65.8314913  15.3451673
  22.0630113  65.1544913  14.1921673  21.9760113  65.7704913  14.6691673
  31.3130113  29.9253833  63.7928903  31.0680113  30.4133833  63.1128903
  32.1760113  29.8523833  63.6928903  31.4040113  29.9863833  63.6778903
  31.1220113  36.8413833  68.4638903  30.5980113  37.4373833  68.8268903
  31.5190113  36.4733833  69.1478903  31.1030113  36.8753833  68.6188903
  20.9910113  40.9813833  63.9198903  20.5500113  41.0993833  64.6628903
  20.7080113  40.2063833  63.6348903  20.8840113  40.8843833  63.9878903
  37.2660113  44.2823833  61.4348903  37.9670113  43.7633833  61.4308903
  36.6790113  43.8373833  60.9658903  37.2830113  44.1393833  61.3648903
  20.7340113  34.7733833  60.4268903  19.9560113  34.9353833  60.0668903
  20.7730113  33.9023833  60.4488903  20.6250113  34.6683833  60.3768903
  23.8730113  40.0363833  59.0988903  23.4810113  39.6653833  58.4128903
  23.7930113  39.4383833  59.7278903  23.8030113  39.8933833  59.0898903
  33.7930113  37.9083833  65.1398903  33.8730113  37.9123833  64.2708903
  33.2090113  37.2763833  65.2888903  33.7180113  37.8153833  65.0338903
  23.5000113  41.6773833  62.9988903  24.1080113  41.5073833  63.6018903
  22.7490113  41.5373833  63.4198903  23.4790113  41.6313833  63.1498903
  27.7820113  31.0123833  62.9478903  27.7120113  31.6893833  62.4018903
  28.5230113  30.6243833  62.6988903  27.8810113  31.0553833  62.8298903
  22.3910113  44.7683833  59.0758903  22.8580113  44.8523833  58.3438903
  22.8460113  44.1903833  59.5448903  22.5270113  44.6953833  59.0368903
  20.9310113  43.7163833  70.1748903  21.0600113  43.4363833  70.9908903
  20.3210113  43.1753833  69.8658903  20.8600113  43.5953833  70.2498903
  27.5050113  41.2413833  75.2418903  27.2690113  41.2383833  76.0818903
  26.7570113  41.0933833  74.8178903  27.3590113  41.2183833  75.3028903
  22.3770113  38.2373833  64.3768903  21.9150113  37.8453833  63.7498903
  23.0770113  37.7243833  64.4688903  22.4120113  38.1043833  64.2978903
  26.8850113  33.8473833  69.7238903  27.5630113  33.8653833  69.1748903
  26.8400113  33.0113833  69.9688903  26.9780113  33.7263833  69.6788903
  27.4870113  44.4333833  72.5048903  27.6250113  45.1933833  72.0978903
  28.2780113  44.0683833  72.5318903  27.6240113  44.4923833  72.4488903
  24.3780113  36.3373833  64.3998903  25.1950113  36.1503833  64.6428903
  23.9010113  35.7233833  64.7958903  24.4280113  36.2193833  64.4948903
  28.5820113  42.3183833  67.0098903  28.9300113  41.5193833  67.0398903
  29.2470113  42.8223833  66.7548903  28.7320113  42.2743833  66.9768903
  28.6390113  41.7673833  63.2208903  28.9700113  41.1233833  63.7068903
  28.8790113  41.5563833  62.4098903  28.7230113  41.6413833  63.1728903
  30.6070113  35.8983833  74.5598903  29.7590113  35.7993833  74.3818903
  30.6360113  36.6433833  75.0138903  30.4860113  35.9943833  74.6008903
  24.9750113  31.4313833  63.6658903  24.6790113  31.9323833  63.0158903
  25.8420113  31.5093833  63.6088903  25.0590113  31.5173833  63.5618903
  35.1650113  28.8583833  73.6738903  35.0070113  29.6273833  73.2918903
  34.3930113  28.6383833  74.0178903  35.0270113  28.9393833  73.6688903
  27.9540113  30.5733833  65.8888903  28.0270113  31.4333833  66.0178903
  27.9160113  30.4983833  65.0208903  27.9590113  30.6893833  65.7798903
  32.6270113  33.4993833  58.1878903  32.1770113  34.1803833  58.4948903
  32.7410113  32.9953833  58.8908903  32.5780113  33.5253833  58.3368903
  20.8330113  35.9983833  67.3898903  20.5770113  36.8293833  67.3148903
  20.1690113  35.6153833  67.8068903  20.6970113  36.0643833  67.4408903
  20.7430113  45.7083833  65.2898903  20.1510113  46.2663833  64.9768903
  21.1690113  45.4393833  64.5778903  20.7190113  45.7503833  65.1388903
  26.5830113  43.5523833  62.7698903  26.0040113  43.2773833  63.3618903
  27.2070113  42.9433833  62.7948903  26.5900113  43.4223833  62.8608903
  32.7260113  45.8403833  60.2918903  33.4530113  46.3123833  60.3938903
  32.9550113  45.0463833  60.5718903  32.8680113  45.7933833  60.3488903
  30.8940113  46.2323833  62.2818903  31.1080113  46.7593833  62.9438903
  31.6610113  46.0583833  61.9028903  31.0390113  46.2843833  62.3238903
  23.8620113  30.8153833  67.8808903  23.3410113  30.1873833  67.5728903
  24.4530113  30.3783833  68.3518903  23.8730113  30.6573833  67.9048903
  22.2880113  44.3783833  63.2208903  22.9440113  43.8033833  63.2358903
  22.6770113  45.1273833  62.9998903  22.4430113  44.4033833  63.1908903
  38.0210113  33.4723833  64.4828903  37.6750113  34.1503833  64.9088903
  37.3850113  32.8743833  64.4988903  37.8760113  33.4843833  64.5478903
  33.3330113  46.2423833  70.5868903  34.0770113  46.6983833  70.5768903
  33.2120113  46.0283833  69.7498903  33.4250113  46.2783833  70.4618903
  22.9010113  32.5453833  76.1628903  22.1230113  32.1553833  76.0908903
  23.3920113  32.1333833  75.5718903  22.8580113  32.4263833  76.0648903
  23.1060113  42.8653833  66.7208903  23.5290113  42.5093833  66.0468903
  23.4300113  42.4433833  67.4128903  23.2160113  42.7503833  66.7238903
  26.3370113  45.7173833  66.0168903  27.1810113  45.8213833  65.8218903
  26.0400113  46.5353833  66.0848903  26.4180113  45.8533833  65.9978903
  29.5500113  30.1883833  75.3308903  29.7280113  29.3793833  75.0558903
  29.4070113  30.6293833  74.5918903  29.5550113  30.1343833  75.1808903
  30.1440113  35.1143833  64.1038903  30.4310113  34.8823833  63.3138903
  30.8760113  35.1933833  64.5728903  30.2940113  35.0913833  64.0568903
  30.8660113  35.4533833  59.2248903  31.1470113  36.2413833  59.4738903
  30.0900113  35.6183833  58.8618903  30.7930113  35.5943833  59.2078903
  34.9070113  47.4273833  60.6918903  35.5720113  47.2793833  60.1468903
  35.2670113  47.3443833  61.4818903  35.0590113  47.3933833  60.7278903
  25.3350113  46.9363833  71.7568903  25.6270113  46.8693833  72.5768903
  24.7090113  46.3313833  71.7118903  25.2860113  46.8373833  71.8718903
  37.6960113  31.7953833  69.8518903  38.4530113  31.8673833  69.4238903
  37.7590113  31.0223833  70.2508903  37.8170113  31.6923833  69.8468903
  20.2490113  33.0933833  73.7488903  20.2450113  33.6803833  74.3948903
  20.8430113  33.4053833  73.1918903  20.3360113  33.2263833  73.7618903
  32.5870113  43.4273833  74.2908903  32.5530113  43.8093833  75.0748903
  33.4410113  43.3853833  74.1198903  32.7080113  43.4773833  74.3818903
  29.7250113  43.6243833  59.0408903  29.5440113  44.1693833  59.6978903
  30.4910113  43.9143833  58.7398903  29.8110113  43.7483833  59.0938903
  33.2320113  31.5203833  60.0948903  33.7720113  30.8383833  60.1708903
  33.2940113  31.9183833  60.8688903  33.3210113  31.4783833  60.2208903
  21.1860113  32.6883833  62.6638903  21.0720113  31.8243833  62.6948903
  20.7110113  32.9823833  63.3338903  21.0990113  32.6043833  62.7668903
  23.3280113  45.0983833  70.8788903  22.6300113  44.5903833  71.0048903
  23.5880113  44.8933833  70.0708903  23.2630113  44.9933833  70.7778903
  30.4900113  33.8963833  61.4088903  29.9820113  33.2343833  61.1548903
  30.5420113  34.4003833  60.6988903  30.4230113  33.8733833  61.2668903
  31.0390113  46.5913833  71.7888903  31.8070113  46.5113833  71.3828903
  30.4560113  46.4703833  71.1508903  31.0660113  46.5613833  71.6348903
  30.4900113  30.8373833  61.2998903  30.0350113  30.4353833  60.6738903
  31.2630113  30.9923833  60.9248903  30.5370113  30.8013833  61.1518903
  37.3160113  47.1943833  64.6898903  36.8610113  47.9113833  64.8908903
  36.7020113  46.6233833  64.4478903  37.1580113  47.2163833  64.6838903
  29.0880113  33.2043833  65.8218903  29.1620113  33.7723833  65.1638903
  29.2090113  33.6963833  66.5318903  29.1160113  33.3613833  65.8298903
  34.3130113  43.0393833  64.2338903  35.0140113  42.5573833  64.4228903
  33.6530113  42.4703833  64.2788903  34.3190113  42.8843833  64.2678903
  24.6890113  43.9493833  73.4458903  25.5300113  44.0123833  73.2238903
  24.6520113  44.3463833  74.2218903  24.8080113  44.0173833  73.5278903
  23.6960113  29.0273833  64.1698903  24.2320113  29.7153833  64.1598903
  23.6990113  28.7533833  63.3418903  23.7750113  29.0883833  64.0458903
  26.6520113  39.4603833  68.1948903  26.8240113  39.2503833  69.0238903
  25.9970113  38.9263833  67.9788903  26.5810113  39.3503833  68.2858903
  32.8800113  33.3743833  71.7098903  32.7850113  33.6933833  72.5158903
  32.2870113  32.7353833  71.6718903  32.7780113  33.3263833  71.8238903
  27.4020113  39.3983833  70.7848903  27.4550113  40.2453833  70.9868903
  27.1170113  39.0283833  71.5218903  27.3680113  39.4683833  70.9228903
  33.5790113  40.0933833  69.9148903  33.0650113  39.6813833  70.4858903
  33.4530113  40.9373833  70.0958903  33.4850113  40.1573833  70.0258903
  34.1360113  29.3183833  64.5458903  34.1850113  29.0003833  65.3568903
  34.4590113  28.6743833  64.0528903  34.1910113  29.1763833  64.5928903
  36.6000113  33.5543833  72.8538903  37.3720113  33.3293833  73.1908903
  36.1250113  33.7713833  73.5538903  36.6440113  33.5533833  73.0068903
  24.1440113  32.8373833  65.8238903  24.4160113  32.4073833  65.1158903
  23.9680113  32.2013833  66.3948903  24.1580113  32.6803833  65.8038903
  36.8320113  40.5323833  60.0418903  36.9510113  40.2453833  60.8568903
  37.6390113  40.5533833  59.7118903  36.9680113  40.4933833  60.1138903
  23.9680113  40.2643833  65.3728903  24.8190113  40.1843833  65.1998903
  23.6110113  39.5823833  64.9608903  24.0410113  40.1513833  65.2858903
  22.7350113  46.9893833  66.6098903  22.0620113  46.4913833  66.3648903
  23.1380113  47.1743833  65.8588903  22.6950113  46.9433833  66.4628903
  22.2850113  33.9393833  68.9058903  23.1280113  34.1593833  68.8628903
  21.8960113  34.5123833  68.3748903  22.3520113  34.0563833  68.8208903
  39.0660113  45.0413833  74.2958903  38.3840113  45.3513833  73.8488903
  38.6970113  44.5833833  74.9408903  38.9100113  45.0193833  74.3248903
  34.7270113  37.0693833  59.6268903  34.5070113  37.8003833  59.2048903
  34.2790113  37.1203833  60.3738903  34.6280113  37.1843833  59.6748903
  26.3360113  40.2713833  63.6078903  27.0490113  40.7663833  63.6978903
  26.5580113  39.7043833  62.9818903  26.4740113  40.2603833  63.5288903
  38.9140113  31.9303833  59.0798903  38.2520113  31.3623833  59.1028903
  38.7210113  32.4423833  58.3998903  38.7880113  31.9223833  58.9828903
  20.4920113  41.9143833  66.9278903  19.8250113  42.4023833  67.2038903
  21.1720113  42.4593833  66.9568903  20.4940113  42.0663833  66.9728903
  39.2370113  36.3083833  71.6358903  39.4520113  35.5083833  71.3598903
  38.3870113  36.3683833  71.4468903  39.1430113  36.1993833  71.5668903
  20.5580113  38.5983833  62.0308903  20.3730113  37.7593833  62.1828903
  21.2170113  38.5623833  61.4608903  20.6280113  38.4693833  61.9688903
  36.9160113  31.4883833  61.3588903  37.6620113  31.0813833  61.5578903
  37.1790113  32.2033833  60.9338903  37.0650113  31.5343833  61.3258903
  30.8590113  43.9743833  65.9348903  30.3360113  44.6083833  65.6418903
  31.1690113  43.6103833  65.2058903  30.8270113  44.0143833  65.7838903
  20.7300113  42.7623833  61.6058903  21.2820113  43.3313833  61.9698903
  20.4980113  42.2473833  62.2708903  20.7770113  42.7703833  61.7578903
  24.9340113  41.7623833  68.6948903  25.4010113  42.0513833  69.3728903
  25.5060113  41.2843833  68.2408903  25.0880113  41.7343833  68.7278903
  33.3700113  33.7763833  66.4318903  33.7140113  33.9283833  67.2188903
  32.9170113  33.0383833  66.5448903  33.3540113  33.6893833  66.5648903
  20.5600113  41.2113833  59.2338903  21.3160113  40.7793833  59.2918903
  20.5750113  41.7433833  59.9248903  20.6740113  41.2263833  59.3448903
  21.5000113  39.4323833  67.2388903  21.9310113  39.3033833  66.4918903
  21.2950113  40.2803833  67.2128903  21.5330113  39.5383833  67.1248903
  27.8460113  32.9963833  60.8888903  27.8440113  32.8793833  60.0238903
  27.6650113  33.8443833  60.9808903  27.8190113  33.1043833  60.7748903
  36.9000113  45.4233833  72.3858903  36.2290113  45.9373833  72.6038903
  36.9630113  45.5233833  71.5218903  36.8100113  45.5143833  72.2908903
  25.5840113  42.9483833  65.5208903  25.7100113  43.7913833  65.7078903
  26.2520113  42.5493833  65.9168903  25.7020113  43.0143833  65.6068903
  23.7140113  36.4313833  75.3828903  23.1780113  35.9253833  75.8508903
  23.7340113  36.0413833  74.6028903  23.6370113  36.2983833  75.3368903
  24.1990113  35.8283833  60.5228903  24.0710113  35.3803833  61.2608903
  23.6170113  35.4863833  59.9708903  24.0940113  35.7113833  60.5508903
  24.3660113  37.6583833  67.1218903  23.5850113  37.5993833  66.7388903
  24.4380113  36.9063833  67.5588903  24.2610113  37.5393833  67.1298903
  24.7960113  37.3953833  70.5898903  24.8210113  36.7203833  70.0388903
  24.1500113  37.8913833  70.2778903  24.7050113  37.3683833  70.4628903
  34.6910113  35.1083833  68.9858903  34.0290113  35.4363833  69.4488903
  34.8780113  35.7423833  68.4168903  34.6210113  35.2503833  68.9698903
  28.8960113  46.1723833  69.9818903  28.6190113  45.5313833  69.4588903
  28.6880113  46.8983833  69.5438903  28.8250113  46.1853833  69.8398903
  31.3360113  31.0143833  72.4148903  31.4850113  30.1893833  72.1718903
  31.7150113  31.0693833  73.1988903  31.4140113  30.9003833  72.4948903
  32.8840113  33.0773833  62.4968903  33.3740113  33.7943833  62.4198903
  32.0940113  33.3383833  62.2338903  32.8400113  33.2213833  62.4468903
  22.5950113  38.7503833  76.1488903  22.5580113  39.2513833  75.4348903
  22.9260113  37.9983833  75.8538903  22.6380113  38.7123833  75.9998903
  34.1980113  40.9553833  74.4068903  34.6820113  41.6733833  74.5048903
  34.5920113  40.5283833  73.7558903  34.3280113  40.9983833  74.3248903
  28.4940113  43.8003833  75.5838903  28.8480113  43.6223833  76.3608903
  28.0580113  43.0713833  75.3848903  28.4820113  43.6663833  75.6698903
  29.4660113  34.5473833  68.2218903  29.9460113  35.2463833  68.4298903
  29.8390113  33.9003833  68.6728903  29.5920113  34.5553833  68.3188903
  31.6550113  37.7163833  60.4958903  31.6470113  38.4383833  60.0058903
  31.0160113  37.8513833  61.0728903  31.5600113  37.8433833  60.5088903
  36.6270113  41.5863833  64.4768903  36.9830113  41.2363833  65.1918903
  36.6190113  40.9253833  63.9068903  36.6790113  41.4363833  64.4978903
  32.6720113  44.6523833  68.3208903  32.0690113  44.3563833  67.7638903
  33.2170113  45.1043833  67.8118903  32.6630113  44.6753833  68.1628903
  32.6850113  41.5033833  67.7208903  31.8880113  41.7273833  67.9948903
  32.9430113  40.9093833  68.3058903  32.6050113  41.4483833  67.8478903
  26.5770113  46.3153833  62.1688903  26.4300113  45.5393833  62.5398903
  27.2660113  46.1683833  61.6538903  26.6570113  46.1783833  62.1478903
  26.2480113  30.0583833  60.1568903  26.3450113  29.9513833  61.0178903
  25.5400113  30.5643833  60.0918903  26.1580113  30.1173833  60.2748903
  35.9450113  39.5013833  72.5668903  36.0000113  39.6263833  71.7048903
  36.6980113  39.8213833  72.8688903  36.0640113  39.5663833  72.4838903
  36.9770113  29.7993833  75.5538903  36.3400113  29.3993833  75.1118903
  37.0030113  29.3683833  76.3118903  36.8870113  29.6773833  75.5998903
  23.3700113  38.3653833  61.3998903  23.6940113  37.5863833  61.1778903
  24.0160113  38.7333833  61.8548903  23.5130113  38.3043833  61.4338903
  31.6760113  39.3073833  72.1668903  31.5210113  39.9173833  72.7708903
  32.2100113  38.7493833  72.5728903  31.7320113  39.3153833  72.3158903
  20.3670113  30.0263833  62.3678903  20.4960113  29.3183833  61.8758903
  20.0000113  29.7083833  63.0928903  20.3320113  29.8743833  62.4028903
  30.0600113  37.7073833  62.8248903  30.1190113  38.3573833  63.4038903
  29.8710113  37.0113833  63.3158903  30.0410113  37.7003833  62.9828903
  24.5560113  32.2243833  59.3368903  24.0450113  32.2773833  58.6308903
  25.3400113  32.4643833  59.0408903  24.5960113  32.2673833  59.1888903
  29.2830113  39.7543833  67.2558903  28.4360113  39.5603833  67.3368903
  29.6070113  39.5893833  68.0488903  29.2050113  39.7013833  67.3848903
  26.0350113  46.4843833  58.1418903  26.4740113  45.7873833  58.4298903
  26.2420113  47.1083833  58.7148903  26.1310113  46.4733833  58.2688903
  23.1310113  39.4473833  69.5718903  23.8530113  39.9353833  69.5348903
  22.8610113  39.4173833  68.7428903  23.1980113  39.5153833  69.4438903
  26.3610113  34.6183833  66.3068903  27.2070113  34.4283833  66.4048903
  25.9910113  33.8413833  66.1688903  26.4310113  34.4753833  66.3008903
  38.9780113  46.2023833  60.6338903  39.6720113  45.7353833  60.3858903
  38.4390113  45.6043833  60.9708903  39.0010113  46.0443833  60.6468903
  21.1820113  35.9563833  62.9618903  21.6710113  35.6643833  63.6228903
  21.3110113  35.3633833  62.3348903  21.2730113  35.8253833  62.9668903
  36.2170113  38.9783833  69.8128903  36.2100113  38.2023833  70.2108903
  35.3760113  39.2123833  69.8058903  36.0920113  38.8983833  69.8708903
  25.7070113  37.3903833  58.4478903  25.0970113  36.9853833  58.9218903
  25.3210113  37.5083833  57.6748903  25.5600113  37.3473833  58.4038903
  22.5260113  40.4993833  73.8498903  22.1050113  39.9813833  73.2888903
  22.1740113  41.2853833  73.7068903  22.4120113  40.5393833  73.7458903
  37.4730113  39.0493833  67.2498903  37.1870113  39.4503833  67.9698903
  38.3330113  38.9873833  67.3768903  37.5580113  39.0993833  67.3748903
  27.1620113  35.8513833  61.1578903  27.4340113  36.6773833  61.2248903
  26.2990113  35.9263833  61.0618903  27.0750113  35.9843833  61.1528903
  35.1350113  32.9733833  75.7898903  34.6100113  33.4323833  76.3138903
  34.7740113  32.1783833  75.7838903  35.0040113  32.9233833  75.8658903
  20.6420113  31.8213833  67.6938903  20.6860113  32.1653833  66.8928903
  21.3970113  32.0583833  68.0608903  20.7600113  31.9073833  67.6298903
  38.6040113  44.6823833  67.7788903  38.8940113  44.9393833  66.9978903
  39.2990113  44.7783833  68.2978903  38.7500113  44.7343833  67.7398903
  33.6270113  36.5423833  75.8658903  33.7000113  36.6463833  76.7288903
  32.9930113  37.1003833  75.6448903  33.5440113  36.6403833  75.9608903
  35.8950113  36.8613833  74.2308903  36.2140113  37.6473833  74.4338903
  35.5250113  36.5913833  74.9738903  35.8880113  36.9373833  74.3708903
  35.2090113  43.2853833  59.7608903  35.5430113  42.4793833  59.7958903
  34.4540113  43.2133833  60.1908903  35.1470113  43.1553833  59.8298903
  35.6910113  35.1193833  65.4198903  34.9460113  34.7963833  65.7378903
  35.6930113  35.9453833  65.6998903  35.5810113  35.1933833  65.5078903
  38.1310113  41.0793833  73.1718903  38.7590113  40.5303833  72.9158903
  38.0700113  41.6443833  72.5098903  38.2150113  41.0823833  73.0358903
  32.5830113  41.1603833  59.1638903  33.2670113  40.6463833  58.9948903
  32.1660113  41.2063833  58.3988903  32.6220113  41.0913833  59.0258903
  27.2650113  42.3103833  70.4678903  26.9670113  42.9023833  71.0348903
  27.3200113  42.7523833  69.7188903  27.2290113  42.4633833  70.4408903
  25.2440113  41.2603833  73.8658903  24.4380113  40.9703833  74.0328903
  25.1550113  42.1283833  73.8718903  25.1120113  41.3453833  73.8908903
  34.6030113  31.4493833  72.8808903  35.3470113  31.9013833  72.8178903
  34.0370113  31.9193833  72.4118903  34.6300113  31.5863833  72.8028903
  29.7810113  38.7333833  69.9588903  30.2570113  39.1073833  70.5868903
  28.9580113  38.8673833  70.2178903  29.7300113  38.8083833  70.0898903
  26.4910113  34.3363833  72.6998903  26.6520113  33.5923833  73.1268903
  26.4460113  34.0873833  71.8648903  26.5080113  34.1893833  72.6398903
  29.0450113  46.1263833  65.1868903  29.5910113  46.8053833  65.2408903
  28.6950113  46.2083833  64.3918903  29.0740113  46.2393833  65.0768903
  35.8880113  29.4293833  70.5508903  35.6080113  30.2543833  70.5068903
  36.6040113  29.4823833  71.0468903  35.9530113  29.5593833  70.6178903
  28.2430113  30.1443833  72.5798903  28.9480113  30.4643833  72.1778903
  28.4840113  29.3373833  72.8068903  28.3820113  30.0723833  72.5538903
  27.2280113  44.3543833  68.5758903  26.6040113  44.9363833  68.3938903
  27.4760113  44.0683833  67.7898903  27.1720113  44.3983833  68.4328903
  31.5370113  40.9883833  75.5648903  32.2940113  41.2743833  75.2388903
  30.9900113  41.0403833  74.8868903  31.5680113  41.0383833  75.4158903
  35.4460113  43.5383833  74.0688903  35.7920113  43.8083833  74.8228903
  35.7400113  44.1203833  73.4888903  35.5410113  43.6643833  74.0948903
  37.3090113  35.6843833  59.4078903  37.6870113  36.3613833  59.0078903
  36.4670113  35.9083833  59.4388903  37.2400113  35.8173833  59.3528903
  28.8220113  39.1303833  58.4908903  28.0170113  38.9533833  58.2058903
  28.7890113  39.9813833  58.6828903  28.6980113  39.2293833  58.4778903
  24.7520113  35.1973833  68.6408903  25.1920113  35.0943833  67.8948903
  25.2970113  34.8843833  69.2458903  24.8970113  35.1363833  68.6198903
  32.7680113  34.2993833  74.2328903  32.1200113  34.7693833  74.5808903
  33.3330113  34.2103833  74.8918903  32.7560113  34.3553833  74.3818903
  32.4560113  35.8363833  70.5308903  32.7580113  36.2563833  71.2338903
  32.4920113  34.9963833  70.7628903  32.5060113  35.7743833  70.6688903
  29.8810113  46.0033833  74.4558903  30.3590113  45.4033833  74.0398903
  29.5300113  45.5603833  75.1208903  29.9000113  45.8493833  74.4928903
  35.0040113  35.2833833  62.7828903  35.2110113  35.0823833  63.6068903
  35.7600113  35.5513833  62.4408903  35.1460113  35.2933833  62.8538903
  28.2990113  30.1823833  68.6878903  27.4730113  30.0333833  68.9248903
  28.2590113  30.2173833  67.8168903  28.1710113  30.1653833  68.5938903
  36.0260113  31.3663833  64.2568903  35.3120113  30.8953833  64.4278903
  35.8640113  31.7073833  63.4708903  35.8970113  31.3473833  64.1658903
  36.4690113  39.3103833  62.6368903  36.9450113  38.5813833  62.5888903
  35.6480113  39.0243833  62.5608903  36.4180113  39.1603833  62.6178903
  29.9400113  41.2223833  73.4758903  29.1450113  41.1583833  73.8268903
  30.0110113  42.0693833  73.2808903  29.8330113  41.3373833  73.4988903
  20.8640113  30.5803833  74.7228903  20.7240113  31.3753833  74.3918903
  20.0780113  30.3373833  75.0118903  20.7270113  30.6623833  74.7168903
  25.7700113  47.4293833  68.7928903  25.7810113  47.4883833  69.6628903
  25.3450113  46.6823833  68.6428903  25.7090113  47.3273833  68.8988903
  23.9280113  33.3243833  61.9478903  24.0540113  32.9953833  61.1498903
  23.1160113  33.0753833  62.1468903  23.8270113  33.2393833  61.8598903
  32.6850113  40.4773833  64.9918903  32.7610113  40.8183833  65.7908903
  32.8540113  39.6303833  65.1128903  32.7210113  40.4023833  65.1278903
  30.2070113  39.7513833  64.5568903  29.9090113  39.4363833  65.3138903
  30.9020113  40.2243833  64.7918903  30.2660113  39.7743833  64.7038903
  30.4290113  43.8693833  72.5838903  31.1160113  43.7553833  73.1088903
  30.5630113  44.6603833  72.2398903  30.5500113  43.9693833  72.6108903
  38.6050113  36.4783833  74.3948903  37.7500113  36.3563833  74.5208903
  38.7580113  36.0833833  73.6318903  38.5010113  36.4013833  74.3008903
  33.1180113  37.1433833  72.9708903  32.8630113  36.4243833  73.3928903
  33.9390113  37.2593833  73.2408903  33.2020113  37.0543833  73.0728903
  22.5340113  46.9273833  74.2348903  21.8800113  46.3583833  74.3328903
  22.1590113  47.7003833  74.3858903  22.3820113  46.9573833  74.2718903
  31.0520113  38.3333833  76.1578903  31.3750113  39.0193833  75.7258903
  30.3480113  38.6563833  76.5598903  30.9950113  38.4823833  76.1528903
  34.1360113  46.7073833  67.0868903  33.6850113  47.3503833  67.4658903
  34.8440113  46.6283833  67.5918903  34.1740113  46.7903833  67.2178903
  30.8370113  41.7973833  70.0168903  30.1430113  42.1993833  70.3598903
  31.5140113  42.2303833  70.3558903  30.8340113  41.9203833  70.1178903
  23.9050113  35.3353833  72.3638903  24.2800113  35.9543833  71.8768903
  24.5790113  34.8613833  72.6488903  24.0600113  35.3573833  72.3338903
  21.6800113  33.7833833  71.6388903  21.7570113  33.6143833  70.7858903
  22.4260113  34.1893833  71.8358903  21.8010113  33.8183833  71.5418903
  37.2390113  36.4233833  62.0788903  37.3420113  36.3653833  61.2148903
  37.9800113  36.0913833  62.3968903  37.3640113  36.3663833  61.9978903
  24.2340113  31.1933833  74.0498903  24.1530113  30.3493833  74.2558903
  23.9200113  31.2373833  73.2368903  24.1760113  31.0753833  73.9598903
  31.1590113  43.3883833  63.1858903  30.9540113  44.2213833  63.0268903
  30.3840113  43.0063833  63.3078903  31.0140113  43.4553833  63.1808903
  36.3410113  36.5693833  71.4348903  36.3390113  35.7063833  71.5588903
  36.4080113  36.8933833  72.2418903  36.3510113  36.4893833  71.5718903
  21.0770113  39.0093833  71.8628903  21.3970113  39.2283833  71.0818903
  20.9770113  38.1443833  71.8078903  21.1090113  38.9143833  71.7398903
  22.5330113  34.9453833  58.4808903  21.8610113  34.9593833  59.0368903
  22.6280113  34.0973833  58.2968903  22.4480113  34.8223833  58.5358903
  32.2200113  31.3693833  75.2168903  32.3120113  32.0813833  75.7108903
  31.5830113  30.9243833  75.6138903  32.1390113  31.4083833  75.3488903
  31.2140113  31.5593833  66.0708903  30.5140113  32.0773833  66.0148903
  31.2520113  31.1793833  65.2868903  31.1160113  31.5803833  65.9468903
  26.5210113  43.6503833  59.5948903  26.9620113  43.7303833  60.3428903
  25.7160113  43.4343833  59.8528903  26.4670113  43.6303833  59.7438903
  34.8120113  32.0753833  68.8708903  35.6670113  32.1743833  69.0158903
  34.4430113  32.6283833  69.4358903  34.8840113  32.1723833  68.9758903
  25.8400113  38.3013833  73.2478903  25.4440113  39.0753833  73.3228903
  25.4340113  37.9283833  72.5718903  25.7220113  38.3603833  73.1588903
  35.1160113  37.3553833  67.3618903  35.7820113  37.8963833  67.5218903
  34.7710113  37.6663833  66.6228903  35.1630113  37.4813833  67.2768903
  35.4290113  45.4213833  63.1688903  35.2550113  44.7673833  63.7188903
  36.1420113  45.1503833  62.7458903  35.5090113  45.2843833  63.1878903
  23.8500113  42.7203833  60.1958903  23.6060113  42.4133833  60.9758903
  23.8170113  42.0173833  59.6798903  23.8090113  42.5713833  60.2348903
  26.6690113  40.9653833  58.9388903  25.8510113  40.6973833  59.0788903
  26.6410113  41.8173833  59.1238903  26.5440113  41.0523833  58.9868903
  26.2690113  31.2783833  70.6978903  25.4050113  31.3623833  70.7778903
  26.4890113  30.7643833  71.3668903  26.1740113  31.2153833  70.8088903
  38.2870113  29.9133833  72.0268903  38.2350113  29.8693833  72.8968903
  38.9740113  29.4103833  71.8368903  38.3810113  29.8333833  72.1268903
  30.3720113  32.0263833  69.0718903  29.6350113  31.5723833  69.1848903
  30.9430113  31.6243833  69.5948903  30.3470113  31.8993833  69.1658903
  33.1040113  42.8743833  70.8598903  33.3100113  43.1753833  71.6518903
  33.0430113  43.5963833  70.3748903  33.1250113  43.0253833  70.9048903
  32.6380113  47.0883833  75.1058903  31.8850113  47.0703833  74.6648903
  32.8060113  47.9403833  75.1898903  32.5520113  47.2113833  75.0528903
  27.8750113  36.3553833  74.2758903  27.5530113  35.7793833  73.7058903
  27.5160113  37.1103833  74.0298903  27.7750113  36.3813833  74.1558903
  28.6710113  29.6073833  58.9028903  28.7490113  29.8543833  58.0698903
  27.9280113  29.9843833  59.1608903  28.5730113  29.6993833  58.8178903
  37.9160113  41.5133833  70.3178903  37.8840113  40.6513833  70.1828903
  37.2230113  41.8153833  69.8838903  37.8090113  41.4303833  70.2338903
  26.3100113  46.7113833  74.5238903  26.3510113  46.8373833  75.3868903
  26.9610113  46.1513833  74.3678903  26.4120113  46.6473833  74.6288903
  36.0210113  44.7733833  69.1148903  36.5480113  44.6903833  68.4238903
  35.6300113  43.9953833  69.1688903  36.0410113  44.6463833  69.0208903
  23.4890113  31.3613833  71.3458903  23.1460113  30.5943833  71.1118903
  22.7940113  31.8853833  71.4098903  23.3360113  31.3253833  71.3208903
  32.5350113  30.2173833  68.3228903  33.2050113  30.7613833  68.4498903
  32.0320113  30.6413833  67.7498903  32.5600113  30.3603833  68.2568903
  23.9030113  45.0943833  75.8838903  24.4980113  45.5253833  76.3558903
  23.5390113  45.7183833  75.3948903  23.9370113  45.2503833  75.8808903
  31.8940113  36.0253833  65.8158903  32.4450113  35.4183833  66.1158903
  31.4690113  36.2883833  66.5308903  31.9130113  35.9743833  65.9648903
  22.1420113  34.6753833  65.3018903  21.7740113  34.9773833  66.0328903
  22.6760113  34.0463833  65.5858903  22.1660113  34.6273833  65.4518903
  21.8300113  43.0833833  72.8128903  21.2560113  43.4993833  73.3218903
  22.5630113  43.5483833  72.9078903  21.8540113  43.2133833  72.9018903
  33.8640113  37.8563833  62.3778903  33.9320113  37.0063833  62.5588903
  33.0410113  37.9423833  62.0998903  33.7520113  37.7433833  62.3638903
  23.6160113  46.3503833  61.5878903  23.4710113  46.5063833  60.7418903
  24.4820113  46.4293833  61.6658903  23.7230113  46.3853833  61.4748903
  27.7830113  38.7473833  61.3158903  27.8830113  38.8863833  60.4608903
  28.6010113  38.6873833  61.6118903  27.9180113  38.7583833  61.2328903
  37.1380113  39.2293833  75.5288903  37.7720113  39.0593833  76.1028903
  37.5550113  39.6323833  74.8768903  37.2930113  39.2643833  75.5178903
  33.0180113  43.0763833  61.1178903  32.7670113  42.9483833  61.9438903
  32.7010113  42.3813833  60.6968903  32.9340113  42.9553833  61.1778903
  37.7630113  33.7933833  76.2668903  37.5670113  34.4373833  76.8218903
  37.0410113  33.3033833  76.2588903  37.6280113  33.8163833  76.3478903
  37.6620113  34.7343833  69.2378903  36.8290113  34.9843833  69.1658903
  37.6060113  33.8943833  69.4668903  37.5310113  34.6473833  69.2608903
  26.9220113  31.7223833  74.4318903  27.1560113  31.1463833  73.8188903
  26.0800113  31.5413833  74.5728903  26.8320113  31.6103833  74.3618903
  34.5490113  39.3403833  76.8838903  35.4200113  39.3043833  76.8478903
  34.3300113  39.7603833  76.1518903  34.6460113  39.3963833  76.7708903
  24.3030113  45.1653833  68.0648903  24.2240113  44.3553833  67.7488903
  23.8590113  45.6523833  67.4928903  24.2260113  45.1173833  67.9338903
  29.9040113  41.2843833  60.5478903  30.6210113  40.9373833  60.1918903
  29.8700113  42.0843833  60.1998903  30.0050113  41.3513833  60.4438903
  21.8750113  47.4093833  71.6458903  22.3680113  47.3533833  72.3638903
  22.0630113  46.6763833  71.2108903  21.9760113  47.2923833  71.6878903
  20.9910113  40.9813833  44.9136493  20.5500113  41.0993833  45.6566493
  20.7080113  40.2063833  44.6286493  20.8840113  40.8843833  44.9816493
  20.7340113  34.7733833  41.4206493  19.9560113  34.9353833  41.0606493
  20.7730113  33.9023833  41.4426493  20.6250113  34.6683833  41.3706493
  23.8730113  40.0363833  40.0926493  23.4810113  39.6653833  39.4066493
  23.7930113  39.4383833  40.7216493  23.8030113  39.8933833  40.0836493
  23.5000113  41.6773833  43.9926493  24.1080113  41.5073833  44.5956493
  22.7490113  41.5373833  44.4136493  23.4790113  41.6313833  44.1436493
  27.7820113  31.0123833  43.9416493  27.7120113  31.6893833  43.3956493
  28.5230113  30.6243833  43.6926493  27.8810113  31.0553833  43.8236493
  27.5050113  41.2413833  56.2356493  27.2690113  41.2383833  57.0756493
  26.7570113  41.0933833  55.8116493  27.3590113  41.2183833  56.2966493
  22.3770113  38.2373833  45.3706493  21.9150113  37.8453833  44.7436493
  23.0770113  37.7243833  45.4626493  22.4120113  38.1043833  45.2916493
  26.8850113  33.8473833  50.7176493  27.5630113  33.8653833  50.1686493
  26.8400113  33.0113833  50.9626493  26.9780113  33.7263833  50.6726493
  27.4870113  44.4333833  53.4986493  27.6250113  45.1933833  53.0916493
  28.2780113  44.0683833  53.5256493  27.6240113  44.4923833  53.4426493
  24.9750113  31.4313833  44.6596493  24.6790113  31.9323833  44.0096493
  25.8420113  31.5093833  44.6026493  25.0590113  31.5173833  44.5556493
  27.9540113  30.5733833  46.8826493  28.0270113  31.4333833  47.0116493
  27.9160113  30.4983833  46.0146493  27.9590113  30.6893833  46.7736493
  20.8330113  35.9983833  48.3836493  20.5770113  36.8293833  48.3086493
  20.1690113  35.6153833  48.8006493  20.6970113  36.0643833  48.4346493
  20.7430113  45.7083833  46.2836493  20.1510113  46.2663833  45.9706493
  21.1690113  45.4393833  45.5716493  20.7190113  45.7503833  46.1326493
  26.5830113  43.5523833  43.7636493  26.0040113  43.2773833  44.3556493
  27.2070113  42.9433833  43.7886493  26.5900113  43.4223833  43.8546493
  23.8620113  30.8153833  48.8746493  23.3410113  30.1873833  48.5666493
  24.4530113  30.3783833  49.3456493  23.8730113  30.6573833  48.8986493
  27.1680113  32.9483833  58.1726493  27.2850113  32.4943833  57.4366493
  27.4560113  33.7463833  57.9696493  27.2280113  32.9993833  58.0336493
  22.2880113  44.3783833  44.2146493  22.9440113  43.8033833  44.2296493
  22.6770113  45.1273833  43.9936493  22.4430113  44.4033833  44.1846493
  22.9010113  32.5453833  57.1566493  22.1230113  32.1553833  57.0846493
  23.3920113  32.1333833  56.5656493  22.8580113  32.4263833  57.0586493
  23.1060113  42.8653833  47.7146493  23.5290113  42.5093833  47.0406493
  23.4300113  42.4433833  48.4066493  23.2160113  42.7503833  47.7176493
  26.3370113  45.7173833  47.0106493  27.1810113  45.8213833  46.8156493
  26.0400113  46.5353833  47.0786493  26.4180113  45.8533833  46.9916493
  29.5500113  30.1883833  56.3246493  29.7280113  29.3793833  56.0496493
  29.4070113  30.6293833  55.5856493  29.5550113  30.1343833  56.1746493
  25.3350113  46.9363833  52.7506493  25.6270113  46.8693833  53.5706493
  24.7090113  46.3313833  52.7056493  25.2860113  46.8373833  52.8656493
  20.2490113  33.0933833  54.7426493  20.2450113  33.6803833  55.3886493
  20.8430113  33.4053833  54.1856493  20.3360113  33.2263833  54.7556493
  32.5870113  43.4273833  55.2846493  32.5530113  43.8093833  56.0686493
  33.4410113  43.3853833  55.1136493  32.7080113  43.4773833  55.3756493
  29.7250113  43.6243833  40.0346493  29.5440113  44.1693833  40.6916493
  30.4910113  43.9143833  39.7336493  29.8110113  43.7483833  40.0876493
  21.1860113  32.6883833  43.6576493  21.0720113  31.8243833  43.6886493
  20.7110113  32.9823833  44.3276493  21.0990113  32.6043833  43.7606493
  23.3280113  45.0983833  51.8726493  22.6300113  44.5903833  51.9986493
  23.5880113  44.8933833  51.0646493  23.2630113  44.9933833  51.7716493
  24.6890113  43.9493833  54.4396493  25.5300113  44.0123833  54.2176493
  24.6520113  44.3463833  55.2156493  24.8080113  44.0173833  54.5216493
  20.2230113  43.7693833  57.9896493  20.9790113  44.1183833  58.2476493
  20.4000113  42.9163833  57.9326493  20.3610113  43.6943833  58.0196493
  24.1440113  32.8373833  46.8176493  24.4160113  32.4073833  46.1096493
  23.9680113  32.2013833  47.3886493  24.1580113  32.6803833  46.7976493
  23.9680113  40.2643833  46.3666493  24.8190113  40.1843833  46.1936493
  23.6110113  39.5823833  45.9546493  24.0410113  40.1513833  46.2796493
  22.7350113  46.9893833  47.6036493  22.0620113  46.4913833  47.3586493
  23.1380113  47.1743833  46.8526493  22.6950113  46.9433833  47.4566493
  22.2850113  33.9393833  49.8996493  23.1280113  34.1593833  49.8566493
  21.8960113  34.5123833  49.3686493  22.3520113  34.0563833  49.8146493
  20.4920113  41.9143833  47.9216493  19.8250113  42.4023833  48.1976493
  21.1720113  42.4593833  47.9506493  20.4940113  42.0663833  47.9666493
  28.1390113  35.6243833  58.0176493  27.6550113  36.2013833  58.4596493
  28.1110113  35.9193833  57.1966493  28.0630113  35.7533833  57.9616493
  20.5580113  38.5983833  43.0246493  20.3730113  37.7593833  43.1766493
  21.2170113  38.5623833  42.4546493  20.6280113  38.4693833  42.9626493
  20.7300113  42.7623833  42.5996493  21.2820113  43.3313833  42.9636493
  20.4980113  42.2473833  43.2646493  20.7770113  42.7703833  42.7516493
  20.5600113  41.2113833  40.2276493  21.3160113  40.7793833  40.2856493
  20.5750113  41.7433833  40.9186493  20.6740113  41.2263833  40.3386493
  21.5000113  39.4323833  48.2326493  21.9310113  39.3033833  47.4856493
  21.2950113  40.2803833  48.2066493  21.5330113  39.5383833  48.1186493
  23.7140113  36.4313833  56.3766493  23.1780113  35.9253833  56.8446493
  23.7340113  36.0413833  55.5966493  23.6370113  36.2983833  56.3306493
  24.1990113  35.8283833  41.5166493  24.0710113  35.3803833  42.2546493
  23.6170113  35.4863833  40.9646493  24.0940113  35.7113833  41.5446493
  24.3660113  37.6583833  48.1156493  23.5850113  37.5993833  47.7326493
  24.4380113  36.9063833  48.5526493  24.2610113  37.5393833  48.1236493
  24.7960113  37.3953833  51.5836493  24.8210113  36.7203833  51.0326493
  24.1500113  37.8913833  51.2716493  24.7050113  37.3683833  51.4566493
  22.5950113  38.7503833  57.1426493  22.5580113  39.2513833  56.4286493
  22.9260113  37.9983833  56.8476493  22.6380113  38.7123833  56.9936493
  28.4940113  43.8003833  56.5776493  28.8480113  43.6223833  57.3546493
  28.0580113  43.0713833  56.3786493  28.4820113  43.6663833  56.6636493
  26.5770113  46.3153833  43.1626493  26.4300113  45.5393833  43.5336493
  27.2660113  46.1683833  42.6476493  26.6570113  46.1783833  43.1416493
  26.2480113  30.0583833  41.1506493  26.3450113  29.9513833  42.0116493
  25.5400113  30.5643833  41.0856493  26.1580113  30.1173833  41.2686493
  32.1360113  44.8503833  57.8376493  32.3000113  45.1333833  58.6466493
  32.3990113  45.5113833  57.3326493  32.1990113  44.9903833  57.8826493
  36.9770113  29.7993833  56.5476493  36.3400113  29.3993833  56.1056493
  37.0030113  29.3683833  57.3056493  36.8870113  29.6773833  56.5936493
  23.3700113  38.3653833  42.3936493  23.6940113  37.5863833  42.1716493
  24.0160113  38.7333833  42.8486493  23.5130113  38.3043833  42.4276493
  20.3670113  30.0263833  43.3616493  20.4960113  29.3183833  42.8696493
  20.0000113  29.7083833  44.0866493  20.3320113  29.8743833  43.3966493
  24.5560113  32.2243833  40.3306493  24.0450113  32.2773833  39.6246493
  25.3400113  32.4643833  40.0346493  24.5960113  32.2673833  40.1826493
  26.0350113  46.4843833  39.1356493  26.4740113  45.7873833  39.4236493
  26.2420113  47.1083833  39.7086493  26.1310113  46.4733833  39.2626493
  23.1310113  39.4473833  50.5656493  23.8530113  39.9353833  50.5286493
  22.8610113  39.4173833  49.7366493  23.1980113  39.5153833  50.4376493
  26.3610113  34.6183833  47.3006493  27.2070113  34.4283833  47.3986493
  25.9910113  33.8413833  47.1626493  26.4310113  34.4753833  47.2946493
  21.1820113  35.9563833  43.9556493  21.6710113  35.6643833  44.6166493
  21.3110113  35.3633833  43.3286493  21.2730113  35.8253833  43.9606493
  22.5260113  40.4993833  54.8436493  22.1050113  39.9813833  54.2826493
  22.1740113  41.2853833  54.7006493  22.4120113  40.5393833  54.7396493
  20.6420113  31.8213833  48.6876493  20.6860113  32.1653833  47.8866493
  21.3970113  32.0583833  49.0546493  20.7600113  31.9073833  48.6236493
  25.2440113  41.2603833  54.8596493  24.4380113  40.9703833  55.0266493
  25.1550113  42.1283833  54.8656493  25.1120113  41.3453833  54.8846493
  26.4910113  34.3363833  53.6936493  26.6520113  33.5923833  54.1206493
  26.4460113  34.0873833  52.8586493  26.5080113  34.1893833  53.6336493
  28.2430113  30.1443833  53.5736493  28.9480113  30.4643833  53.1716493
  28.4840113  29.3373833  53.8006493  28.3820113  30.0723833  53.5476493
  24.7520113  35.1973833  49.6346493  25.1920113  35.0943833  48.8886493
  25.2970113  34.8843833  50.2396493  24.8970113  35.1363833  49.6136493
  28.2990113  30.1823833  49.6816493  27.4730113  30.0333833  49.9186493
  28.2590113  30.2173833  48.8106493  28.1710113  30.1653833  49.5876493
  20.8640113  30.5803833  55.7166493  20.7240113  31.3753833  55.3856493
  20.0780113  30.3373833  56.0056493  20.7270113  30.6623833  55.7106493
  25.7700113  47.4293833  49.7866493  25.7810113  47.4883833  50.6566493
  25.3450113  46.6823833  49.6366493  25.7090113  47.3273833  49.8926493
  23.9280113  33.3243833  42.9416493  24.0540113  32.9953833  42.1436493
  23.1160113  33.0753833  43.1406493  23.8270113  33.2393833  42.8536493
  22.5340113  46.9273833  55.2286493  21.8800113  46.3583833  55.3266493
  22.1590113  47.7003833  55.3796493  22.3820113  46.9573833  55.2656493
  36.2140113  44.3903833  57.5906493  36.9900113  44.0003833  57.6736493
  35.7450113  44.0543833  58.2456493  36.2590113  44.2833833  57.6996493
  23.9050113  35.3353833  53.3576493  24.2800113  35.9543833  52.8706493
  24.5790113  34.8613833  53.6426493  24.0600113  35.3573833  53.3276493
  24.2340113  31.1933833  55.0436493  24.1530113  30.3493833  55.2496493
  23.9200113  31.2373833  54.2306493  24.1760113  31.0753833  54.9536493
  21.0770113  39.0093833  52.8566493  21.3970113  39.2283833  52.0756493
  20.9770113  38.1443833  52.8016493  21.1090113  38.9143833  52.7336493
  22.5330113  34.9453833  39.4746493  21.8610113  34.9593833  40.0306493
  22.6280113  34.0973833  39.2906493  22.4480113  34.8223833  39.5296493
  32.2200113  31.3693833  56.2106493  32.3120113  32.0813833  56.7046493
  31.5830113  30.9243833  56.6076493  32.1390113  31.4083833  56.3426493
  26.5210113  43.6503833  40.5886493  26.9620113  43.7303833  41.3366493
  25.7160113  43.4343833  40.8466493  26.4670113  43.6303833  40.7376493
  25.8400113  38.3013833  54.2416493  25.4440113  39.0753833  54.3166493
  25.4340113  37.9283833  53.5656493  25.7220113  38.3603833  54.1526493
  23.8500113  42.7203833  41.1896493  23.6060113  42.4133833  41.9696493
  23.8170113  42.0173833  40.6736493  23.8090113  42.5713833  41.2286493
  26.6690113  40.9653833  39.9326493  25.8510113  40.6973833  40.0726493
  26.6410113  41.8173833  40.1176493  26.5440113  41.0523833  39.9806493
  26.2690113  31.2783833  51.6916493  25.4050113  31.3623833  51.7716493
  26.4890113  30.7643833  52.3606493  26.1740113  31.2153833  51.8026493
  32.6380113  47.0883833  56.0996493  31.8850113  47.0703833  55.6586493
  32.8060113  47.9403833  56.1836493  32.5520113  47.2113833  56.0466493
  27.8750113  36.3553833  55.2696493  27.5530113  35.7793833  54.6996493
  27.5160113  37.1103833  55.0236493  27.7750113  36.3813833  55.1496493
  26.3100113  46.7113833  55.5176493  26.3510113  46.8373833  56.3806493
  26.9610113  46.1513833  55.3616493  26.4120113  46.6473833  55.6226493
  23.4890113  31.3613833  52.3396493  23.1460113  30.5943833  52.1056493
  22.7940113  31.8853833  52.4036493  23.3360113  31.3253833  52.3146493
  23.9030113  45.0943833  56.8776493  24.4980113  45.5253833  57.3496493
  23.5390113  45.7183833  56.3886493  23.9370113  45.2503833  56.8746493
  22.1420113  34.6753833  46.2956493  21.7740113  34.9773833  47.0266493
  22.6760113  34.0463833  46.5796493  22.1660113  34.6273833  46.4456493
  21.8300113  43.0833833  53.8066493  21.2560113  43.4993833  54.3156493
  22.5630113  43.5483833  53.9016493  21.8540113  43.2133833  53.8956493
  23.6160113  46.3503833  42.5816493  23.4710113  46.5063833  41.7356493
  24.4820113  46.4293833  42.6596493  23.7230113  46.3853833  42.4686493
  26.9220113  31.7223833  55.4256493  27.1560113  31.1463833  54.8126493
  26.0800113  31.5413833  55.5666493  26.8320113  31.6103833  55.3556493
  24.3030113  45.1653833  49.0586493  24.2240113  44.3553833  48.7426493
  23.8590113  45.6523833  48.4866493  24.2260113  45.1173833  48.9276493
  21.8750113  47.4093833  52.6396493  22.3680113  47.3533833  53.3576493
  22.0630113  46.6763833  52.2046493  21.9760113  47.2923833  52.6816493
  20.9910113  40.9813833  25.9074083  20.5500113  41.0993833  26.6504083
  20.7080113  40.2063833  25.6224083  20.8840113  40.8843833  25.9754083
  20.7340113  34.7733833  22.4144083  19.9560113  34.9353833  22.0544083
  20.7730113  33.9023833  22.4364083  20.6250113  34.6683833  22.3644083
  23.8730113  40.0363833  21.0864083  23.4810113  39.6653833  20.4004083
  23.7930113  39.4383833  21.7154083  23.8030113  39.8933833  21.0774083
  23.5000113  41.6773833  24.9864083  24.1080113  41.5073833  25.5894083
  22.7490113  41.5373833  25.4074083  23.4790113  41.6313833  25.1374083
  27.7820113  31.0123833  24.9354083  27.7120113  31.6893833  24.3894083
  28.5230113  30.6243833  24.6864083  27.8810113  31.0553833  24.8174083
  22.3910113  44.7683833  21.0634083  22.8580113  44.8523833  20.3314083
  22.8460113  44.1903833  21.5324083  22.5270113  44.6953833  21.0244083
  20.9310113  43.7163833  32.1624083  21.0600113  43.4363833  32.9784083
  20.3210113  43.1753833  31.8534083  20.8600113  43.5953833  32.2374083
  22.3770113  38.2373833  26.3644083  21.9150113  37.8453833  25.7374083
  23.0770113  37.7243833  26.4564083  22.4120113  38.1043833  26.2854083
  26.8850113  33.8473833  31.7114083  27.5630113  33.8653833  31.1624083
  26.8400113  33.0113833  31.9564083  26.9780113  33.7263833  31.6664083
  27.4870113  44.4333833  34.4924083  27.6250113  45.1933833  34.0854083
  28.2780113  44.0683833  34.5194083  27.6240113  44.4923833  34.4364083
  24.3780113  36.3373833  26.3874083  25.1950113  36.1503833  26.6304083
  23.9010113  35.7233833  26.7834083  24.4280113  36.2193833  26.4824083
  28.6390113  41.7673833  25.2084083  28.9700113  41.1233833  25.6944083
  28.8790113  41.5563833  24.3974083  28.7230113  41.6413833  25.1604083
  24.9750113  31.4313833  25.6534083  24.6790113  31.9323833  25.0034083
  25.8420113  31.5093833  25.5964083  25.0590113  31.5173833  25.5494083
  27.9540113  30.5733833  27.8764083  28.0270113  31.4333833  28.0054083
  27.9160113  30.4983833  27.0084083  27.9590113  30.6893833  27.7674083
  32.6270113  33.4993833  20.1754083  32.1770113  34.1803833  20.4824083
  32.7410113  32.9953833  20.8784083  32.5780113  33.5253833  20.3244083
  20.8330113  35.9983833  29.3774083  20.5770113  36.8293833  29.3024083
  20.1690113  35.6153833  29.7944083  20.6970113  36.0643833  29.4284083
  20.7430113  45.7083833  27.2774083  20.1510113  46.2663833  26.9644083
  21.1690113  45.4393833  26.5654083  20.7190113  45.7503833  27.1264083
  26.5830113  43.5523833  24.7574083  26.0040113  43.2773833  25.3494083
  27.2070113  42.9433833  24.7824083  26.5900113  43.4223833  24.8484083
  32.7260113  45.8403833  22.2794083  33.4530113  46.3123833  22.3814083
  32.9550113  45.0463833  22.5594083  32.8680113  45.7933833  22.3364083
  30.8940113  46.2323833  24.2694083  31.1080113  46.7593833  24.9314083
  31.6610113  46.0583833  23.8904083  31.0390113  46.2843833  24.3114083
  23.8620113  30.8153833  29.8684083  23.3410113  30.1873833  29.5604083
  24.4530113  30.3783833  30.3394083  23.8730113  30.6573833  29.8924083
  22.2880113  44.3783833  25.2084083  22.9440113  43.8033833  25.2234083
  22.6770113  45.1273833  24.9874083  22.4430113  44.4033833  25.1784083
  33.3330113  46.2423833  32.5744083  34.0770113  46.6983833  32.5644083
  33.2120113  46.0283833  31.7374083  33.4250113  46.2783833  32.4494083
  22.9010113  32.5453833  38.1504083  22.1230113  32.1553833  38.0784083
  23.3920113  32.1333833  37.5594083  22.8580113  32.4263833  38.0524083
  23.1060113  42.8653833  28.7084083  23.5290113  42.5093833  28.0344083
  23.4300113  42.4433833  29.4004083  23.2160113  42.7503833  28.7114083
  26.3370113  45.7173833  28.0044083  27.1810113  45.8213833  27.8094083
  26.0400113  46.5353833  28.0724083  26.4180113  45.8533833  27.9854083
  30.1440113  35.1143833  26.0914083  30.4310113  34.8823833  25.3014083
  30.8760113  35.1933833  26.5604083  30.2940113  35.0913833  26.0444083
  34.9070113  47.4273833  22.6794083  35.5720113  47.2793833  22.1344083
  35.2670113  47.3443833  23.4694083  35.0590113  47.3933833  22.7154083
  20.2490113  33.0933833  35.7364083  20.2450113  33.6803833  36.3824083
  20.8430113  33.4053833  35.1794083  20.3360113  33.2263833  35.7494083
  32.5870113  43.4273833  36.2784083  32.5530113  43.8093833  37.0624083
  33.4410113  43.3853833  36.1074083  32.7080113  43.4773833  36.3694083
  29.7250113  43.6243833  21.0284083  29.5440113  44.1693833  21.6854083
  30.4910113  43.9143833  20.7274083  29.8110113  43.7483833  21.0814083
  33.2320113  31.5203833  22.0824083  33.7720113  30.8383833  22.1584083
  33.2940113  31.9183833  22.8564083  33.3210113  31.4783833  22.2084083
  21.1860113  32.6883833  24.6514083  21.0720113  31.8243833  24.6824083
  20.7110113  32.9823833  25.3214083  21.0990113  32.6043833  24.7544083
  23.3280113  45.0983833  32.8664083  22.6300113  44.5903833  32.9924083
  23.5880113  44.8933833  32.0584083  23.2630113  44.9933833  32.7654083
  30.4900113  33.8963833  23.3964083  29.9820113  33.2343833  23.1424083
  30.5420113  34.4003833  22.6864083  30.4230113  33.8733833  23.2544083
  31.0390113  46.5913833  33.7764083  31.8070113  46.5113833  33.3704083
  30.4560113  46.4703833  33.1384083  31.0660113  46.5613833  33.6224083
  30.4900113  30.8373833  23.2874083  30.0350113  30.4353833  22.6614083
  31.2630113  30.9923833  22.9124083  30.5370113  30.8013833  23.1394083
  29.0880113  33.2043833  27.8094083  29.1620113  33.7723833  27.1514083
  29.2090113  33.6963833  28.5194083  29.1160113  33.3613833  27.8174083
  24.6890113  43.9493833  35.4334083  25.5300113  44.0123833  35.2114083
  24.6520113  44.3463833  36.2094083  24.8080113  44.0173833  35.5154083
  23.6960113  29.0273833  26.1574083  24.2320113  29.7153833  26.1474083
  23.6990113  28.7533833  25.3294083  23.7750113  29.0883833  26.0334083
  26.6520113  39.4603833  30.1824083  26.8240113  39.2503833  31.0114083
  25.9970113  38.9263833  29.9664083  26.5810113  39.3503833  30.2734083
  20.2230113  43.7693833  38.9834083  20.9790113  44.1183833  39.2414083
  20.4000113  42.9163833  38.9264083  20.3610113  43.6943833  39.0134083
  24.1440113  32.8373833  27.8114083  24.4160113  32.4073833  27.1034083
  23.9680113  32.2013833  28.3824083  24.1580113  32.6803833  27.7914083
  36.8320113  40.5323833  22.0294083  36.9510113  40.2453833  22.8444083
  37.6390113  40.5533833  21.6994083  36.9680113  40.4933833  22.1014083
  22.7350113  46.9893833  28.5974083  22.0620113  46.4913833  28.3524083
  23.1380113  47.1743833  27.8464083  22.6950113  46.9433833  28.4504083
  22.2850113  33.9393833  30.8934083  23.1280113  34.1593833  30.8504083
  21.8960113  34.5123833  30.3624083  22.3520113  34.0563833  30.8084083
  39.0660113  45.0413833  36.2834083  38.3840113  45.3513833  35.8364083
  38.6970113  44.5833833  36.9284083  38.9100113  45.0193833  36.3124083
  34.7270113  37.0693833  21.6144083  34.5070113  37.8003833  21.1924083
  34.2790113  37.1203833  22.3614083  34.6280113  37.1843833  21.6624083
  26.3360113  40.2713833  25.5954083  27.0490113  40.7663833  25.6854083
  26.5580113  39.7043833  24.9694083  26.4740113  40.2603833  25.5164083
  20.4920113  41.9143833  28.9154083  19.8250113  42.4023833  29.1914083
  21.1720113  42.4593833  28.9444083  20.4940113  42.0663833  28.9604083
  20.5580113  38.5983833  24.0184083  20.3730113  37.7593833  24.1704083
  21.2170113  38.5623833  23.4484083  20.6280113  38.4693833  23.9564083
  20.7300113  42.7623833  23.5934083  21.2820113  43.3313833  23.9574083
  20.4980113  42.2473833  24.2584083  20.7770113  42.7703833  23.7454083
  24.9340113  41.7623833  30.6824083  25.4010113  42.0513833  31.3604083
  25.5060113  41.2843833  30.2284083  25.0880113  41.7343833  30.7154083
  20.5600113  41.2113833  21.2214083  21.3160113  40.7793833  21.2794083
  20.5750113  41.7433833  21.9124083  20.6740113  41.2263833  21.3324083
  21.5000113  39.4323833  29.2264083  21.9310113  39.3033833  28.4794083
  21.2950113  40.2803833  29.2004083  21.5330113  39.5383833  29.1124083
  27.8460113  32.9963833  22.8764083  27.8440113  32.8793833  22.0114083
  27.6650113  33.8443833  22.9684083  27.8190113  33.1043833  22.7624083
  36.9000113  45.4233833  34.3734083  36.2290113  45.9373833  34.5914083
  36.9630113  45.5233833  33.5094083  36.8100113  45.5143833  34.2784083
  25.5840113  42.9483833  27.5084083  25.7100113  43.7913833  27.6954083
  26.2520113  42.5493833  27.9044083  25.7020113  43.0143833  27.5944083
  23.7140113  36.4313833  37.3704083  23.1780113  35.9253833  37.8384083
  23.7340113  36.0413833  36.5904083  23.6370113  36.2983833  37.3244083
  24.1990113  35.8283833  22.5104083  24.0710113  35.3803833  23.2484083
  23.6170113  35.4863833  21.9584083  24.0940113  35.7113833  22.5384083
  24.3660113  37.6583833  29.1094083  23.5850113  37.5993833  28.7264083
  24.4380113  36.9063833  29.5464083  24.2610113  37.5393833  29.1174083
  24.7960113  37.3953833  32.5774083  24.8210113  36.7203833  32.0264083
  24.1500113  37.8913833  32.2654083  24.7050113  37.3683833  32.4504083
  28.8960113  46.1723833  31.9694083  28.6190113  45.5313833  31.4464083
  28.6880113  46.8983833  31.5314083  28.8250113  46.1853833  31.8274083
  32.8840113  33.0773833  24.4844083  33.3740113  33.7943833  24.4074083
  32.0940113  33.3383833  24.2214083  32.8400113  33.2213833  24.4344083
  22.5950113  38.7503833  38.1364083  22.5580113  39.2513833  37.4224083
  22.9260113  37.9983833  37.8414083  22.6380113  38.7123833  37.9874083
  28.4940113  43.8003833  37.5714083  28.8480113  43.6223833  38.3484083
  28.0580113  43.0713833  37.3724083  28.4820113  43.6663833  37.6574083
  31.6550113  37.7163833  22.4834083  31.6470113  38.4383833  21.9934083
  31.0160113  37.8513833  23.0604083  31.5600113  37.8433833  22.4964083
  26.5770113  46.3153833  24.1564083  26.4300113  45.5393833  24.5274083
  27.2660113  46.1683833  23.6414083  26.6570113  46.1783833  24.1354083
  26.2480113  30.0583833  22.1444083  26.3450113  29.9513833  23.0054083
  25.5400113  30.5643833  22.0794083  26.1580113  30.1173833  22.2624083
  28.8690113  45.8313833  22.5584083  29.4910113  45.9943833  23.1484083
  28.9050113  46.5223833  22.0264083  28.9660113  45.9573833  22.5674083
  23.3700113  38.3653833  23.3874083  23.6940113  37.5863833  23.1654083
  24.0160113  38.7333833  23.8424083  23.5130113  38.3043833  23.4214083
  20.3670113  30.0263833  24.3554083  20.4960113  29.3183833  23.8634083
  20.0000113  29.7083833  25.0804083  20.3320113  29.8743833  24.3904083
  30.0600113  37.7073833  24.8124083  30.1190113  38.3573833  25.3914083
  29.8710113  37.0113833  25.3034083  30.0410113  37.7003833  24.9704083
  24.5560113  32.2243833  21.3244083  24.0450113  32.2773833  20.6184083
  25.3400113  32.4643833  21.0284083  24.5960113  32.2673833  21.1764083
  26.0350113  46.4843833  20.1294083  26.4740113  45.7873833  20.4174083
  26.2420113  47.1083833  20.7024083  26.1310113  46.4733833  20.2564083
  23.1310113  39.4473833  31.5594083  23.8530113  39.9353833  31.5224083
  22.8610113  39.4173833  30.7304083  23.1980113  39.5153833  31.4314083
  26.3610113  34.6183833  28.2944083  27.2070113  34.4283833  28.3924083
  25.9910113  33.8413833  28.1564083  26.4310113  34.4753833  28.2884083
  38.9780113  46.2023833  22.6214083  39.6720113  45.7353833  22.3734083
  38.4390113  45.6043833  22.9584083  39.0010113  46.0443833  22.6344083
  21.1820113  35.9563833  24.9494083  21.6710113  35.6643833  25.6104083
  21.3110113  35.3633833  24.3224083  21.2730113  35.8253833  24.9544083
  25.7070113  37.3903833  20.4354083  25.0970113  36.9853833  20.9094083
  25.3210113  37.5083833  19.6624083  25.5600113  37.3473833  20.3914083
  22.5260113  40.4993833  35.8374083  22.1050113  39.9813833  35.2764083
  22.1740113  41.2853833  35.6944083  22.4120113  40.5393833  35.7334083
  27.1620113  35.8513833  23.1454083  27.4340113  36.6773833  23.2124083
  26.2990113  35.9263833  23.0494083  27.0750113  35.9843833  23.1404083
  20.6420113  31.8213833  29.6814083  20.6860113  32.1653833  28.8804083
  21.3970113  32.0583833  30.0484083  20.7600113  31.9073833  29.6174083
  35.2090113  43.2853833  21.7484083  35.5430113  42.4793833  21.7834083
  34.4540113  43.2133833  22.1784083  35.1470113  43.1553833  21.8174083
  32.5830113  41.1603833  21.1514083  33.2670113  40.6463833  20.9824083
  32.1660113  41.2063833  20.3864083  32.6220113  41.0913833  21.0134083
  25.2440113  41.2603833  35.8534083  24.4380113  40.9703833  36.0204083
  25.1550113  42.1283833  35.8594083  25.1120113  41.3453833  35.8784083
  29.0450113  46.1263833  27.1744083  29.5910113  46.8053833  27.2284083
  28.6950113  46.2083833  26.3794083  29.0740113  46.2393833  27.0644083
  28.2430113  30.1443833  34.5674083  28.9480113  30.4643833  34.1654083
  28.4840113  29.3373833  34.7944083  28.3820113  30.0723833  34.5414083
  27.2280113  44.3543833  30.5634083  26.6040113  44.9363833  30.3814083
  27.4760113  44.0683833  29.7774083  27.1720113  44.3983833  30.4204083
  35.4460113  43.5383833  36.0564083  35.7920113  43.8083833  36.8104083
  35.7400113  44.1203833  35.4764083  35.5410113  43.6643833  36.0824083
  28.8220113  39.1303833  20.4784083  28.0170113  38.9533833  20.1934083
  28.7890113  39.9813833  20.6704083  28.6980113  39.2293833  20.4654083
  24.7520113  35.1973833  30.6284083  25.1920113  35.0943833  29.8824083
  25.2970113  34.8843833  31.2334083  24.8970113  35.1363833  30.6074083
  29.8810113  46.0033833  36.4434083  30.3590113  45.4033833  36.0274083
  29.5300113  45.5603833  37.1084083  29.9000113  45.8493833  36.4804083
  28.2990113  30.1823833  30.6754083  27.4730113  30.0333833  30.9124083
  28.2590113  30.2173833  29.8044083  28.1710113  30.1653833  30.5814083
  20.8640113  30.5803833  36.7104083  20.7240113  31.3753833  36.3794083
  20.0780113  30.3373833  36.9994083  20.7270113  30.6623833  36.7044083
  25.7700113  47.4293833  30.7804083  25.7810113  47.4883833  31.6504083
  25.3450113  46.6823833  30.6304083  25.7090113  47.3273833  30.8864083
  23.9280113  33.3243833  23.9354083  24.0540113  32.9953833  23.1374083
  23.1160113  33.0753833  24.1344083  23.8270113  33.2393833  23.8474083
  30.4290113  43.8693833  34.5714083  31.1160113  43.7553833  35.0964083
  30.5630113  44.6603833  34.2274083  30.5500113  43.9693833  34.5984083
  22.5340113  46.9273833  36.2224083  21.8800113  46.3583833  36.3204083
  22.1590113  47.7003833  36.3734083  22.3820113  46.9573833  36.2594083
  36.2140113  44.3903833  38.5844083  36.9900113  44.0003833  38.6674083
  35.7450113  44.0543833  39.2394083  36.2590113  44.2833833  38.6934083
  23.9050113  35.3353833  34.3514083  24.2800113  35.9543833  33.8644083
  24.5790113  34.8613833  34.6364083  24.0600113  35.3573833  34.3214083
  21.6800113  33.7833833  33.6264083  21.7570113  33.6143833  32.7734083
  22.4260113  34.1893833  33.8234083  21.8010113  33.8183833  33.5294083
  24.2340113  31.1933833  36.0374083  24.1530113  30.3493833  36.2434083
  23.9200113  31.2373833  35.2244083  24.1760113  31.0753833  35.9474083
  31.1590113  43.3883833  25.1734083  30.9540113  44.2213833  25.0144083
  30.3840113  43.0063833  25.2954083  31.0140113  43.4553833  25.1684083
  21.0770113  39.0093833  33.8504083  21.3970113  39.2283833  33.0694083
  20.9770113  38.1443833  33.7954083  21.1090113  38.9143833  33.7274083
  22.5330113  34.9453833  20.4684083  21.8610113  34.9593833  21.0244083
  22.6280113  34.0973833  20.2844083  22.4480113  34.8223833  20.5234083
  26.5210113  43.6503833  21.5824083  26.9620113  43.7303833  22.3304083
  25.7160113  43.4343833  21.8404083  26.4670113  43.6303833  21.7314083
  23.8500113  42.7203833  22.1834083  23.6060113  42.4133833  22.9634083
  23.8170113  42.0173833  21.6674083  23.8090113  42.5713833  22.2224083
  26.6690113  40.9653833  20.9264083  25.8510113  40.6973833  21.0664083
  26.6410113  41.8173833  21.1114083  26.5440113  41.0523833  20.9744083
  26.2690113  31.2783833  32.6854083  25.4050113  31.3623833  32.7654083
  26.4890113  30.7643833  33.3544083  26.1740113  31.2153833  32.7964083
  30.3720113  32.0263833  31.0594083  29.6350113  31.5723833  31.1724083
  30.9430113  31.6243833  31.5824083  30.3470113  31.8993833  31.1534083
  28.6710113  29.6073833  20.8904083  28.7490113  29.8543833  20.0574083
  27.9280113  29.9843833  21.1484083  28.5730113  29.6993833  20.8054083
  26.3100113  46.7113833  36.5114083  26.3510113  46.8373833  37.3744083
  26.9610113  46.1513833  36.3554083  26.4120113  46.6473833  36.6164083
  23.9030113  45.0943833  37.8714083  24.4980113  45.5253833  38.3434083
  23.5390113  45.7183833  37.3824083  23.9370113  45.2503833  37.8684083
  22.1420113  34.6753833  27.2894083  21.7740113  34.9773833  28.0204083
  22.6760113  34.0463833  27.5734083  22.1660113  34.6273833  27.4394083
  21.8300113  43.0833833  34.8004083  21.2560113  43.4993833  35.3094083
  22.5630113  43.5483833  34.8954083  21.8540113  43.2133833  34.8894083
  23.6160113  46.3503833  23.5754083  23.4710113  46.5063833  22.7294083
  24.4820113  46.4293833  23.6534083  23.7230113  46.3853833  23.4624083
  27.7830113  38.7473833  23.3034083  27.8830113  38.8863833  22.4484083
  28.6010113  38.6873833  23.5994083  27.9180113  38.7583833  23.2204083
  36.9430113  46.8113833  20.7834083  37.5800113  46.6773833  21.3644083
  36.6020113  46.0173833  20.6664083  36.9870113  46.6743833  20.8514083
  33.0180113  43.0763833  23.1054083  32.7670113  42.9483833  23.9314083
  32.7010113  42.3813833  22.6844083  32.9340113  42.9553833  23.1654083
  26.9220113  31.7223833  36.4194083  27.1560113  31.1463833  35.8064083
  26.0800113  31.5413833  36.5604083  26.8320113  31.6103833  36.3494083
  24.3030113  45.1653833  30.0524083  24.2240113  44.3553833  29.7364083
  23.8590113  45.6523833  29.4804083  24.2260113  45.1173833  29.9214083
  29.9040113  41.2843833  22.5354083  30.6210113  40.9373833  22.1794083
  29.8700113  42.0843833  22.1874083  30.0050113  41.3513833  22.4314083
  21.8750113  47.4093833  33.6334083  22.3680113  47.3533833  34.3514083
  22.0630113  46.6763833  33.1984083  21.9760113  47.2923833  33.6754083
  31.3130113  29.9253833   6.7741673  31.0680113  30.4133833   6.0941673
  32.1760113  29.8523833   6.6741673  31.4040113  29.9863833   6.6591673
  31.1220113  36.8413833  11.4451673  30.5980113  37.4373833  11.8081673
  31.5190113  36.4733833  12.1291673  31.1030113  36.8753833  11.6001673
  20.9910113  40.9813833   6.9011673  20.5500113  41.0993833   7.6441673
  20.7080113  40.2063833   6.6161673  20.8840113  40.8843833   6.9691673
  37.2660113  44.2823833   4.4161673  37.9670113  43.7633833   4.4121673
  36.6790113  43.8373833   3.9471673  37.2830113  44.1393833   4.3461673
  20.7340113  34.7733833   3.4081673  19.9560113  34.9353833   3.0481673
  20.7730113  33.9023833   3.4301673  20.6250113  34.6683833   3.3581673
  23.8730113  40.0363833   2.0801673  23.4810113  39.6653833   1.3941673
  23.7930113  39.4383833   2.7091673  23.8030113  39.8933833   2.0711673
  33.7930113  37.9083833   8.1211673  33.8730113  37.9123833   7.2521673
  33.2090113  37.2763833   8.2701673  33.7180113  37.8153833   8.0151673
  23.5000113  41.6773833   5.9801673  24.1080113  41.5073833   6.5831673
  22.7490113  41.5373833   6.4011673  23.4790113  41.6313833   6.1311673
  27.7820113  31.0123833   5.9291673  27.7120113  31.6893833   5.3831673
  28.5230113  30.6243833   5.6801673  27.8810113  31.0553833   5.8111673
  22.3910113  44.7683833   2.0571673  22.8580113  44.8523833   1.3251673
  22.8460113  44.1903833   2.5261673  22.5270113  44.6953833   2.0181673
  20.9310113  43.7163833  13.1561673  21.0600113  43.4363833  13.9721673
  20.3210113  43.1753833  12.8471673  20.8600113  43.5953833  13.2311673
  27.5050113  41.2413833  18.2231673  27.2690113  41.2383833  19.0631673
  26.7570113  41.0933833  17.7991673  27.3590113  41.2183833  18.2841673
  22.3770113  38.2373833   7.3581673  21.9150113  37.8453833   6.7311673
  23.0770113  37.7243833   7.4501673  22.4120113  38.1043833   7.2791673
  26.8850113  33.8473833  12.7051673  27.5630113  33.8653833  12.1561673
  26.8400113  33.0113833  12.9501673  26.9780113  33.7263833  12.6601673
  27.4870113  44.4333833  15.4861673  27.6250113  45.1933833  15.0791673
  28.2780113  44.0683833  15.5131673  27.6240113  44.4923833  15.4301673
  24.3780113  36.3373833   7.3811673  25.1950113  36.1503833   7.6241673
  23.9010113  35.7233833   7.7771673  24.4280113  36.2193833   7.4761673
  28.5820113  42.3183833   9.9911673  28.9300113  41.5193833  10.0211673
  29.2470113  42.8223833   9.7361673  28.7320113  42.2743833   9.9581673
  28.6390113  41.7673833   6.2021673  28.9700113  41.1233833   6.6881673
  28.8790113  41.5563833   5.3911673  28.7230113  41.6413833   6.1541673
  30.6070113  35.8983833  17.5411673  29.7590113  35.7993833  17.3631673
  30.6360113  36.6433833  17.9951673  30.4860113  35.9943833  17.5821673
  24.9750113  31.4313833   6.6471673  24.6790113  31.9323833   5.9971673
  25.8420113  31.5093833   6.5901673  25.0590113  31.5173833   6.5431673
  27.9540113  30.5733833   8.8701673  28.0270113  31.4333833   8.9991673
  27.9160113  30.4983833   8.0021673  27.9590113  30.6893833   8.7611673
  20.8330113  35.9983833  10.3711673  20.5770113  36.8293833  10.2961673
  20.1690113  35.6153833  10.7881673  20.6970113  36.0643833  10.4221673
  20.7430113  45.7083833   8.2711673  20.1510113  46.2663833   7.9581673
  21.1690113  45.4393833   7.5591673  20.7190113  45.7503833   8.1201673
  26.5830113  43.5523833   5.7511673  26.0040113  43.2773833   6.3431673
  27.2070113  42.9433833   5.7761673  26.5900113  43.4223833   5.8421673
  32.7260113  45.8403833   3.2731673  33.4530113  46.3123833   3.3751673
  32.9550113  45.0463833   3.5531673  32.8680113  45.7933833   3.3301673
  30.8940113  46.2323833   5.2631673  31.1080113  46.7593833   5.9251673
  31.6610113  46.0583833   4.8841673  31.0390113  46.2843833   5.3051673
  23.8620113  30.8153833  10.8621673  23.3410113  30.1873833  10.5541673
  24.4530113  30.3783833  11.3331673  23.8730113  30.6573833  10.8861673
  27.1680113  32.9483833  20.1601673  27.2850113  32.4943833  19.4241673
  27.4560113  33.7463833  19.9571673  27.2280113  32.9993833  20.0211673
  22.2880113  44.3783833   6.2021673  22.9440113  43.8033833   6.2171673
  22.6770113  45.1273833   5.9811673  22.4430113  44.4033833   6.1721673
  38.0210113  33.4723833   7.4641673  37.6750113  34.1503833   7.8901673
  37.3850113  32.8743833   7.4801673  37.8760113  33.4843833   7.5291673
  33.3330113  46.2423833  13.5681673  34.0770113  46.6983833  13.5581673
  33.2120113  46.0283833  12.7311673  33.4250113  46.2783833  13.4431673
  22.9010113  32.5453833  19.1441673  22.1230113  32.1553833  19.0721673
  23.3920113  32.1333833  18.5531673  22.8580113  32.4263833  19.0461673
  23.1060113  42.8653833   9.7021673  23.5290113  42.5093833   9.0281673
  23.4300113  42.4433833  10.3941673  23.2160113  42.7503833   9.7051673
  26.3370113  45.7173833   8.9981673  27.1810113  45.8213833   8.8031673
  26.0400113  46.5353833   9.0661673  26.4180113  45.8533833   8.9791673
  29.5500113  30.1883833  18.3121673  29.7280113  29.3793833  18.0371673
  29.4070113  30.6293833  17.5731673  29.5550113  30.1343833  18.1621673
  30.1440113  35.1143833   7.0851673  30.4310113  34.8823833   6.2951673
  30.8760113  35.1933833   7.5541673  30.2940113  35.0913833   7.0381673
  30.8660113  35.4533833   2.2061673  31.1470113  36.2413833   2.4551673
  30.0900113  35.6183833   1.8431673  30.7930113  35.5943833   2.1891673
  34.9070113  47.4273833   3.6731673  35.5720113  47.2793833   3.1281673
  35.2670113  47.3443833   4.4631673  35.0590113  47.3933833   3.7091673
  25.3350113  46.9363833  14.7381673  25.6270113  46.8693833  15.5581673
  24.7090113  46.3313833  14.6931673  25.2860113  46.8373833  14.8531673
  37.6960113  31.7953833  12.8331673  38.4530113  31.8673833  12.4051673
  37.7590113  31.0223833  13.2321673  37.8170113  31.6923833  12.8281673
  20.2490113  33.0933833  16.7301673  20.2450113  33.6803833  17.3761673
  20.8430113  33.4053833  16.1731673  20.3360113  33.2263833  16.7431673
  32.5870113  43.4273833  17.2721673  32.5530113  43.8093833  18.0561673
  33.4410113  43.3853833  17.1011673  32.7080113  43.4773833  17.3631673
  29.7250113  43.6243833   2.0221673  29.5440113  44.1693833   2.6791673
  30.4910113  43.9143833   1.7211673  29.8110113  43.7483833   2.0751673
  33.2320113  31.5203833   3.0761673  33.7720113  30.8383833   3.1521673
  33.2940113  31.9183833   3.8501673  33.3210113  31.4783833   3.2021673
  21.1860113  32.6883833   5.6451673  21.0720113  31.8243833   5.6761673
  20.7110113  32.9823833   6.3151673  21.0990113  32.6043833   5.7481673
  23.3280113  45.0983833  13.8601673  22.6300113  44.5903833  13.9861673
  23.5880113  44.8933833  13.0521673  23.2630113  44.9933833  13.7591673
  30.4900113  33.8963833   4.3901673  29.9820113  33.2343833   4.1361673
  30.5420113  34.4003833   3.6801673  30.4230113  33.8733833   4.2481673
  31.0390113  46.5913833  14.7701673  31.8070113  46.5113833  14.3641673
  30.4560113  46.4703833  14.1321673  31.0660113  46.5613833  14.6161673
  30.4900113  30.8373833   4.2811673  30.0350113  30.4353833   3.6551673
  31.2630113  30.9923833   3.9061673  30.5370113  30.8013833   4.1331673
  37.3160113  47.1943833   7.6711673  36.8610113  47.9113833   7.8721673
  36.7020113  46.6233833   7.4291673  37.1580113  47.2163833   7.6651673
  29.0880113  33.2043833   8.8031673  29.1620113  33.7723833   8.1451673
  29.2090113  33.6963833   9.5131673  29.1160113  33.3613833   8.8111673
  34.3130113  43.0393833   7.2151673  35.0140113  42.5573833   7.4041673
  33.6530113  42.4703833   7.2601673  34.3190113  42.8843833   7.2491673
  24.6890113  43.9493833  16.4271673  25.5300113  44.0123833  16.2051673
  24.6520113  44.3463833  17.2031673  24.8080113  44.0173833  16.5091673
  23.6960113  29.0273833   7.1511673  24.2320113  29.7153833   7.1411673
  23.6990113  28.7533833   6.3231673  23.7750113  29.0883833   7.0271673
  26.6520113  39.4603833  11.1761673  26.8240113  39.2503833  12.0051673
  25.9970113  38.9263833  10.9601673  26.5810113  39.3503833  11.2671673
  32.8800113  33.3743833  14.6911673  32.7850113  33.6933833  15.4971673
  32.2870113  32.7353833  14.6531673  32.7780113  33.3263833  14.8051673
  27.4020113  39.3983833  13.7661673  27.4550113  40.2453833  13.9681673
  27.1170113  39.0283833  14.5031673  27.3680113  39.4683833  13.9041673
  33.5790113  40.0933833  12.8961673  33.0650113  39.6813833  13.4671673
  33.4530113  40.9373833  13.0771673  33.4850113  40.1573833  13.0071673
  34.1360113  29.3183833   7.5271673  34.1850113  29.0003833   8.3381673
  34.4590113  28.6743833   7.0341673  34.1910113  29.1763833   7.5741673
  20.2230113  43.7693833  19.9771673  20.9790113  44.1183833  20.2351673
  20.4000113  42.9163833  19.9201673  20.3610113  43.6943833  20.0071673
  36.6000113  33.5543833  15.8351673  37.3720113  33.3293833  16.1721673
  36.1250113  33.7713833  16.5351673  36.6440113  33.5533833  15.9881673
  24.1440113  32.8373833   8.8051673  24.4160113  32.4073833   8.0971673
  23.9680113  32.2013833   9.3761673  24.1580113  32.6803833   8.7851673
  36.8320113  40.5323833   3.0231673  36.9510113  40.2453833   3.8381673
  37.6390113  40.5533833   2.6931673  36.9680113  40.4933833   3.0951673
  23.9680113  40.2643833   8.3541673  24.8190113  40.1843833   8.1811673
  23.6110113  39.5823833   7.9421673  24.0410113  40.1513833   8.2671673
  22.7350113  46.9893833   9.5911673  22.0620113  46.4913833   9.3461673
  23.1380113  47.1743833   8.8401673  22.6950113  46.9433833   9.4441673
  22.2850113  33.9393833  11.8871673  23.1280113  34.1593833  11.8441673
  21.8960113  34.5123833  11.3561673  22.3520113  34.0563833  11.8021673
  39.0660113  45.0413833  17.2771673  38.3840113  45.3513833  16.8301673
  38.6970113  44.5833833  17.9221673  38.9100113  45.0193833  17.3061673
  34.7270113  37.0693833   2.6081673  34.5070113  37.8003833   2.1861673
  34.2790113  37.1203833   3.3551673  34.6280113  37.1843833   2.6561673
  26.3360113  40.2713833   6.5891673  27.0490113  40.7663833   6.6791673
  26.5580113  39.7043833   5.9631673  26.4740113  40.2603833   6.5101673
  38.9140113  31.9303833   2.0611673  38.2520113  31.3623833   2.0841673
  38.7210113  32.4423833   1.3811673  38.7880113  31.9223833   1.9641673
  20.4920113  41.9143833   9.9091673  19.8250113  42.4023833  10.1851673
  21.1720113  42.4593833   9.9381673  20.4940113  42.0663833   9.9541673
  28.1390113  35.6243833  20.0051673  27.6550113  36.2013833  20.4471673
  28.1110113  35.9193833  19.1841673  28.0630113  35.7533833  19.9491673
  39.2370113  36.3083833  14.6171673  39.4520113  35.5083833  14.3411673
  38.3870113  36.3683833  14.4281673  39.1430113  36.1993833  14.5481673
  20.5580113  38.5983833   5.0121673  20.3730113  37.7593833   5.1641673
  21.2170113  38.5623833   4.4421673  20.6280113  38.4693833   4.9501673
  36.9160113  31.4883833   4.3401673  37.6620113  31.0813833   4.5391673
  37.1790113  32.2033833   3.9151673  37.0650113  31.5343833   4.3071673
  30.8590113  43.9743833   8.9161673  30.3360113  44.6083833   8.6231673
  31.1690113  43.6103833   8.1871673  30.8270113  44.0143833   8.7651673
  20.7300113  42.7623833   4.5871673  21.2820113  43.3313833   4.9511673
  20.4980113  42.2473833   5.2521673  20.7770113  42.7703833   4.7391673
  24.9340113  41.7623833  11.6761673  25.4010113  42.0513833  12.3541673
  25.5060113  41.2843833  11.2221673  25.0880113  41.7343833  11.7091673
  33.3700113  33.7763833   9.4131673  33.7140113  33.9283833  10.2001673
  32.9170113  33.0383833   9.5261673  33.3540113  33.6893833   9.5461673
  20.5600113  41.2113833   2.2151673  21.3160113  40.7793833   2.2731673
  20.5750113  41.7433833   2.9061673  20.6740113  41.2263833   2.3261673
  21.5000113  39.4323833  10.2201673  21.9310113  39.3033833   9.4731673
  21.2950113  40.2803833  10.1941673  21.5330113  39.5383833  10.1061673
  27.8460113  32.9963833   3.8701673  27.8440113  32.8793833   3.0051673
  27.6650113  33.8443833   3.9621673  27.8190113  33.1043833   3.7561673
  36.9000113  45.4233833  15.3671673  36.2290113  45.9373833  15.5851673
  36.9630113  45.5233833  14.5031673  36.8100113  45.5143833  15.2721673
  25.5840113  42.9483833   8.5021673  25.7100113  43.7913833   8.6891673
  26.2520113  42.5493833   8.8981673  25.7020113  43.0143833   8.5881673
  23.7140113  36.4313833  18.3641673  23.1780113  35.9253833  18.8321673
  23.7340113  36.0413833  17.5841673  23.6370113  36.2983833  18.3181673
  24.1990113  35.8283833   3.5041673  24.0710113  35.3803833   4.2421673
  23.6170113  35.4863833   2.9521673  24.0940113  35.7113833   3.5321673
  24.3660113  37.6583833  10.1031673  23.5850113  37.5993833   9.7201673
  24.4380113  36.9063833  10.5401673  24.2610113  37.5393833  10.1111673
  24.7960113  37.3953833  13.5711673  24.8210113  36.7203833  13.0201673
  24.1500113  37.8913833  13.2591673  24.7050113  37.3683833  13.4441673
  34.6910113  35.1083833  11.9671673  34.0290113  35.4363833  12.4301673
  34.8780113  35.7423833  11.3981673  34.6210113  35.2503833  11.9511673
  28.8960113  46.1723833  12.9631673  28.6190113  45.5313833  12.4401673
  28.6880113  46.8983833  12.5251673  28.8250113  46.1853833  12.8211673
  31.3360113  31.0143833  15.3961673  31.4850113  30.1893833  15.1531673
  31.7150113  31.0693833  16.1801673  31.4140113  30.9003833  15.4761673
  32.8840113  33.0773833   5.4781673  33.3740113  33.7943833   5.4011673
  32.0940113  33.3383833   5.2151673  32.8400113  33.2213833   5.4281673
  22.5950113  38.7503833  19.1301673  22.5580113  39.2513833  18.4161673
  22.9260113  37.9983833  18.8351673  22.6380113  38.7123833  18.9811673
  34.1980113  40.9553833  17.3881673  34.6820113  41.6733833  17.4861673
  34.5920113  40.5283833  16.7371673  34.3280113  40.9983833  17.3061673
  28.4940113  43.8003833  18.5651673  28.8480113  43.6223833  19.3421673
  28.0580113  43.0713833  18.3661673  28.4820113  43.6663833  18.6511673
  29.4660113  34.5473833  11.2031673  29.9460113  35.2463833  11.4111673
  29.8390113  33.9003833  11.6541673  29.5920113  34.5553833  11.3001673
  31.6550113  37.7163833   3.4771673  31.6470113  38.4383833   2.9871673
  31.0160113  37.8513833   4.0541673  31.5600113  37.8433833   3.4901673
  36.6270113  41.5863833   7.4581673  36.9830113  41.2363833   8.1731673
  36.6190113  40.9253833   6.8881673  36.6790113  41.4363833   7.4791673
  32.6720113  44.6523833  11.3021673  32.0690113  44.3563833  10.7451673
  33.2170113  45.1043833  10.7931673  32.6630113  44.6753833  11.1441673
  32.6850113  41.5033833  10.7021673  31.8880113  41.7273833  10.9761673
  32.9430113  40.9093833  11.2871673  32.6050113  41.4483833  10.8291673
  26.5770113  46.3153833   5.1501673  26.4300113  45.5393833   5.5211673
  27.2660113  46.1683833   4.6351673  26.6570113  46.1783833   5.1291673
  26.2480113  30.0583833   3.1381673  26.3450113  29.9513833   3.9991673
  25.5400113  30.5643833   3.0731673  26.1580113  30.1173833   3.2561673
  28.8690113  45.8313833   3.5521673  29.4910113  45.9943833   4.1421673
  28.9050113  46.5223833   3.0201673  28.9660113  45.9573833   3.5611673
  35.9450113  39.5013833  15.5481673  36.0000113  39.6263833  14.6861673
  36.6980113  39.8213833  15.8501673  36.0640113  39.5663833  15.4651673
  32.1360113  44.8503833  19.8251673  32.3000113  45.1333833  20.6341673
  32.3990113  45.5113833  19.3201673  32.1990113  44.9903833  19.8701673
  36.9770113  29.7993833  18.5351673  36.3400113  29.3993833  18.0931673
  37.0030113  29.3683833  19.2931673  36.8870113  29.6773833  18.5811673
  23.3700113  38.3653833   4.3811673  23.6940113  37.5863833   4.1591673
  24.0160113  38.7333833   4.8361673  23.5130113  38.3043833   4.4151673
  31.6760113  39.3073833  15.1481673  31.5210113  39.9173833  15.7521673
  32.2100113  38.7493833  15.5541673  31.7320113  39.3153833  15.2971673
  20.3670113  30.0263833   5.3491673  20.4960113  29.3183833   4.8571673
  20.0000113  29.7083833   6.0741673  20.3320113  29.8743833   5.3841673
  30.0600113  37.7073833   5.8061673  30.1190113  38.3573833   6.3851673
  29.8710113  37.0113833   6.2971673  30.0410113  37.7003833   5.9641673
  35.2860113  42.0363833  11.6751673  34.8070113  42.3343833  11.0091673
  34.9300113  41.2603833  11.8531673  35.1630113  41.9653833  11.6031673
  24.5560113  32.2243833   2.3181673  24.0450113  32.2773833   1.6121673
  25.3400113  32.4643833   2.0221673  24.5960113  32.2673833   2.1701673
  29.2830113  39.7543833  10.2371673  28.4360113  39.5603833  10.3181673
  29.6070113  39.5893833  11.0301673  29.2050113  39.7013833  10.3661673
  23.1310113  39.4473833  12.5531673  23.8530113  39.9353833  12.5161673
  22.8610113  39.4173833  11.7241673  23.1980113  39.5153833  12.4251673
  26.3610113  34.6183833   9.2881673  27.2070113  34.4283833   9.3861673
  25.9910113  33.8413833   9.1501673  26.4310113  34.4753833   9.2821673
  38.9780113  46.2023833   3.6151673  39.6720113  45.7353833   3.3671673
  38.4390113  45.6043833   3.9521673  39.0010113  46.0443833   3.6281673
  21.1820113  35.9563833   5.9431673  21.6710113  35.6643833   6.6041673
  21.3110113  35.3633833   5.3161673  21.2730113  35.8253833   5.9481673
  36.2170113  38.9783833  12.7941673  36.2100113  38.2023833  13.1921673
  35.3760113  39.2123833  12.7871673  36.0920113  38.8983833  12.8521673
  22.5260113  40.4993833  16.8311673  22.1050113  39.9813833  16.2701673
  22.1740113  41.2853833  16.6881673  22.4120113  40.5393833  16.7271673
  37.4730113  39.0493833  10.2311673  37.1870113  39.4503833  10.9511673
  38.3330113  38.9873833  10.3581673  37.5580113  39.0993833  10.3561673
  27.1620113  35.8513833   4.1391673  27.4340113  36.6773833   4.2061673
  26.2990113  35.9263833   4.0431673  27.0750113  35.9843833   4.1341673
  35.1350113  32.9733833  18.7711673  34.6100113  33.4323833  19.2951673
  34.7740113  32.1783833  18.7651673  35.0040113  32.9233833  18.8471673
  20.6420113  31.8213833  10.6751673  20.6860113  32.1653833   9.8741673
  21.3970113  32.0583833  11.0421673  20.7600113  31.9073833  10.6111673
  38.6040113  44.6823833  10.7601673  38.8940113  44.9393833   9.9791673
  39.2990113  44.7783833  11.2791673  38.7500113  44.7343833  10.7211673
  33.6270113  36.5423833  18.8471673  33.7000113  36.6463833  19.7101673
  32.9930113  37.1003833  18.6261673  33.5440113  36.6403833  18.9421673
  35.8950113  36.8613833  17.2121673  36.2140113  37.6473833  17.4151673
  35.5250113  36.5913833  17.9551673  35.8880113  36.9373833  17.3521673
  35.2090113  43.2853833   2.7421673  35.5430113  42.4793833   2.7771673
  34.4540113  43.2133833   3.1721673  35.1470113  43.1553833   2.8111673
  35.6910113  35.1193833   8.4011673  34.9460113  34.7963833   8.7191673
  35.6930113  35.9453833   8.6811673  35.5810113  35.1933833   8.4891673
  38.1310113  41.0793833  16.1531673  38.7590113  40.5303833  15.8971673
  38.0700113  41.6443833  15.4911673  38.2150113  41.0823833  16.0171673
  32.5830113  41.1603833   2.1451673  33.2670113  40.6463833   1.9761673
  32.1660113  41.2063833   1.3801673  32.6220113  41.0913833   2.0071673
  27.2650113  42.3103833  13.4491673  26.9670113  42.9023833  14.0161673
  27.3200113  42.7523833  12.7001673  27.2290113  42.4633833  13.4221673
  25.2440113  41.2603833  16.8471673  24.4380113  40.9703833  17.0141673
  25.1550113  42.1283833  16.8531673  25.1120113  41.3453833  16.8721673
  34.6030113  31.4493833  15.8621673  35.3470113  31.9013833  15.7991673
  34.0370113  31.9193833  15.3931673  34.6300113  31.5863833  15.7841673
  29.7810113  38.7333833  12.9401673  30.2570113  39.1073833  13.5681673
  28.9580113  38.8673833  13.1991673  29.7300113  38.8083833  13.0711673
  26.4910113  34.3363833  15.6811673  26.6520113  33.5923833  16.1081673
  26.4460113  34.0873833  14.8461673  26.5080113  34.1893833  15.6211673
  29.0450113  46.1263833   8.1681673  29.5910113  46.8053833   8.2221673
  28.6950113  46.2083833   7.3731673  29.0740113  46.2393833   8.0581673
  35.8880113  29.4293833  13.5321673  35.6080113  30.2543833  13.4881673
  36.6040113  29.4823833  14.0281673  35.9530113  29.5593833  13.5991673
  28.2430113  30.1443833  15.5611673  28.9480113  30.4643833  15.1591673
  28.4840113  29.3373833  15.7881673  28.3820113  30.0723833  15.5351673
  27.2280113  44.3543833  11.5571673  26.6040113  44.9363833  11.3751673
  27.4760113  44.0683833  10.7711673  27.1720113  44.3983833  11.4141673
  31.5370113  40.9883833  18.5461673  32.2940113  41.2743833  18.2201673
  30.9900113  41.0403833  17.8681673  31.5680113  41.0383833  18.3971673
  37.3090113  35.6843833   2.3891673  37.6870113  36.3613833   1.9891673
  36.4670113  35.9083833   2.4201673  37.2400113  35.8173833   2.3341673
  24.7520113  35.1973833  11.6221673  25.1920113  35.0943833  10.8761673
  25.2970113  34.8843833  12.2271673  24.8970113  35.1363833  11.6011673
  32.7680113  34.2993833  17.2141673  32.1200113  34.7693833  17.5621673
  33.3330113  34.2103833  17.8731673  32.7560113  34.3553833  17.3631673
  29.8810113  46.0033833  17.4371673  30.3590113  45.4033833  17.0211673
  29.5300113  45.5603833  18.1021673  29.9000113  45.8493833  17.4741673
  35.0040113  35.2833833   5.7641673  35.2110113  35.0823833   6.5881673
  35.7600113  35.5513833   5.4221673  35.1460113  35.2933833   5.8351673
  28.2990113  30.1823833  11.6691673  27.4730113  30.0333833  11.9061673
  28.2590113  30.2173833  10.7981673  28.1710113  30.1653833  11.5751673
  36.0260113  31.3663833   7.2381673  35.3120113  30.8953833   7.4091673
  35.8640113  31.7073833   6.4521673  35.8970113  31.3473833   7.1471673
  36.4690113  39.3103833   5.6181673  36.9450113  38.5813833   5.5701673
  35.6480113  39.0243833   5.5421673  36.4180113  39.1603833   5.5991673
  29.9400113  41.2223833  16.4571673  29.1450113  41.1583833  16.8081673
  30.0110113  42.0693833  16.2621673  29.8330113  41.3373833  16.4801673
  20.8640113  30.5803833  17.7041673  20.7240113  31.3753833  17.3731673
  20.0780113  30.3373833  17.9931673  20.7270113  30.6623833  17.6981673
  25.7700113  47.4293833  11.7741673  25.7810113  47.4883833  12.6441673
  25.3450113  46.6823833  11.6241673  25.7090113  47.3273833  11.8801673
  23.9280113  33.3243833   4.9291673  24.0540113  32.9953833   4.1311673
  23.1160113  33.0753833   5.1281673  23.8270113  33.2393833   4.8411673
  32.6850113  40.4773833   7.9731673  32.7610113  40.8183833   8.7721673
  32.8540113  39.6303833   8.0941673  32.7210113  40.4023833   8.1091673
  30.2070113  39.7513833   7.5381673  29.9090113  39.4363833   8.2951673
  30.9020113  40.2243833   7.7731673  30.2660113  39.7743833   7.6851673
  30.4290113  43.8693833  15.5651673  31.1160113  43.7553833  16.0901673
  30.5630113  44.6603833  15.2211673  30.5500113  43.9693833  15.5921673
  33.1180113  37.1433833  15.9521673  32.8630113  36.4243833  16.3741673
  33.9390113  37.2593833  16.2221673  33.2020113  37.0543833  16.0541673
  22.5340113  46.9273833  17.2161673  21.8800113  46.3583833  17.3141673
  22.1590113  47.7003833  17.3671673  22.3820113  46.9573833  17.2531673
  31.0520113  38.3333833  19.1391673  31.3750113  39.0193833  18.7071673
  30.3480113  38.6563833  19.5411673  30.9950113  38.4823833  19.1341673
  34.1360113  46.7073833  10.0681673  33.6850113  47.3503833  10.4471673
  34.8440113  46.6283833  10.5731673  34.1740113  46.7903833  10.1991673
  30.8370113  41.7973833  12.9981673  30.1430113  42.1993833  13.3411673
  31.5140113  42.2303833  13.3371673  30.8340113  41.9203833  13.0991673
  36.2140113  44.3903833  19.5781673  36.9900113  44.0003833  19.6611673
  35.7450113  44.0543833  20.2331673  36.2590113  44.2833833  19.6871673
  23.9050113  35.3353833  15.3451673  24.2800113  35.9543833  14.8581673
  24.5790113  34.8613833  15.6301673  24.0600113  35.3573833  15.3151673
  21.6800113  33.7833833  14.6201673  21.7570113  33.6143833  13.7671673
  22.4260113  34.1893833  14.8171673  21.8010113  33.8183833  14.5231673
  37.2390113  36.4233833   5.0601673  37.3420113  36.3653833   4.1961673
  37.9800113  36.0913833   5.3781673  37.3640113  36.3663833   4.9791673
  24.2340113  31.1933833  17.0311673  24.1530113  30.3493833  17.2371673
  23.9200113  31.2373833  16.2181673  24.1760113  31.0753833  16.9411673
  31.1590113  43.3883833   6.1671673  30.9540113  44.2213833   6.0081673
  30.3840113  43.0063833   6.2891673  31.0140113  43.4553833   6.1621673
  36.3410113  36.5693833  14.4161673  36.3390113  35.7063833  14.5401673
  36.4080113  36.8933833  15.2231673  36.3510113  36.4893833  14.5531673
  21.0770113  39.0093833  14.8441673  21.3970113  39.2283833  14.0631673
  20.9770113  38.1443833  14.7891673  21.1090113  38.9143833  14.7211673
  32.2200113  31.3693833  18.1981673  32.3120113  32.0813833  18.6921673
  31.5830113  30.9243833  18.5951673  32.1390113  31.4083833  18.3301673
  31.2140113  31.5593833   9.0521673  30.5140113  32.0773833   8.9961673
  31.2520113  31.1793833   8.2681673  31.1160113  31.5803833   8.9281673
  26.5210113  43.6503833   2.5761673  26.9620113  43.7303833   3.3241673
  25.7160113  43.4343833   2.8341673  26.4670113  43.6303833   2.7251673
  34.8120113  32.0753833  11.8521673  35.6670113  32.1743833  11.9971673
  34.4430113  32.6283833  12.4171673  34.8840113  32.1723833  11.9571673
  25.8400113  38.3013833  16.2291673  25.4440113  39.0753833  16.3041673
  25.4340113  37.9283833  15.5531673  25.7220113  38.3603833  16.1401673
  35.1160113  37.3553833  10.3431673  35.7820113  37.8963833  10.5031673
  34.7710113  37.6663833   9.6041673  35.1630113  37.4813833  10.2581673
  35.4290113  45.4213833   6.1501673  35.2550113  44.7673833   6.7001673
  36.1420113  45.1503833   5.7271673  35.5090113  45.2843833   6.1691673
  23.8500113  42.7203833   3.1771673  23.6060113  42.4133833   3.9571673
  23.8170113  42.0173833   2.6611673  23.8090113  42.5713833   3.2161673
  26.6690113  40.9653833   1.9201673  25.8510113  40.6973833   2.0601673
  26.6410113  41.8173833   2.1051673  26.5440113  41.0523833   1.9681673
  26.2690113  31.2783833  13.6791673  25.4050113  31.3623833  13.7591673
  26.4890113  30.7643833  14.3481673  26.1740113  31.2153833  13.7901673
  38.2870113  29.9133833  15.0081673  38.2350113  29.8693833  15.8781673
  38.9740113  29.4103833  14.8181673  38.3810113  29.8333833  15.1081673
  30.3720113  32.0263833  12.0531673  29.6350113  31.5723833  12.1661673
  30.9430113  31.6243833  12.5761673  30.3470113  31.8993833  12.1471673
  33.1040113  42.8743833  13.8411673  33.3100113  43.1753833  14.6331673
  33.0430113  43.5963833  13.3561673  33.1250113  43.0253833  13.8861673
  32.6380113  47.0883833  18.0871673  31.8850113  47.0703833  17.6461673
  32.8060113  47.9403833  18.1711673  32.5520113  47.2113833  18.0341673
  27.8750113  36.3553833  17.2571673  27.5530113  35.7793833  16.6871673
  27.5160113  37.1103833  17.0111673  27.7750113  36.3813833  17.1371673
  37.9160113  41.5133833  13.2991673  37.8840113  40.6513833  13.1641673
  37.2230113  41.8153833  12.8651673  37.8090113  41.4303833  13.2151673
  26.3100113  46.7113833  17.5051673  26.3510113  46.8373833  18.3681673
  26.9610113  46.1513833  17.3491673  26.4120113  46.6473833  17.6101673
  36.0210113  44.7733833  12.0961673  36.5480113  44.6903833  11.4051673
  35.6300113  43.9953833  12.1501673  36.0410113  44.6463833  12.0021673
  23.4890113  31.3613833  14.3271673  23.1460113  30.5943833  14.0931673
  22.7940113  31.8853833  14.3911673  23.3360113  31.3253833  14.3021673
  32.5350113  30.2173833  11.3041673  33.2050113  30.7613833  11.4311673
  32.0320113  30.6413833  10.7311673  32.5600113  30.3603833  11.2381673
  23.9030113  45.0943833  18.8651673  24.4980113  45.5253833  19.3371673
  23.5390113  45.7183833  18.3761673  23.9370113  45.2503833  18.8621673
  31.8940113  36.0253833   8.7971673  32.4450113  35.4183833   9.0971673
  31.4690113  36.2883833   9.5121673  31.9130113  35.9743833   8.9461673
  22.1420113  34.6753833   8.2831673  21.7740113  34.9773833   9.0141673
  22.6760113  34.0463833   8.5671673  22.1660113  34.6273833   8.4331673
  21.8300113  43.0833833  15.7941673  21.2560113  43.4993833  16.3031673
  22.5630113  43.5483833  15.8891673  21.8540113  43.2133833  15.8831673
  33.8640113  37.8563833   5.3591673  33.9320113  37.0063833   5.5401673
  33.0410113  37.9423833   5.0811673  33.7520113  37.7433833   5.3451673
  23.6160113  46.3503833   4.5691673  23.4710113  46.5063833   3.7231673
  24.4820113  46.4293833   4.6471673  23.7230113  46.3853833   4.4561673
  27.7830113  38.7473833   4.2971673  27.8830113  38.8863833   3.4421673
  28.6010113  38.6873833   4.5931673  27.9180113  38.7583833   4.2141673
  36.9430113  46.8113833   1.7771673  37.5800113  46.6773833   2.3581673
  36.6020113  46.0173833   1.6601673  36.9870113  46.6743833   1.8451673
  37.1380113  39.2293833  18.5101673  37.7720113  39.0593833  19.0841673
  37.5550113  39.6323833  17.8581673  37.2930113  39.2643833  18.4991673
  33.0180113  43.0763833   4.0991673  32.7670113  42.9483833   4.9251673
  32.7010113  42.3813833   3.6781673  32.9340113  42.9553833   4.1591673
  37.6620113  34.7343833  12.2191673  36.8290113  34.9843833  12.1471673
  37.6060113  33.8943833  12.4481673  37.5310113  34.6473833  12.2421673
  26.9220113  31.7223833  17.4131673  27.1560113  31.1463833  16.8001673
  26.0800113  31.5413833  17.5541673  26.8320113  31.6103833  17.3431673
  34.5490113  39.3403833  19.8651673  35.4200113  39.3043833  19.8291673
  34.3300113  39.7603833  19.1331673  34.6460113  39.3963833  19.7521673
  24.3030113  45.1653833  11.0461673  24.2240113  44.3553833  10.7301673
  23.8590113  45.6523833  10.4741673  24.2260113  45.1173833  10.9151673
  29.9040113  41.2843833   3.5291673  30.6210113  40.9373833   3.1731673
  29.8700113  42.0843833   3.1811673  30.0050113  41.3513833   3.4251673
  21.8750113  47.4093833  14.6271673  22.3680113  47.3533833  15.3451673
  22.0630113  46.6763833  14.1921673  21.9760113  47.2923833  14.6691673
  31.3130113  11.4472753  63.7928903  31.0680113  11.9352753  63.1128903
  32.1760113  11.3742753  63.6928903  31.4040113  11.5082753  63.6778903
  31.1220113  18.3632753  68.4638903  30.5980113  18.9592753  68.8268903
  31.5190113  17.9952753  69.1478903  31.1030113  18.3972753  68.6188903
  20.9910113  22.5032753  63.9198903  20.5500113  22.6212753  64.6628903
  20.7080113  21.7282753  63.6348903  20.8840113  22.4062753  63.9878903
  37.2660113  25.8042753  61.4348903  37.9670113  25.2852753  61.4308903
  36.6790113  25.3592753  60.9658903  37.2830113  25.6612753  61.3648903
  20.7340113  16.2952753  60.4268903  19.9560113  16.4572753  60.0668903
  20.7730113  15.4242753  60.4488903  20.6250113  16.1902753  60.3768903
  23.8730113  21.5582753  59.0988903  23.4810113  21.1872753  58.4128903
  23.7930113  20.9602753  59.7278903  23.8030113  21.4152753  59.0898903
  33.7930113  19.4302753  65.1398903  33.8730113  19.4342753  64.2708903
  33.2090113  18.7982753  65.2888903  33.7180113  19.3372753  65.0338903
  23.5000113  23.1992753  62.9988903  24.1080113  23.0292753  63.6018903
  22.7490113  23.0592753  63.4198903  23.4790113  23.1532753  63.1498903
  27.7820113  12.5342753  62.9478903  27.7120113  13.2112753  62.4018903
  28.5230113  12.1462753  62.6988903  27.8810113  12.5772753  62.8298903
  22.3910113  26.2902753  59.0758903  22.8580113  26.3742753  58.3438903
  22.8460113  25.7122753  59.5448903  22.5270113  26.2172753  59.0368903
  20.9310113  25.2382753  70.1748903  21.0600113  24.9582753  70.9908903
  20.3210113  24.6972753  69.8658903  20.8600113  25.1172753  70.2498903
  27.5050113  22.7632753  75.2418903  27.2690113  22.7602753  76.0818903
  26.7570113  22.6152753  74.8178903  27.3590113  22.7402753  75.3028903
  22.3770113  19.7592753  64.3768903  21.9150113  19.3672753  63.7498903
  23.0770113  19.2462753  64.4688903  22.4120113  19.6262753  64.2978903
  26.8850113  15.3692753  69.7238903  27.5630113  15.3872753  69.1748903
  26.8400113  14.5332753  69.9688903  26.9780113  15.2482753  69.6788903
  27.4870113  25.9552753  72.5048903  27.6250113  26.7152753  72.0978903
  28.2780113  25.5902753  72.5318903  27.6240113  26.0142753  72.4488903
  24.3780113  17.8592753  64.3998903  25.1950113  17.6722753  64.6428903
  23.9010113  17.2452753  64.7958903  24.4280113  17.7412753  64.4948903
  28.5820113  23.8402753  67.0098903  28.9300113  23.0412753  67.0398903
  29.2470113  24.3442753  66.7548903  28.7320113  23.7962753  66.9768903
  28.6390113  23.2892753  63.2208903  28.9700113  22.6452753  63.7068903
  28.8790113  23.0782753  62.4098903  28.7230113  23.1632753  63.1728903
  30.6070113  17.4202753  74.5598903  29.7590113  17.3212753  74.3818903
  30.6360113  18.1652753  75.0138903  30.4860113  17.5162753  74.6008903
  24.9750113  12.9532753  63.6658903  24.6790113  13.4542753  63.0158903
  25.8420113  13.0312753  63.6088903  25.0590113  13.0392753  63.5618903
  35.1650113  10.3802753  73.6738903  35.0070113  11.1492753  73.2918903
  34.3930113  10.1602753  74.0178903  35.0270113  10.4612753  73.6688903
  27.9540113  12.0952753  65.8888903  28.0270113  12.9552753  66.0178903
  27.9160113  12.0202753  65.0208903  27.9590113  12.2112753  65.7798903
  32.6270113  15.0212753  58.1878903  32.1770113  15.7022753  58.4948903
  32.7410113  14.5172753  58.8908903  32.5780113  15.0472753  58.3368903
  20.8330113  17.5202753  67.3898903  20.5770113  18.3512753  67.3148903
  20.1690113  17.1372753  67.8068903  20.6970113  17.5862753  67.4408903
  20.7430113  27.2302753  65.2898903  20.1510113  27.7882753  64.9768903
  21.1690113  26.9612753  64.5778903  20.7190113  27.2722753  65.1388903
  26.5830113  25.0742753  62.7698903  26.0040113  24.7992753  63.3618903
  27.2070113  24.4652753  62.7948903  26.5900113  24.9442753  62.8608903
  32.7260113  27.3622753  60.2918903  33.4530113  27.8342753  60.3938903
  32.9550113  26.5682753  60.5718903  32.8680113  27.3152753  60.3488903
  30.8940113  27.7542753  62.2818903  31.1080113  28.2812753  62.9438903
  31.6610113  27.5802753  61.9028903  31.0390113  27.8062753  62.3238903
  23.8620113  12.3372753  67.8808903  23.3410113  11.7092753  67.5728903
  24.4530113  11.9002753  68.3518903  23.8730113  12.1792753  67.9048903
  22.2880113  25.9002753  63.2208903  22.9440113  25.3252753  63.2358903
  22.6770113  26.6492753  62.9998903  22.4430113  25.9252753  63.1908903
  38.0210113  14.9942753  64.4828903  37.6750113  15.6722753  64.9088903
  37.3850113  14.3962753  64.4988903  37.8760113  15.0062753  64.5478903
  33.3330113  27.7642753  70.5868903  34.0770113  28.2202753  70.5768903
  33.2120113  27.5502753  69.7498903  33.4250113  27.8002753  70.4618903
  22.9010113  14.0672753  76.1628903  22.1230113  13.6772753  76.0908903
  23.3920113  13.6552753  75.5718903  22.8580113  13.9482753  76.0648903
  23.1060113  24.3872753  66.7208903  23.5290113  24.0312753  66.0468903
  23.4300113  23.9652753  67.4128903  23.2160113  24.2722753  66.7238903
  26.3370113  27.2392753  66.0168903  27.1810113  27.3432753  65.8218903
  26.0400113  28.0572753  66.0848903  26.4180113  27.3752753  65.9978903
  29.5500113  11.7102753  75.3308903  29.7280113  10.9012753  75.0558903
  29.4070113  12.1512753  74.5918903  29.5550113  11.6562753  75.1808903
  30.1440113  16.6362753  64.1038903  30.4310113  16.4042753  63.3138903
  30.8760113  16.7152753  64.5728903  30.2940113  16.6132753  64.0568903
  30.8660113  16.9752753  59.2248903  31.1470113  17.7632753  59.4738903
  30.0900113  17.1402753  58.8618903  30.7930113  17.1162753  59.2078903
  34.9070113  28.9492753  60.6918903  35.5720113  28.8012753  60.1468903
  35.2670113  28.8662753  61.4818903  35.0590113  28.9152753  60.7278903
  25.3350113  28.4582753  71.7568903  25.6270113  28.3912753  72.5768903
  24.7090113  27.8532753  71.7118903  25.2860113  28.3592753  71.8718903
  37.6960113  13.3172753  69.8518903  38.4530113  13.3892753  69.4238903
  37.7590113  12.5442753  70.2508903  37.8170113  13.2142753  69.8468903
  20.2490113  14.6152753  73.7488903  20.2450113  15.2022753  74.3948903
  20.8430113  14.9272753  73.1918903  20.3360113  14.7482753  73.7618903
  32.5870113  24.9492753  74.2908903  32.5530113  25.3312753  75.0748903
  33.4410113  24.9072753  74.1198903  32.7080113  24.9992753  74.3818903
  29.7250113  25.1462753  59.0408903  29.5440113  25.6912753  59.6978903
  30.4910113  25.4362753  58.7398903  29.8110113  25.2702753  59.0938903
  33.2320113  13.0422753  60.0948903  33.7720113  12.3602753  60.1708903
  33.2940113  13.4402753  60.8688903  33.3210113  13.0002753  60.2208903
  21.1860113  14.2102753  62.6638903  21.0720113  13.3462753  62.6948903
  20.7110113  14.5042753  63.3338903  21.0990113  14.1262753  62.7668903
  23.3280113  26.6202753  70.8788903  22.6300113  26.1122753  71.0048903
  23.5880113  26.4152753  70.0708903  23.2630113  26.5152753  70.7778903
  30.4900113  15.4182753  61.4088903  29.9820113  14.7562753  61.1548903
  30.5420113  15.9222753  60.6988903  30.4230113  15.3952753  61.2668903
  31.0390113  28.1132753  71.7888903  31.8070113  28.0332753  71.3828903
  30.4560113  27.9922753  71.1508903  31.0660113  28.0832753  71.6348903
  30.4900113  12.3592753  61.2998903  30.0350113  11.9572753  60.6738903
  31.2630113  12.5142753  60.9248903  30.5370113  12.3232753  61.1518903
  37.3160113  28.7162753  64.6898903  36.8610113  29.4332753  64.8908903
  36.7020113  28.1452753  64.4478903  37.1580113  28.7382753  64.6838903
  29.0880113  14.7262753  65.8218903  29.1620113  15.2942753  65.1638903
  29.2090113  15.2182753  66.5318903  29.1160113  14.8832753  65.8298903
  34.3130113  24.5612753  64.2338903  35.0140113  24.0792753  64.4228903
  33.6530113  23.9922753  64.2788903  34.3190113  24.4062753  64.2678903
  24.6890113  25.4712753  73.4458903  25.5300113  25.5342753  73.2238903
  24.6520113  25.8682753  74.2218903  24.8080113  25.5392753  73.5278903
  23.6960113  10.5492753  64.1698903  24.2320113  11.2372753  64.1598903
  23.6990113  10.2752753  63.3418903  23.7750113  10.6102753  64.0458903
  26.6520113  20.9822753  68.1948903  26.8240113  20.7722753  69.0238903
  25.9970113  20.4482753  67.9788903  26.5810113  20.8722753  68.2858903
  32.8800113  14.8962753  71.7098903  32.7850113  15.2152753  72.5158903
  32.2870113  14.2572753  71.6718903  32.7780113  14.8482753  71.8238903
  27.4020113  20.9202753  70.7848903  27.4550113  21.7672753  70.9868903
  27.1170113  20.5502753  71.5218903  27.3680113  20.9902753  70.9228903
  33.5790113  21.6152753  69.9148903  33.0650113  21.2032753  70.4858903
  33.4530113  22.4592753  70.0958903  33.4850113  21.6792753  70.0258903
  34.1360113  10.8402753  64.5458903  34.1850113  10.5222753  65.3568903
  34.4590113  10.1962753  64.0528903  34.1910113  10.6982753  64.5928903
  36.6000113  15.0762753  72.8538903  37.3720113  14.8512753  73.1908903
  36.1250113  15.2932753  73.5538903  36.6440113  15.0752753  73.0068903
  24.1440113  14.3592753  65.8238903  24.4160113  13.9292753  65.1158903
  23.9680113  13.7232753  66.3948903  24.1580113  14.2022753  65.8038903
  36.8320113  22.0542753  60.0418903  36.9510113  21.7672753  60.8568903
  37.6390113  22.0752753  59.7118903  36.9680113  22.0152753  60.1138903
  23.9680113  21.7862753  65.3728903  24.8190113  21.7062753  65.1998903
  23.6110113  21.1042753  64.9608903  24.0410113  21.6732753  65.2858903
  22.7350113  28.5112753  66.6098903  22.0620113  28.0132753  66.3648903
  23.1380113  28.6962753  65.8588903  22.6950113  28.4652753  66.4628903
  22.2850113  15.4612753  68.9058903  23.1280113  15.6812753  68.8628903
  21.8960113  16.0342753  68.3748903  22.3520113  15.5782753  68.8208903
  39.0660113  26.5632753  74.2958903  38.3840113  26.8732753  73.8488903
  38.6970113  26.1052753  74.9408903  38.9100113  26.5412753  74.3248903
  34.7270113  18.5912753  59.6268903  34.5070113  19.3222753  59.2048903
  34.2790113  18.6422753  60.3738903  34.6280113  18.7062753  59.6748903
  26.3360113  21.7932753  63.6078903  27.0490113  22.2882753  63.6978903
  26.5580113  21.2262753  62.9818903  26.4740113  21.7822753  63.5288903
  38.9140113  13.4522753  59.0798903  38.2520113  12.8842753  59.1028903
  38.7210113  13.9642753  58.3998903  38.7880113  13.4442753  58.9828903
  20.4920113  23.4362753  66.9278903  19.8250113  23.9242753  67.2038903
  21.1720113  23.9812753  66.9568903  20.4940113  23.5882753  66.9728903
  39.2370113  17.8302753  71.6358903  39.4520113  17.0302753  71.3598903
  38.3870113  17.8902753  71.4468903  39.1430113  17.7212753  71.5668903
  20.5580113  20.1202753  62.0308903  20.3730113  19.2812753  62.1828903
  21.2170113  20.0842753  61.4608903  20.6280113  19.9912753  61.9688903
  36.9160113  13.0102753  61.3588903  37.6620113  12.6032753  61.5578903
  37.1790113  13.7252753  60.9338903  37.0650113  13.0562753  61.3258903
  30.8590113  25.4962753  65.9348903  30.3360113  26.1302753  65.6418903
  31.1690113  25.1322753  65.2058903  30.8270113  25.5362753  65.7838903
  20.7300113  24.2842753  61.6058903  21.2820113  24.8532753  61.9698903
  20.4980113  23.7692753  62.2708903  20.7770113  24.2922753  61.7578903
  24.9340113  23.2842753  68.6948903  25.4010113  23.5732753  69.3728903
  25.5060113  22.8062753  68.2408903  25.0880113  23.2562753  68.7278903
  33.3700113  15.2982753  66.4318903  33.7140113  15.4502753  67.2188903
  32.9170113  14.5602753  66.5448903  33.3540113  15.2112753  66.5648903
  20.5600113  22.7332753  59.2338903  21.3160113  22.3012753  59.2918903
  20.5750113  23.2652753  59.9248903  20.6740113  22.7482753  59.3448903
  21.5000113  20.9542753  67.2388903  21.9310113  20.8252753  66.4918903
  21.2950113  21.8022753  67.2128903  21.5330113  21.0602753  67.1248903
  27.8460113  14.5182753  60.8888903  27.8440113  14.4012753  60.0238903
  27.6650113  15.3662753  60.9808903  27.8190113  14.6262753  60.7748903
  36.9000113  26.9452753  72.3858903  36.2290113  27.4592753  72.6038903
  36.9630113  27.0452753  71.5218903  36.8100113  27.0362753  72.2908903
  25.5840113  24.4702753  65.5208903  25.7100113  25.3132753  65.7078903
  26.2520113  24.0712753  65.9168903  25.7020113  24.5362753  65.6068903
  23.7140113  17.9532753  75.3828903  23.1780113  17.4472753  75.8508903
  23.7340113  17.5632753  74.6028903  23.6370113  17.8202753  75.3368903
  24.1990113  17.3502753  60.5228903  24.0710113  16.9022753  61.2608903
  23.6170113  17.0082753  59.9708903  24.0940113  17.2332753  60.5508903
  24.3660113  19.1802753  67.1218903  23.5850113  19.1212753  66.7388903
  24.4380113  18.4282753  67.5588903  24.2610113  19.0612753  67.1298903
  24.7960113  18.9172753  70.5898903  24.8210113  18.2422753  70.0388903
  24.1500113  19.4132753  70.2778903  24.7050113  18.8902753  70.4628903
  34.6910113  16.6302753  68.9858903  34.0290113  16.9582753  69.4488903
  34.8780113  17.2642753  68.4168903  34.6210113  16.7722753  68.9698903
  28.8960113  27.6942753  69.9818903  28.6190113  27.0532753  69.4588903
  28.6880113  28.4202753  69.5438903  28.8250113  27.7072753  69.8398903
  31.3360113  12.5362753  72.4148903  31.4850113  11.7112753  72.1718903
  31.7150113  12.5912753  73.1988903  31.4140113  12.4222753  72.4948903
  32.8840113  14.5992753  62.4968903  33.3740113  15.3162753  62.4198903
  32.0940113  14.8602753  62.2338903  32.8400113  14.7432753  62.4468903
  22.5950113  20.2722753  76.1488903  22.5580113  20.7732753  75.4348903
  22.9260113  19.5202753  75.8538903  22.6380113  20.2342753  75.9998903
  34.1980113  22.4772753  74.4068903  34.6820113  23.1952753  74.5048903
  34.5920113  22.0502753  73.7558903  34.3280113  22.5202753  74.3248903
  28.4940113  25.3222753  75.5838903  28.8480113  25.1442753  76.3608903
  28.0580113  24.5932753  75.3848903  28.4820113  25.1882753  75.6698903
  29.4660113  16.0692753  68.2218903  29.9460113  16.7682753  68.4298903
  29.8390113  15.4222753  68.6728903  29.5920113  16.0772753  68.3188903
  31.6550113  19.2382753  60.4958903  31.6470113  19.9602753  60.0058903
  31.0160113  19.3732753  61.0728903  31.5600113  19.3652753  60.5088903
  36.6270113  23.1082753  64.4768903  36.9830113  22.7582753  65.1918903
  36.6190113  22.4472753  63.9068903  36.6790113  22.9582753  64.4978903
  32.6720113  26.1742753  68.3208903  32.0690113  25.8782753  67.7638903
  33.2170113  26.6262753  67.8118903  32.6630113  26.1972753  68.1628903
  32.6850113  23.0252753  67.7208903  31.8880113  23.2492753  67.9948903
  32.9430113  22.4312753  68.3058903  32.6050113  22.9702753  67.8478903
  26.5770113  27.8372753  62.1688903  26.4300113  27.0612753  62.5398903
  27.2660113  27.6902753  61.6538903  26.6570113  27.7002753  62.1478903
  26.2480113  11.5802753  60.1568903  26.3450113  11.4732753  61.0178903
  25.5400113  12.0862753  60.0918903  26.1580113  11.6392753  60.2748903
  28.8690113  27.3532753  60.5708903  29.4910113  27.5162753  61.1608903
  28.9050113  28.0442753  60.0388903  28.9660113  27.4792753  60.5798903
  35.9450113  21.0232753  72.5668903  36.0000113  21.1482753  71.7048903
  36.6980113  21.3432753  72.8688903  36.0640113  21.0882753  72.4838903
  36.9770113  11.3212753  75.5538903  36.3400113  10.9212753  75.1118903
  37.0030113  10.8902753  76.3118903  36.8870113  11.1992753  75.5998903
  23.3700113  19.8872753  61.3998903  23.6940113  19.1082753  61.1778903
  24.0160113  20.2552753  61.8548903  23.5130113  19.8262753  61.4338903
  31.6760113  20.8292753  72.1668903  31.5210113  21.4392753  72.7708903
  32.2100113  20.2712753  72.5728903  31.7320113  20.8372753  72.3158903
  20.3670113  11.5482753  62.3678903  20.4960113  10.8402753  61.8758903
  20.0000113  11.2302753  63.0928903  20.3320113  11.3962753  62.4028903
  30.0600113  19.2292753  62.8248903  30.1190113  19.8792753  63.4038903
  29.8710113  18.5332753  63.3158903  30.0410113  19.2222753  62.9828903
  35.2860113  23.5582753  68.6938903  34.8070113  23.8562753  68.0278903
  34.9300113  22.7822753  68.8718903  35.1630113  23.4872753  68.6218903
  24.5560113  13.7462753  59.3368903  24.0450113  13.7992753  58.6308903
  25.3400113  13.9862753  59.0408903  24.5960113  13.7892753  59.1888903
  29.2830113  21.2762753  67.2558903  28.4360113  21.0822753  67.3368903
  29.6070113  21.1112753  68.0488903  29.2050113  21.2232753  67.3848903
  26.0350113  28.0062753  58.1418903  26.4740113  27.3092753  58.4298903
  26.2420113  28.6302753  58.7148903  26.1310113  27.9952753  58.2688903
  23.1310113  20.9692753  69.5718903  23.8530113  21.4572753  69.5348903
  22.8610113  20.9392753  68.7428903  23.1980113  21.0372753  69.4438903
  26.3610113  16.1402753  66.3068903  27.2070113  15.9502753  66.4048903
  25.9910113  15.3632753  66.1688903  26.4310113  15.9972753  66.3008903
  38.9780113  27.7242753  60.6338903  39.6720113  27.2572753  60.3858903
  38.4390113  27.1262753  60.9708903  39.0010113  27.5662753  60.6468903
  21.1820113  17.4782753  62.9618903  21.6710113  17.1862753  63.6228903
  21.3110113  16.8852753  62.3348903  21.2730113  17.3472753  62.9668903
  36.2170113  20.5002753  69.8128903  36.2100113  19.7242753  70.2108903
  35.3760113  20.7342753  69.8058903  36.0920113  20.4202753  69.8708903
  25.7070113  18.9122753  58.4478903  25.0970113  18.5072753  58.9218903
  25.3210113  19.0302753  57.6748903  25.5600113  18.8692753  58.4038903
  22.5260113  22.0212753  73.8498903  22.1050113  21.5032753  73.2888903
  22.1740113  22.8072753  73.7068903  22.4120113  22.0612753  73.7458903
  37.4730113  20.5712753  67.2498903  37.1870113  20.9722753  67.9698903
  38.3330113  20.5092753  67.3768903  37.5580113  20.6212753  67.3748903
  27.1620113  17.3732753  61.1578903  27.4340113  18.1992753  61.2248903
  26.2990113  17.4482753  61.0618903  27.0750113  17.5062753  61.1528903
  35.1350113  14.4952753  75.7898903  34.6100113  14.9542753  76.3138903
  34.7740113  13.7002753  75.7838903  35.0040113  14.4452753  75.8658903
  20.6420113  13.3432753  67.6938903  20.6860113  13.6872753  66.8928903
  21.3970113  13.5802753  68.0608903  20.7600113  13.4292753  67.6298903
  38.6040113  26.2042753  67.7788903  38.8940113  26.4612753  66.9978903
  39.2990113  26.3002753  68.2978903  38.7500113  26.2562753  67.7398903
  33.6270113  18.0642753  75.8658903  33.7000113  18.1682753  76.7288903
  32.9930113  18.6222753  75.6448903  33.5440113  18.1622753  75.9608903
  35.8950113  18.3832753  74.2308903  36.2140113  19.1692753  74.4338903
  35.5250113  18.1132753  74.9738903  35.8880113  18.4592753  74.3708903
  35.2090113  24.8072753  59.7608903  35.5430113  24.0012753  59.7958903
  34.4540113  24.7352753  60.1908903  35.1470113  24.6772753  59.8298903
  35.6910113  16.6412753  65.4198903  34.9460113  16.3182753  65.7378903
  35.6930113  17.4672753  65.6998903  35.5810113  16.7152753  65.5078903
  38.1310113  22.6012753  73.1718903  38.7590113  22.0522753  72.9158903
  38.0700113  23.1662753  72.5098903  38.2150113  22.6042753  73.0358903
  32.5830113  22.6822753  59.1638903  33.2670113  22.1682753  58.9948903
  32.1660113  22.7282753  58.3988903  32.6220113  22.6132753  59.0258903
  27.2650113  23.8322753  70.4678903  26.9670113  24.4242753  71.0348903
  27.3200113  24.2742753  69.7188903  27.2290113  23.9852753  70.4408903
  25.2440113  22.7822753  73.8658903  24.4380113  22.4922753  74.0328903
  25.1550113  23.6502753  73.8718903  25.1120113  22.8672753  73.8908903
  34.6030113  12.9712753  72.8808903  35.3470113  13.4232753  72.8178903
  34.0370113  13.4412753  72.4118903  34.6300113  13.1082753  72.8028903
  29.7810113  20.2552753  69.9588903  30.2570113  20.6292753  70.5868903
  28.9580113  20.3892753  70.2178903  29.7300113  20.3302753  70.0898903
  26.4910113  15.8582753  72.6998903  26.6520113  15.1142753  73.1268903
  26.4460113  15.6092753  71.8648903  26.5080113  15.7112753  72.6398903
  29.0450113  27.6482753  65.1868903  29.5910113  28.3272753  65.2408903
  28.6950113  27.7302753  64.3918903  29.0740113  27.7612753  65.0768903
  35.8880113  10.9512753  70.5508903  35.6080113  11.7762753  70.5068903
  36.6040113  11.0042753  71.0468903  35.9530113  11.0812753  70.6178903
  28.2430113  11.6662753  72.5798903  28.9480113  11.9862753  72.1778903
  28.4840113  10.8592753  72.8068903  28.3820113  11.5942753  72.5538903
  27.2280113  25.8762753  68.5758903  26.6040113  26.4582753  68.3938903
  27.4760113  25.5902753  67.7898903  27.1720113  25.9202753  68.4328903
  31.5370113  22.5102753  75.5648903  32.2940113  22.7962753  75.2388903
  30.9900113  22.5622753  74.8868903  31.5680113  22.5602753  75.4158903
  35.4460113  25.0602753  74.0688903  35.7920113  25.3302753  74.8228903
  35.7400113  25.6422753  73.4888903  35.5410113  25.1862753  74.0948903
  37.3090113  17.2062753  59.4078903  37.6870113  17.8832753  59.0078903
  36.4670113  17.4302753  59.4388903  37.2400113  17.3392753  59.3528903
  28.8220113  20.6522753  58.4908903  28.0170113  20.4752753  58.2058903
  28.7890113  21.5032753  58.6828903  28.6980113  20.7512753  58.4778903
  24.7520113  16.7192753  68.6408903  25.1920113  16.6162753  67.8948903
  25.2970113  16.4062753  69.2458903  24.8970113  16.6582753  68.6198903
  32.7680113  15.8212753  74.2328903  32.1200113  16.2912753  74.5808903
  33.3330113  15.7322753  74.8918903  32.7560113  15.8772753  74.3818903
  32.4560113  17.3582753  70.5308903  32.7580113  17.7782753  71.2338903
  32.4920113  16.5182753  70.7628903  32.5060113  17.2962753  70.6688903
  29.8810113  27.5252753  74.4558903  30.3590113  26.9252753  74.0398903
  29.5300113  27.0822753  75.1208903  29.9000113  27.3712753  74.4928903
  35.0040113  16.8052753  62.7828903  35.2110113  16.6042753  63.6068903
  35.7600113  17.0732753  62.4408903  35.1460113  16.8152753  62.8538903
  28.2990113  11.7042753  68.6878903  27.4730113  11.5552753  68.9248903
  28.2590113  11.7392753  67.8168903  28.1710113  11.6872753  68.5938903
  36.0260113  12.8882753  64.2568903  35.3120113  12.4172753  64.4278903
  35.8640113  13.2292753  63.4708903  35.8970113  12.8692753  64.1658903
  36.4690113  20.8322753  62.6368903  36.9450113  20.1032753  62.5888903
  35.6480113  20.5462753  62.5608903  36.4180113  20.6822753  62.6178903
  29.9400113  22.7442753  73.4758903  29.1450113  22.6802753  73.8268903
  30.0110113  23.5912753  73.2808903  29.8330113  22.8592753  73.4988903
  20.8640113  12.1022753  74.7228903  20.7240113  12.8972753  74.3918903
  20.0780113  11.8592753  75.0118903  20.7270113  12.1842753  74.7168903
  25.7700113  28.9512753  68.7928903  25.7810113  29.0102753  69.6628903
  25.3450113  28.2042753  68.6428903  25.7090113  28.8492753  68.8988903
  23.9280113  14.8462753  61.9478903  24.0540113  14.5172753  61.1498903
  23.1160113  14.5972753  62.1468903  23.8270113  14.7612753  61.8598903
  32.6850113  21.9992753  64.9918903  32.7610113  22.3402753  65.7908903
  32.8540113  21.1522753  65.1128903  32.7210113  21.9242753  65.1278903
  30.2070113  21.2732753  64.5568903  29.9090113  20.9582753  65.3138903
  30.9020113  21.7462753  64.7918903  30.2660113  21.2962753  64.7038903
  30.4290113  25.3912753  72.5838903  31.1160113  25.2772753  73.1088903
  30.5630113  26.1822753  72.2398903  30.5500113  25.4912753  72.6108903
  38.6050113  18.0002753  74.3948903  37.7500113  17.8782753  74.5208903
  38.7580113  17.6052753  73.6318903  38.5010113  17.9232753  74.3008903
  33.1180113  18.6652753  72.9708903  32.8630113  17.9462753  73.3928903
  33.9390113  18.7812753  73.2408903  33.2020113  18.5762753  73.0728903
  22.5340113  28.4492753  74.2348903  21.8800113  27.8802753  74.3328903
  22.1590113  29.2222753  74.3858903  22.3820113  28.4792753  74.2718903
  31.0520113  19.8552753  76.1578903  31.3750113  20.5412753  75.7258903
  30.3480113  20.1782753  76.5598903  30.9950113  20.0042753  76.1528903
  34.1360113  28.2292753  67.0868903  33.6850113  28.8722753  67.4658903
  34.8440113  28.1502753  67.5918903  34.1740113  28.3122753  67.2178903
  30.8370113  23.3192753  70.0168903  30.1430113  23.7212753  70.3598903
  31.5140113  23.7522753  70.3558903  30.8340113  23.4422753  70.1178903
  23.9050113  16.8572753  72.3638903  24.2800113  17.4762753  71.8768903
  24.5790113  16.3832753  72.6488903  24.0600113  16.8792753  72.3338903
  21.6800113  15.3052753  71.6388903  21.7570113  15.1362753  70.7858903
  22.4260113  15.7112753  71.8358903  21.8010113  15.3402753  71.5418903
  37.2390113  17.9452753  62.0788903  37.3420113  17.8872753  61.2148903
  37.9800113  17.6132753  62.3968903  37.3640113  17.8882753  61.9978903
  24.2340113  12.7152753  74.0498903  24.1530113  11.8712753  74.2558903
  23.9200113  12.7592753  73.2368903  24.1760113  12.5972753  73.9598903
  31.1590113  24.9102753  63.1858903  30.9540113  25.7432753  63.0268903
  30.3840113  24.5282753  63.3078903  31.0140113  24.9772753  63.1808903
  36.3410113  18.0912753  71.4348903  36.3390113  17.2282753  71.5588903
  36.4080113  18.4152753  72.2418903  36.3510113  18.0112753  71.5718903
  21.0770113  20.5312753  71.8628903  21.3970113  20.7502753  71.0818903
  20.9770113  19.6662753  71.8078903  21.1090113  20.4362753  71.7398903
  22.5330113  16.4672753  58.4808903  21.8610113  16.4812753  59.0368903
  22.6280113  15.6192753  58.2968903  22.4480113  16.3442753  58.5358903
  32.2200113  12.8912753  75.2168903  32.3120113  13.6032753  75.7108903
  31.5830113  12.4462753  75.6138903  32.1390113  12.9302753  75.3488903
  31.2140113  13.0812753  66.0708903  30.5140113  13.5992753  66.0148903
  31.2520113  12.7012753  65.2868903  31.1160113  13.1022753  65.9468903
  26.5210113  25.1722753  59.5948903  26.9620113  25.2522753  60.3428903
  25.7160113  24.9562753  59.8528903  26.4670113  25.1522753  59.7438903
  34.8120113  13.5972753  68.8708903  35.6670113  13.6962753  69.0158903
  34.4430113  14.1502753  69.4358903  34.8840113  13.6942753  68.9758903
  25.8400113  19.8232753  73.2478903  25.4440113  20.5972753  73.3228903
  25.4340113  19.4502753  72.5718903  25.7220113  19.8822753  73.1588903
  35.1160113  18.8772753  67.3618903  35.7820113  19.4182753  67.5218903
  34.7710113  19.1882753  66.6228903  35.1630113  19.0032753  67.2768903
  35.4290113  26.9432753  63.1688903  35.2550113  26.2892753  63.7188903
  36.1420113  26.6722753  62.7458903  35.5090113  26.8062753  63.1878903
  23.8500113  24.2422753  60.1958903  23.6060113  23.9352753  60.9758903
  23.8170113  23.5392753  59.6798903  23.8090113  24.0932753  60.2348903
  26.6690113  22.4872753  58.9388903  25.8510113  22.2192753  59.0788903
  26.6410113  23.3392753  59.1238903  26.5440113  22.5742753  58.9868903
  26.2690113  12.8002753  70.6978903  25.4050113  12.8842753  70.7778903
  26.4890113  12.2862753  71.3668903  26.1740113  12.7372753  70.8088903
  38.2870113  11.4352753  72.0268903  38.2350113  11.3912753  72.8968903
  38.9740113  10.9322753  71.8368903  38.3810113  11.3552753  72.1268903
  30.3720113  13.5482753  69.0718903  29.6350113  13.0942753  69.1848903
  30.9430113  13.1462753  69.5948903  30.3470113  13.4212753  69.1658903
  33.1040113  24.3962753  70.8598903  33.3100113  24.6972753  71.6518903
  33.0430113  25.1182753  70.3748903  33.1250113  24.5472753  70.9048903
  32.6380113  28.6102753  75.1058903  31.8850113  28.5922753  74.6648903
  32.8060113  29.4622753  75.1898903  32.5520113  28.7332753  75.0528903
  27.8750113  17.8772753  74.2758903  27.5530113  17.3012753  73.7058903
  27.5160113  18.6322753  74.0298903  27.7750113  17.9032753  74.1558903
  28.6710113  11.1292753  58.9028903  28.7490113  11.3762753  58.0698903
  27.9280113  11.5062753  59.1608903  28.5730113  11.2212753  58.8178903
  37.9160113  23.0352753  70.3178903  37.8840113  22.1732753  70.1828903
  37.2230113  23.3372753  69.8838903  37.8090113  22.9522753  70.2338903
  26.3100113  28.2332753  74.5238903  26.3510113  28.3592753  75.3868903
  26.9610113  27.6732753  74.3678903  26.4120113  28.1692753  74.6288903
  36.0210113  26.2952753  69.1148903  36.5480113  26.2122753  68.4238903
  35.6300113  25.5172753  69.1688903  36.0410113  26.1682753  69.0208903
  23.4890113  12.8832753  71.3458903  23.1460113  12.1162753  71.1118903
  22.7940113  13.4072753  71.4098903  23.3360113  12.8472753  71.3208903
  32.5350113  11.7392753  68.3228903  33.2050113  12.2832753  68.4498903
  32.0320113  12.1632753  67.7498903  32.5600113  11.8822753  68.2568903
  23.9030113  26.6162753  75.8838903  24.4980113  27.0472753  76.3558903
  23.5390113  27.2402753  75.3948903  23.9370113  26.7722753  75.8808903
  31.8940113  17.5472753  65.8158903  32.4450113  16.9402753  66.1158903
  31.4690113  17.8102753  66.5308903  31.9130113  17.4962753  65.9648903
  22.1420113  16.1972753  65.3018903  21.7740113  16.4992753  66.0328903
  22.6760113  15.5682753  65.5858903  22.1660113  16.1492753  65.4518903
  21.8300113  24.6052753  72.8128903  21.2560113  25.0212753  73.3218903
  22.5630113  25.0702753  72.9078903  21.8540113  24.7352753  72.9018903
  33.8640113  19.3782753  62.3778903  33.9320113  18.5282753  62.5588903
  33.0410113  19.4642753  62.0998903  33.7520113  19.2652753  62.3638903
  23.6160113  27.8722753  61.5878903  23.4710113  28.0282753  60.7418903
  24.4820113  27.9512753  61.6658903  23.7230113  27.9072753  61.4748903
  27.7830113  20.2692753  61.3158903  27.8830113  20.4082753  60.4608903
  28.6010113  20.2092753  61.6118903  27.9180113  20.2802753  61.2328903
  36.9430113  28.3332753  58.7958903  37.5800113  28.1992753  59.3768903
  36.6020113  27.5392753  58.6788903  36.9870113  28.1962753  58.8638903
  37.1380113  20.7512753  75.5288903  37.7720113  20.5812753  76.1028903
  37.5550113  21.1542753  74.8768903  37.2930113  20.7862753  75.5178903
  33.0180113  24.5982753  61.1178903  32.7670113  24.4702753  61.9438903
  32.7010113  23.9032753  60.6968903  32.9340113  24.4772753  61.1778903
  37.7630113  15.3152753  76.2668903  37.5670113  15.9592753  76.8218903
  37.0410113  14.8252753  76.2588903  37.6280113  15.3382753  76.3478903
  37.6620113  16.2562753  69.2378903  36.8290113  16.5062753  69.1658903
  37.6060113  15.4162753  69.4668903  37.5310113  16.1692753  69.2608903
  26.9220113  13.2442753  74.4318903  27.1560113  12.6682753  73.8188903
  26.0800113  13.0632753  74.5728903  26.8320113  13.1322753  74.3618903
  34.5490113  20.8622753  76.8838903  35.4200113  20.8262753  76.8478903
  34.3300113  21.2822753  76.1518903  34.6460113  20.9182753  76.7708903
  24.3030113  26.6872753  68.0648903  24.2240113  25.8772753  67.7488903
  23.8590113  27.1742753  67.4928903  24.2260113  26.6392753  67.9338903
  29.9040113  22.8062753  60.5478903  30.6210113  22.4592753  60.1918903
  29.8700113  23.6062753  60.1998903  30.0050113  22.8732753  60.4438903
  21.8750113  28.9312753  71.6458903  22.3680113  28.8752753  72.3638903
  22.0630113  28.1982753  71.2108903  21.9760113  28.8142753  71.6878903
  31.3130113  11.4472753  44.7866493  31.0680113  11.9352753  44.1066493
  32.1760113  11.3742753  44.6866493  31.4040113  11.5082753  44.6716493
  31.1220113  18.3632753  49.4576493  30.5980113  18.9592753  49.8206493
  31.5190113  17.9952753  50.1416493  31.1030113  18.3972753  49.6126493
  20.9910113  22.5032753  44.9136493  20.5500113  22.6212753  45.6566493
  20.7080113  21.7282753  44.6286493  20.8840113  22.4062753  44.9816493
  20.7340113  16.2952753  41.4206493  19.9560113  16.4572753  41.0606493
  20.7730113  15.4242753  41.4426493  20.6250113  16.1902753  41.3706493
  23.8730113  21.5582753  40.0926493  23.4810113  21.1872753  39.4066493
  23.7930113  20.9602753  40.7216493  23.8030113  21.4152753  40.0836493
  33.7930113  19.4302753  46.1336493  33.8730113  19.4342753  45.2646493
  33.2090113  18.7982753  46.2826493  33.7180113  19.3372753  46.0276493
  23.5000113  23.1992753  43.9926493  24.1080113  23.0292753  44.5956493
  22.7490113  23.0592753  44.4136493  23.4790113  23.1532753  44.1436493
  27.7820113  12.5342753  43.9416493  27.7120113  13.2112753  43.3956493
  28.5230113  12.1462753  43.6926493  27.8810113  12.5772753  43.8236493
  22.3910113  26.2902753  40.0696493  22.8580113  26.3742753  39.3376493
  22.8460113  25.7122753  40.5386493  22.5270113  26.2172753  40.0306493
  20.9310113  25.2382753  51.1686493  21.0600113  24.9582753  51.9846493
  20.3210113  24.6972753  50.8596493  20.8600113  25.1172753  51.2436493
  27.5050113  22.7632753  56.2356493  27.2690113  22.7602753  57.0756493
  26.7570113  22.6152753  55.8116493  27.3590113  22.7402753  56.2966493
  22.3770113  19.7592753  45.3706493  21.9150113  19.3672753  44.7436493
  23.0770113  19.2462753  45.4626493  22.4120113  19.6262753  45.2916493
  26.8850113  15.3692753  50.7176493  27.5630113  15.3872753  50.1686493
  26.8400113  14.5332753  50.9626493  26.9780113  15.2482753  50.6726493
  27.4870113  25.9552753  53.4986493  27.6250113  26.7152753  53.0916493
  28.2780113  25.5902753  53.5256493  27.6240113  26.0142753  53.4426493
  24.3780113  17.8592753  45.3936493  25.1950113  17.6722753  45.6366493
  23.9010113  17.2452753  45.7896493  24.4280113  17.7412753  45.4886493
  28.5820113  23.8402753  48.0036493  28.9300113  23.0412753  48.0336493
  29.2470113  24.3442753  47.7486493  28.7320113  23.7962753  47.9706493
  28.6390113  23.2892753  44.2146493  28.9700113  22.6452753  44.7006493
  28.8790113  23.0782753  43.4036493  28.7230113  23.1632753  44.1666493
  30.6070113  17.4202753  55.5536493  29.7590113  17.3212753  55.3756493
  30.6360113  18.1652753  56.0076493  30.4860113  17.5162753  55.5946493
  24.9750113  12.9532753  44.6596493  24.6790113  13.4542753  44.0096493
  25.8420113  13.0312753  44.6026493  25.0590113  13.0392753  44.5556493
  35.1650113  10.3802753  54.6676493  35.0070113  11.1492753  54.2856493
  34.3930113  10.1602753  55.0116493  35.0270113  10.4612753  54.6626493
  27.9540113  12.0952753  46.8826493  28.0270113  12.9552753  47.0116493
  27.9160113  12.0202753  46.0146493  27.9590113  12.2112753  46.7736493
  32.6270113  15.0212753  39.1816493  32.1770113  15.7022753  39.4886493
  32.7410113  14.5172753  39.8846493  32.5780113  15.0472753  39.3306493
  20.8330113  17.5202753  48.3836493  20.5770113  18.3512753  48.3086493
  20.1690113  17.1372753  48.8006493  20.6970113  17.5862753  48.4346493
  20.7430113  27.2302753  46.2836493  20.1510113  27.7882753  45.9706493
  21.1690113  26.9612753  45.5716493  20.7190113  27.2722753  46.1326493
  26.5830113  25.0742753  43.7636493  26.0040113  24.7992753  44.3556493
  27.2070113  24.4652753  43.7886493  26.5900113  24.9442753  43.8546493
  23.8620113  12.3372753  48.8746493  23.3410113  11.7092753  48.5666493
  24.4530113  11.9002753  49.3456493  23.8730113  12.1792753  48.8986493
  27.1680113  14.4702753  58.1726493  27.2850113  14.0162753  57.4366493
  27.4560113  15.2682753  57.9696493  27.2280113  14.5212753  58.0336493
  22.2880113  25.9002753  44.2146493  22.9440113  25.3252753  44.2296493
  22.6770113  26.6492753  43.9936493  22.4430113  25.9252753  44.1846493
  38.0210113  14.9942753  45.4766493  37.6750113  15.6722753  45.9026493
  37.3850113  14.3962753  45.4926493  37.8760113  15.0062753  45.5416493
  22.9010113  14.0672753  57.1566493  22.1230113  13.6772753  57.0846493
  23.3920113  13.6552753  56.5656493  22.8580113  13.9482753  57.0586493
  23.1060113  24.3872753  47.7146493  23.5290113  24.0312753  47.0406493
  23.4300113  23.9652753  48.4066493  23.2160113  24.2722753  47.7176493
  26.3370113  27.2392753  47.0106493  27.1810113  27.3432753  46.8156493
  26.0400113  28.0572753  47.0786493  26.4180113  27.3752753  46.9916493
  29.5500113  11.7102753  56.3246493  29.7280113  10.9012753  56.0496493
  29.4070113  12.1512753  55.5856493  29.5550113  11.6562753  56.1746493
  30.1440113  16.6362753  45.0976493  30.4310113  16.4042753  44.3076493
  30.8760113  16.7152753  45.5666493  30.2940113  16.6132753  45.0506493
  30.8660113  16.9752753  40.2186493  31.1470113  17.7632753  40.4676493
  30.0900113  17.1402753  39.8556493  30.7930113  17.1162753  40.2016493
  25.3350113  28.4582753  52.7506493  25.6270113  28.3912753  53.5706493
  24.7090113  27.8532753  52.7056493  25.2860113  28.3592753  52.8656493
  37.6960113  13.3172753  50.8456493  38.4530113  13.3892753  50.4176493
  37.7590113  12.5442753  51.2446493  37.8170113  13.2142753  50.8406493
  20.2490113  14.6152753  54.7426493  20.2450113  15.2022753  55.3886493
  20.8430113  14.9272753  54.1856493  20.3360113  14.7482753  54.7556493
  32.5870113  24.9492753  55.2846493  32.5530113  25.3312753  56.0686493
  33.4410113  24.9072753  55.1136493  32.7080113  24.9992753  55.3756493
  33.2320113  13.0422753  41.0886493  33.7720113  12.3602753  41.1646493
  33.2940113  13.4402753  41.8626493  33.3210113  13.0002753  41.2146493
  21.1860113  14.2102753  43.6576493  21.0720113  13.3462753  43.6886493
  20.7110113  14.5042753  44.3276493  21.0990113  14.1262753  43.7606493
  23.3280113  26.6202753  51.8726493  22.6300113  26.1122753  51.9986493
  23.5880113  26.4152753  51.0646493  23.2630113  26.5152753  51.7716493
  30.4900113  15.4182753  42.4026493  29.9820113  14.7562753  42.1486493
  30.5420113  15.9222753  41.6926493  30.4230113  15.3952753  42.2606493
  31.0390113  28.1132753  52.7826493  31.8070113  28.0332753  52.3766493
  30.4560113  27.9922753  52.1446493  31.0660113  28.0832753  52.6286493
  30.4900113  12.3592753  42.2936493  30.0350113  11.9572753  41.6676493
  31.2630113  12.5142753  41.9186493  30.5370113  12.3232753  42.1456493
  29.0880113  14.7262753  46.8156493  29.1620113  15.2942753  46.1576493
  29.2090113  15.2182753  47.5256493  29.1160113  14.8832753  46.8236493
  23.6960113  10.5492753  45.1636493  24.2320113  11.2372753  45.1536493
  23.6990113  10.2752753  44.3356493  23.7750113  10.6102753  45.0396493
  26.6520113  20.9822753  49.1886493  26.8240113  20.7722753  50.0176493
  25.9970113  20.4482753  48.9726493  26.5810113  20.8722753  49.2796493
  32.8800113  14.8962753  52.7036493  32.7850113  15.2152753  53.5096493
  32.2870113  14.2572753  52.6656493  32.7780113  14.8482753  52.8176493
  27.4020113  20.9202753  51.7786493  27.4550113  21.7672753  51.9806493
  27.1170113  20.5502753  52.5156493  27.3680113  20.9902753  51.9166493
  33.5790113  21.6152753  50.9086493  33.0650113  21.2032753  51.4796493
  33.4530113  22.4592753  51.0896493  33.4850113  21.6792753  51.0196493
  34.1360113  10.8402753  45.5396493  34.1850113  10.5222753  46.3506493
  34.4590113  10.1962753  45.0466493  34.1910113  10.6982753  45.5866493
  20.2230113  25.2912753  57.9896493  20.9790113  25.6402753  58.2476493
  20.4000113  24.4382753  57.9326493  20.3610113  25.2162753  58.0196493
  24.1440113  14.3592753  46.8176493  24.4160113  13.9292753  46.1096493
  23.9680113  13.7232753  47.3886493  24.1580113  14.2022753  46.7976493
  36.8320113  22.0542753  41.0356493  36.9510113  21.7672753  41.8506493
  37.6390113  22.0752753  40.7056493  36.9680113  22.0152753  41.1076493
  23.9680113  21.7862753  46.3666493  24.8190113  21.7062753  46.1936493
  23.6110113  21.1042753  45.9546493  24.0410113  21.6732753  46.2796493
  22.7350113  28.5112753  47.6036493  22.0620113  28.0132753  47.3586493
  23.1380113  28.6962753  46.8526493  22.6950113  28.4652753  47.4566493
  22.2850113  15.4612753  49.8996493  23.1280113  15.6812753  49.8566493
  21.8960113  16.0342753  49.3686493  22.3520113  15.5782753  49.8146493
  39.0660113  26.5632753  55.2896493  38.3840113  26.8732753  54.8426493
  38.6970113  26.1052753  55.9346493  38.9100113  26.5412753  55.3186493
  34.7270113  18.5912753  40.6206493  34.5070113  19.3222753  40.1986493
  34.2790113  18.6422753  41.3676493  34.6280113  18.7062753  40.6686493
  26.3360113  21.7932753  44.6016493  27.0490113  22.2882753  44.6916493
  26.5580113  21.2262753  43.9756493  26.4740113  21.7822753  44.5226493
  38.9140113  13.4522753  40.0736493  38.2520113  12.8842753  40.0966493
  38.7210113  13.9642753  39.3936493  38.7880113  13.4442753  39.9766493
  20.4920113  23.4362753  47.9216493  19.8250113  23.9242753  48.1976493
  21.1720113  23.9812753  47.9506493  20.4940113  23.5882753  47.9666493
  28.1390113  17.1462753  58.0176493  27.6550113  17.7232753  58.4596493
  28.1110113  17.4412753  57.1966493  28.0630113  17.2752753  57.9616493
  39.2370113  17.8302753  52.6296493  39.4520113  17.0302753  52.3536493
  38.3870113  17.8902753  52.4406493  39.1430113  17.7212753  52.5606493
  20.5580113  20.1202753  43.0246493  20.3730113  19.2812753  43.1766493
  21.2170113  20.0842753  42.4546493  20.6280113  19.9912753  42.9626493
  36.9160113  13.0102753  42.3526493  37.6620113  12.6032753  42.5516493
  37.1790113  13.7252753  41.9276493  37.0650113  13.0562753  42.3196493
  20.7300113  24.2842753  42.5996493  21.2820113  24.8532753  42.9636493
  20.4980113  23.7692753  43.2646493  20.7770113  24.2922753  42.7516493
  24.9340113  23.2842753  49.6886493  25.4010113  23.5732753  50.3666493
  25.5060113  22.8062753  49.2346493  25.0880113  23.2562753  49.7216493
  33.3700113  15.2982753  47.4256493  33.7140113  15.4502753  48.2126493
  32.9170113  14.5602753  47.5386493  33.3540113  15.2112753  47.5586493
  20.5600113  22.7332753  40.2276493  21.3160113  22.3012753  40.2856493
  20.5750113  23.2652753  40.9186493  20.6740113  22.7482753  40.3386493
  21.5000113  20.9542753  48.2326493  21.9310113  20.8252753  47.4856493
  21.2950113  21.8022753  48.2066493  21.5330113  21.0602753  48.1186493
  27.8460113  14.5182753  41.8826493  27.8440113  14.4012753  41.0176493
  27.6650113  15.3662753  41.9746493  27.8190113  14.6262753  41.7686493
  36.9000113  26.9452753  53.3796493  36.2290113  27.4592753  53.5976493
  36.9630113  27.0452753  52.5156493  36.8100113  27.0362753  53.2846493
  25.5840113  24.4702753  46.5146493  25.7100113  25.3132753  46.7016493
  26.2520113  24.0712753  46.9106493  25.7020113  24.5362753  46.6006493
  23.7140113  17.9532753  56.3766493  23.1780113  17.4472753  56.8446493
  23.7340113  17.5632753  55.5966493  23.6370113  17.8202753  56.3306493
  24.1990113  17.3502753  41.5166493  24.0710113  16.9022753  42.2546493
  23.6170113  17.0082753  40.9646493  24.0940113  17.2332753  41.5446493
  24.3660113  19.1802753  48.1156493  23.5850113  19.1212753  47.7326493
  24.4380113  18.4282753  48.5526493  24.2610113  19.0612753  48.1236493
  24.7960113  18.9172753  51.5836493  24.8210113  18.2422753  51.0326493
  24.1500113  19.4132753  51.2716493  24.7050113  18.8902753  51.4566493
  34.6910113  16.6302753  49.9796493  34.0290113  16.9582753  50.4426493
  34.8780113  17.2642753  49.4106493  34.6210113  16.7722753  49.9636493
  28.8960113  27.6942753  50.9756493  28.6190113  27.0532753  50.4526493
  28.6880113  28.4202753  50.5376493  28.8250113  27.7072753  50.8336493
  31.3360113  12.5362753  53.4086493  31.4850113  11.7112753  53.1656493
  31.7150113  12.5912753  54.1926493  31.4140113  12.4222753  53.4886493
  32.8840113  14.5992753  43.4906493  33.3740113  15.3162753  43.4136493
  32.0940113  14.8602753  43.2276493  32.8400113  14.7432753  43.4406493
  22.5950113  20.2722753  57.1426493  22.5580113  20.7732753  56.4286493
  22.9260113  19.5202753  56.8476493  22.6380113  20.2342753  56.9936493
  34.1980113  22.4772753  55.4006493  34.6820113  23.1952753  55.4986493
  34.5920113  22.0502753  54.7496493  34.3280113  22.5202753  55.3186493
  28.4940113  25.3222753  56.5776493  28.8480113  25.1442753  57.3546493
  28.0580113  24.5932753  56.3786493  28.4820113  25.1882753  56.6636493
  29.4660113  16.0692753  49.2156493  29.9460113  16.7682753  49.4236493
  29.8390113  15.4222753  49.6666493  29.5920113  16.0772753  49.3126493
  31.6550113  19.2382753  41.4896493  31.6470113  19.9602753  40.9996493
  31.0160113  19.3732753  42.0666493  31.5600113  19.3652753  41.5026493
  32.6850113  23.0252753  48.7146493  31.8880113  23.2492753  48.9886493
  32.9430113  22.4312753  49.2996493  32.6050113  22.9702753  48.8416493
  26.5770113  27.8372753  43.1626493  26.4300113  27.0612753  43.5336493
  27.2660113  27.6902753  42.6476493  26.6570113  27.7002753  43.1416493
  26.2480113  11.5802753  41.1506493  26.3450113  11.4732753  42.0116493
  25.5400113  12.0862753  41.0856493  26.1580113  11.6392753  41.2686493
  35.9450113  21.0232753  53.5606493  36.0000113  21.1482753  52.6986493
  36.6980113  21.3432753  53.8626493  36.0640113  21.0882753  53.4776493
  36.9770113  11.3212753  56.5476493  36.3400113  10.9212753  56.1056493
  37.0030113  10.8902753  57.3056493  36.8870113  11.1992753  56.5936493
  23.3700113  19.8872753  42.3936493  23.6940113  19.1082753  42.1716493
  24.0160113  20.2552753  42.8486493  23.5130113  19.8262753  42.4276493
  31.6760113  20.8292753  53.1606493  31.5210113  21.4392753  53.7646493
  32.2100113  20.2712753  53.5666493  31.7320113  20.8372753  53.3096493
  20.3670113  11.5482753  43.3616493  20.4960113  10.8402753  42.8696493
  20.0000113  11.2302753  44.0866493  20.3320113  11.3962753  43.3966493
  30.0600113  19.2292753  43.8186493  30.1190113  19.8792753  44.3976493
  29.8710113  18.5332753  44.3096493  30.0410113  19.2222753  43.9766493
  24.5560113  13.7462753  40.3306493  24.0450113  13.7992753  39.6246493
  25.3400113  13.9862753  40.0346493  24.5960113  13.7892753  40.1826493
  29.2830113  21.2762753  48.2496493  28.4360113  21.0822753  48.3306493
  29.6070113  21.1112753  49.0426493  29.2050113  21.2232753  48.3786493
  26.0350113  28.0062753  39.1356493  26.4740113  27.3092753  39.4236493
  26.2420113  28.6302753  39.7086493  26.1310113  27.9952753  39.2626493
  23.1310113  20.9692753  50.5656493  23.8530113  21.4572753  50.5286493
  22.8610113  20.9392753  49.7366493  23.1980113  21.0372753  50.4376493
  26.3610113  16.1402753  47.3006493  27.2070113  15.9502753  47.3986493
  25.9910113  15.3632753  47.1626493  26.4310113  15.9972753  47.2946493
  21.1820113  17.4782753  43.9556493  21.6710113  17.1862753  44.6166493
  21.3110113  16.8852753  43.3286493  21.2730113  17.3472753  43.9606493
  36.2170113  20.5002753  50.8066493  36.2100113  19.7242753  51.2046493
  35.3760113  20.7342753  50.7996493  36.0920113  20.4202753  50.8646493
  25.7070113  18.9122753  39.4416493  25.0970113  18.5072753  39.9156493
  25.3210113  19.0302753  38.6686493  25.5600113  18.8692753  39.3976493
  22.5260113  22.0212753  54.8436493  22.1050113  21.5032753  54.2826493
  22.1740113  22.8072753  54.7006493  22.4120113  22.0612753  54.7396493
  37.4730113  20.5712753  48.2436493  37.1870113  20.9722753  48.9636493
  38.3330113  20.5092753  48.3706493  37.5580113  20.6212753  48.3686493
  35.1350113  14.4952753  56.7836493  34.6100113  14.9542753  57.3076493
  34.7740113  13.7002753  56.7776493  35.0040113  14.4452753  56.8596493
  20.6420113  13.3432753  48.6876493  20.6860113  13.6872753  47.8866493
  21.3970113  13.5802753  49.0546493  20.7600113  13.4292753  48.6236493
  33.6270113  18.0642753  56.8596493  33.7000113  18.1682753  57.7226493
  32.9930113  18.6222753  56.6386493  33.5440113  18.1622753  56.9546493
  35.8950113  18.3832753  55.2246493  36.2140113  19.1692753  55.4276493
  35.5250113  18.1132753  55.9676493  35.8880113  18.4592753  55.3646493
  35.6910113  16.6412753  46.4136493  34.9460113  16.3182753  46.7316493
  35.6930113  17.4672753  46.6936493  35.5810113  16.7152753  46.5016493
  38.5930113  18.9252753  57.9596493  38.5410113  18.5842753  57.1586493
  39.3300113  19.3922753  57.9376493  38.6940113  18.9442753  57.8376493
  38.1310113  22.6012753  54.1656493  38.7590113  22.0522753  53.9096493
  38.0700113  23.1662753  53.5036493  38.2150113  22.6042753  54.0296493
  27.2650113  23.8322753  51.4616493  26.9670113  24.4242753  52.0286493
  27.3200113  24.2742753  50.7126493  27.2290113  23.9852753  51.4346493
  25.2440113  22.7822753  54.8596493  24.4380113  22.4922753  55.0266493
  25.1550113  23.6502753  54.8656493  25.1120113  22.8672753  54.8846493
  34.6030113  12.9712753  53.8746493  35.3470113  13.4232753  53.8116493
  34.0370113  13.4412753  53.4056493  34.6300113  13.1082753  53.7966493
  26.4910113  15.8582753  53.6936493  26.6520113  15.1142753  54.1206493
  26.4460113  15.6092753  52.8586493  26.5080113  15.7112753  53.6336493
  35.8880113  10.9512753  51.5446493  35.6080113  11.7762753  51.5006493
  36.6040113  11.0042753  52.0406493  35.9530113  11.0812753  51.6116493
  28.2430113  11.6662753  53.5736493  28.9480113  11.9862753  53.1716493
  28.4840113  10.8592753  53.8006493  28.3820113  11.5942753  53.5476493
  27.2280113  25.8762753  49.5696493  26.6040113  26.4582753  49.3876493
  27.4760113  25.5902753  48.7836493  27.1720113  25.9202753  49.4266493
  31.5370113  22.5102753  56.5586493  32.2940113  22.7962753  56.2326493
  30.9900113  22.5622753  55.8806493  31.5680113  22.5602753  56.4096493
  35.4460113  25.0602753  55.0626493  35.7920113  25.3302753  55.8166493
  35.7400113  25.6422753  54.4826493  35.5410113  25.1862753  55.0886493
  37.3090113  17.2062753  40.4016493  37.6870113  17.8832753  40.0016493
  36.4670113  17.4302753  40.4326493  37.2400113  17.3392753  40.3466493
  28.8220113  20.6522753  39.4846493  28.0170113  20.4752753  39.1996493
  28.7890113  21.5032753  39.6766493  28.6980113  20.7512753  39.4716493
  24.7520113  16.7192753  49.6346493  25.1920113  16.6162753  48.8886493
  25.2970113  16.4062753  50.2396493  24.8970113  16.6582753  49.6136493
  32.7680113  15.8212753  55.2266493  32.1200113  16.2912753  55.5746493
  33.3330113  15.7322753  55.8856493  32.7560113  15.8772753  55.3756493
  32.4560113  17.3582753  51.5246493  32.7580113  17.7782753  52.2276493
  32.4920113  16.5182753  51.7566493  32.5060113  17.2962753  51.6626493
  29.8810113  27.5252753  55.4496493  30.3590113  26.9252753  55.0336493
  29.5300113  27.0822753  56.1146493  29.9000113  27.3712753  55.4866493
  35.0040113  16.8052753  43.7766493  35.2110113  16.6042753  44.6006493
  35.7600113  17.0732753  43.4346493  35.1460113  16.8152753  43.8476493
  28.2990113  11.7042753  49.6816493  27.4730113  11.5552753  49.9186493
  28.2590113  11.7392753  48.8106493  28.1710113  11.6872753  49.5876493
  36.0260113  12.8882753  45.2506493  35.3120113  12.4172753  45.4216493
  35.8640113  13.2292753  44.4646493  35.8970113  12.8692753  45.1596493
  36.4690113  20.8322753  43.6306493  36.9450113  20.1032753  43.5826493
  35.6480113  20.5462753  43.5546493  36.4180113  20.6822753  43.6116493
  29.9400113  22.7442753  54.4696493  29.1450113  22.6802753  54.8206493
  30.0110113  23.5912753  54.2746493  29.8330113  22.8592753  54.4926493
  20.8640113  12.1022753  55.7166493  20.7240113  12.8972753  55.3856493
  20.0780113  11.8592753  56.0056493  20.7270113  12.1842753  55.7106493
  25.7700113  28.9512753  49.7866493  25.7810113  29.0102753  50.6566493
  25.3450113  28.2042753  49.6366493  25.7090113  28.8492753  49.8926493
  23.9280113  14.8462753  42.9416493  24.0540113  14.5172753  42.1436493
  23.1160113  14.5972753  43.1406493  23.8270113  14.7612753  42.8536493
  30.2070113  21.2732753  45.5506493  29.9090113  20.9582753  46.3076493
  30.9020113  21.7462753  45.7856493  30.2660113  21.2962753  45.6976493
  30.4290113  25.3912753  53.5776493  31.1160113  25.2772753  54.1026493
  30.5630113  26.1822753  53.2336493  30.5500113  25.4912753  53.6046493
  38.6050113  18.0002753  55.3886493  37.7500113  17.8782753  55.5146493
  38.7580113  17.6052753  54.6256493  38.5010113  17.9232753  55.2946493
  33.1180113  18.6652753  53.9646493  32.8630113  17.9462753  54.3866493
  33.9390113  18.7812753  54.2346493  33.2020113  18.5762753  54.0666493
  22.5340113  28.4492753  55.2286493  21.8800113  27.8802753  55.3266493
  22.1590113  29.2222753  55.3796493  22.3820113  28.4792753  55.2656493
  31.0520113  19.8552753  57.1516493  31.3750113  20.5412753  56.7196493
  30.3480113  20.1782753  57.5536493  30.9950113  20.0042753  57.1466493
  30.8370113  23.3192753  51.0106493  30.1430113  23.7212753  51.3536493
  31.5140113  23.7522753  51.3496493  30.8340113  23.4422753  51.1116493
  36.2140113  25.9122753  57.5906493  36.9900113  25.5222753  57.6736493
  35.7450113  25.5762753  58.2456493  36.2590113  25.8052753  57.6996493
  23.9050113  16.8572753  53.3576493  24.2800113  17.4762753  52.8706493
  24.5790113  16.3832753  53.6426493  24.0600113  16.8792753  53.3276493
  21.6800113  15.3052753  52.6326493  21.7570113  15.1362753  51.7796493
  22.4260113  15.7112753  52.8296493  21.8010113  15.3402753  52.5356493
  37.2390113  17.9452753  43.0726493  37.3420113  17.8872753  42.2086493
  37.9800113  17.6132753  43.3906493  37.3640113  17.8882753  42.9916493
  24.2340113  12.7152753  55.0436493  24.1530113  11.8712753  55.2496493
  23.9200113  12.7592753  54.2306493  24.1760113  12.5972753  54.9536493
  36.3410113  18.0912753  52.4286493  36.3390113  17.2282753  52.5526493
  36.4080113  18.4152753  53.2356493  36.3510113  18.0112753  52.5656493
  21.0770113  20.5312753  52.8566493  21.3970113  20.7502753  52.0756493
  20.9770113  19.6662753  52.8016493  21.1090113  20.4362753  52.7336493
  22.5330113  16.4672753  39.4746493  21.8610113  16.4812753  40.0306493
  22.6280113  15.6192753  39.2906493  22.4480113  16.3442753  39.5296493
  32.2200113  12.8912753  56.2106493  32.3120113  13.6032753  56.7046493
  31.5830113  12.4462753  56.6076493  32.1390113  12.9302753  56.3426493
  31.2140113  13.0812753  47.0646493  30.5140113  13.5992753  47.0086493
  31.2520113  12.7012753  46.2806493  31.1160113  13.1022753  46.9406493
  26.5210113  25.1722753  40.5886493  26.9620113  25.2522753  41.3366493
  25.7160113  24.9562753  40.8466493  26.4670113  25.1522753  40.7376493
  34.8120113  13.5972753  49.8646493  35.6670113  13.6962753  50.0096493
  34.4430113  14.1502753  50.4296493  34.8840113  13.6942753  49.9696493
  25.8400113  19.8232753  54.2416493  25.4440113  20.5972753  54.3166493
  25.4340113  19.4502753  53.5656493  25.7220113  19.8822753  54.1526493
  35.1160113  18.8772753  48.3556493  35.7820113  19.4182753  48.5156493
  34.7710113  19.1882753  47.6166493  35.1630113  19.0032753  48.2706493
  23.8500113  24.2422753  41.1896493  23.6060113  23.9352753  41.9696493
  23.8170113  23.5392753  40.6736493  23.8090113  24.0932753  41.2286493
  26.6690113  22.4872753  39.9326493  25.8510113  22.2192753  40.0726493
  26.6410113  23.3392753  40.1176493  26.5440113  22.5742753  39.9806493
  26.2690113  12.8002753  51.6916493  25.4050113  12.8842753  51.7716493
  26.4890113  12.2862753  52.3606493  26.1740113  12.7372753  51.8026493
  38.2870113  11.4352753  53.0206493  38.2350113  11.3912753  53.8906493
  38.9740113  10.9322753  52.8306493  38.3810113  11.3552753  53.1206493
  30.3720113  13.5482753  50.0656493  29.6350113  13.0942753  50.1786493
  30.9430113  13.1462753  50.5886493  30.3470113  13.4212753  50.1596493
  33.1040113  24.3962753  51.8536493  33.3100113  24.6972753  52.6456493
  33.0430113  25.1182753  51.3686493  33.1250113  24.5472753  51.8986493
  32.6380113  28.6102753  56.0996493  31.8850113  28.5922753  55.6586493
  32.8060113  29.4622753  56.1836493  32.5520113  28.7332753  56.0466493
  27.8750113  17.8772753  55.2696493  27.5530113  17.3012753  54.6996493
  27.5160113  18.6322753  55.0236493  27.7750113  17.9032753  55.1496493
  28.6710113  11.1292753  39.8966493  28.7490113  11.3762753  39.0636493
  27.9280113  11.5062753  40.1546493  28.5730113  11.2212753  39.8116493
  37.9160113  23.0352753  51.3116493  37.8840113  22.1732753  51.1766493
  37.2230113  23.3372753  50.8776493  37.8090113  22.9522753  51.2276493
  26.3100113  28.2332753  55.5176493  26.3510113  28.3592753  56.3806493
  26.9610113  27.6732753  55.3616493  26.4120113  28.1692753  55.6226493
  23.4890113  12.8832753  52.3396493  23.1460113  12.1162753  52.1056493
  22.7940113  13.4072753  52.4036493  23.3360113  12.8472753  52.3146493
  32.5350113  11.7392753  49.3166493  33.2050113  12.2832753  49.4436493
  32.0320113  12.1632753  48.7436493  32.5600113  11.8822753  49.2506493
  23.9030113  26.6162753  56.8776493  24.4980113  27.0472753  57.3496493
  23.5390113  27.2402753  56.3886493  23.9370113  26.7722753  56.8746493
  31.8940113  17.5472753  46.8096493  32.4450113  16.9402753  47.1096493
  31.4690113  17.8102753  47.5246493  31.9130113  17.4962753  46.9586493
  22.1420113  16.1972753  46.2956493  21.7740113  16.4992753  47.0266493
  22.6760113  15.5682753  46.5796493  22.1660113  16.1492753  46.4456493
  21.8300113  24.6052753  53.8066493  21.2560113  25.0212753  54.3156493
  22.5630113  25.0702753  53.9016493  21.8540113  24.7352753  53.8956493
  33.8640113  19.3782753  43.3716493  33.9320113  18.5282753  43.5526493
  33.0410113  19.4642753  43.0936493  33.7520113  19.2652753  43.3576493
  23.6160113  27.8722753  42.5816493  23.4710113  28.0282753  41.7356493
  24.4820113  27.9512753  42.6596493  23.7230113  27.9072753  42.4686493
  27.7830113  20.2692753  42.3096493  27.8830113  20.4082753  41.4546493
  28.6010113  20.2092753  42.6056493  27.9180113  20.2802753  42.2266493
  37.1380113  20.7512753  56.5226493  37.7720113  20.5812753  57.0966493
  37.5550113  21.1542753  55.8706493  37.2930113  20.7862753  56.5116493
  37.7630113  15.3152753  57.2606493  37.5670113  15.9592753  57.8156493
  37.0410113  14.8252753  57.2526493  37.6280113  15.3382753  57.3416493
  37.6620113  16.2562753  50.2316493  36.8290113  16.5062753  50.1596493
  37.6060113  15.4162753  50.4606493  37.5310113  16.1692753  50.2546493
  26.9220113  13.2442753  55.4256493  27.1560113  12.6682753  54.8126493
  26.0800113  13.0632753  55.5666493  26.8320113  13.1322753  55.3556493
  34.5490113  20.8622753  57.8776493  35.4200113  20.8262753  57.8416493
  34.3300113  21.2822753  57.1456493  34.6460113  20.9182753  57.7646493
  24.3030113  26.6872753  49.0586493  24.2240113  25.8772753  48.7426493
  23.8590113  27.1742753  48.4866493  24.2260113  26.6392753  48.9276493
  21.8750113  28.9312753  52.6396493  22.3680113  28.8752753  53.3576493
  22.0630113  28.1982753  52.2046493  21.9760113  28.8142753  52.6816493
  31.3130113  11.4472753  25.7804083  31.0680113  11.9352753  25.1004083
  32.1760113  11.3742753  25.6804083  31.4040113  11.5082753  25.6654083
  31.1220113  18.3632753  30.4514083  30.5980113  18.9592753  30.8144083
  31.5190113  17.9952753  31.1354083  31.1030113  18.3972753  30.6064083
  20.9910113  22.5032753  25.9074083  20.5500113  22.6212753  26.6504083
  20.7080113  21.7282753  25.6224083  20.8840113  22.4062753  25.9754083
  37.2660113  25.8042753  23.4224083  37.9670113  25.2852753  23.4184083
  36.6790113  25.3592753  22.9534083  37.2830113  25.6612753  23.3524083
  20.7340113  16.2952753  22.4144083  19.9560113  16.4572753  22.0544083
  20.7730113  15.4242753  22.4364083  20.6250113  16.1902753  22.3644083
  23.8730113  21.5582753  21.0864083  23.4810113  21.1872753  20.4004083
  23.7930113  20.9602753  21.7154083  23.8030113  21.4152753  21.0774083
  33.7930113  19.4302753  27.1274083  33.8730113  19.4342753  26.2584083
  33.2090113  18.7982753  27.2764083  33.7180113  19.3372753  27.0214083
  23.5000113  23.1992753  24.9864083  24.1080113  23.0292753  25.5894083
  22.7490113  23.0592753  25.4074083  23.4790113  23.1532753  25.1374083
  27.7820113  12.5342753  24.9354083  27.7120113  13.2112753  24.3894083
  28.5230113  12.1462753  24.6864083  27.8810113  12.5772753  24.8174083
  22.3910113  26.2902753  21.0634083  22.8580113  26.3742753  20.3314083
  22.8460113  25.7122753  21.5324083  22.5270113  26.2172753  21.0244083
  20.9310113  25.2382753  32.1624083  21.0600113  24.9582753  32.9784083
  20.3210113  24.6972753  31.8534083  20.8600113  25.1172753  32.2374083
  27.5050113  22.7632753  37.2294083  27.2690113  22.7602753  38.0694083
  26.7570113  22.6152753  36.8054083  27.3590113  22.7402753  37.2904083
  22.3770113  19.7592753  26.3644083  21.9150113  19.3672753  25.7374083
  23.0770113  19.2462753  26.4564083  22.4120113  19.6262753  26.2854083
  24.3780113  17.8592753  26.3874083  25.1950113  17.6722753  26.6304083
  23.9010113  17.2452753  26.7834083  24.4280113  17.7412753  26.4824083
  28.5820113  23.8402753  28.9974083  28.9300113  23.0412753  29.0274083
  29.2470113  24.3442753  28.7424083  28.7320113  23.7962753  28.9644083
  30.6070113  17.4202753  36.5474083  29.7590113  17.3212753  36.3694083
  30.6360113  18.1652753  37.0014083  30.4860113  17.5162753  36.5884083
  24.9750113  12.9532753  25.6534083  24.6790113  13.4542753  25.0034083
  25.8420113  13.0312753  25.5964083  25.0590113  13.0392753  25.5494083
  35.1650113  10.3802753  35.6614083  35.0070113  11.1492753  35.2794083
  34.3930113  10.1602753  36.0054083  35.0270113  10.4612753  35.6564083
  27.9540113  12.0952753  27.8764083  28.0270113  12.9552753  28.0054083
  27.9160113  12.0202753  27.0084083  27.9590113  12.2112753  27.7674083
  32.6270113  15.0212753  20.1754083  32.1770113  15.7022753  20.4824083
  32.7410113  14.5172753  20.8784083  32.5780113  15.0472753  20.3244083
  20.8330113  17.5202753  29.3774083  20.5770113  18.3512753  29.3024083
  20.1690113  17.1372753  29.7944083  20.6970113  17.5862753  29.4284083
  20.7430113  27.2302753  27.2774083  20.1510113  27.7882753  26.9644083
  21.1690113  26.9612753  26.5654083  20.7190113  27.2722753  27.1264083
  26.5830113  25.0742753  24.7574083  26.0040113  24.7992753  25.3494083
  27.2070113  24.4652753  24.7824083  26.5900113  24.9442753  24.8484083
  32.7260113  27.3622753  22.2794083  33.4530113  27.8342753  22.3814083
  32.9550113  26.5682753  22.5594083  32.8680113  27.3152753  22.3364083
  30.8940113  27.7542753  24.2694083  31.1080113  28.2812753  24.9314083
  31.6610113  27.5802753  23.8904083  31.0390113  27.8062753  24.3114083
  23.8620113  12.3372753  29.8684083  23.3410113  11.7092753  29.5604083
  24.4530113  11.9002753  30.3394083  23.8730113  12.1792753  29.8924083
  27.1680113  14.4702753  39.1664083  27.2850113  14.0162753  38.4304083
  27.4560113  15.2682753  38.9634083  27.2280113  14.5212753  39.0274083
  22.2880113  25.9002753  25.2084083  22.9440113  25.3252753  25.2234083
  22.6770113  26.6492753  24.9874083  22.4430113  25.9252753  25.1784083
  38.0210113  14.9942753  26.4704083  37.6750113  15.6722753  26.8964083
  37.3850113  14.3962753  26.4864083  37.8760113  15.0062753  26.5354083
  22.9010113  14.0672753  38.1504083  22.1230113  13.6772753  38.0784083
  23.3920113  13.6552753  37.5594083  22.8580113  13.9482753  38.0524083
  23.1060113  24.3872753  28.7084083  23.5290113  24.0312753  28.0344083
  23.4300113  23.9652753  29.4004083  23.2160113  24.2722753  28.7114083
  26.3370113  27.2392753  28.0044083  27.1810113  27.3432753  27.8094083
  26.0400113  28.0572753  28.0724083  26.4180113  27.3752753  27.9854083
  29.5500113  11.7102753  37.3184083  29.7280113  10.9012753  37.0434083
  29.4070113  12.1512753  36.5794083  29.5550113  11.6562753  37.1684083
  30.1440113  16.6362753  26.0914083  30.4310113  16.4042753  25.3014083
  30.8760113  16.7152753  26.5604083  30.2940113  16.6132753  26.0444083
  30.8660113  16.9752753  21.2124083  31.1470113  17.7632753  21.4614083
  30.0900113  17.1402753  20.8494083  30.7930113  17.1162753  21.1954083
  25.3350113  28.4582753  33.7444083  25.6270113  28.3912753  34.5644083
  24.7090113  27.8532753  33.6994083  25.2860113  28.3592753  33.8594083
  37.6960113  13.3172753  31.8394083  38.4530113  13.3892753  31.4114083
  37.7590113  12.5442753  32.2384083  37.8170113  13.2142753  31.8344083
  20.2490113  14.6152753  35.7364083  20.2450113  15.2022753  36.3824083
  20.8430113  14.9272753  35.1794083  20.3360113  14.7482753  35.7494083
  29.7250113  25.1462753  21.0284083  29.5440113  25.6912753  21.6854083
  30.4910113  25.4362753  20.7274083  29.8110113  25.2702753  21.0814083
  33.2320113  13.0422753  22.0824083  33.7720113  12.3602753  22.1584083
  33.2940113  13.4402753  22.8564083  33.3210113  13.0002753  22.2084083
  21.1860113  14.2102753  24.6514083  21.0720113  13.3462753  24.6824083
  20.7110113  14.5042753  25.3214083  21.0990113  14.1262753  24.7544083
  23.3280113  26.6202753  32.8664083  22.6300113  26.1122753  32.9924083
  23.5880113  26.4152753  32.0584083  23.2630113  26.5152753  32.7654083
  30.4900113  15.4182753  23.3964083  29.9820113  14.7562753  23.1424083
  30.5420113  15.9222753  22.6864083  30.4230113  15.3952753  23.2544083
  30.4900113  12.3592753  23.2874083  30.0350113  11.9572753  22.6614083
  31.2630113  12.5142753  22.9124083  30.5370113  12.3232753  23.1394083
  29.0880113  14.7262753  27.8094083  29.1620113  15.2942753  27.1514083
  29.2090113  15.2182753  28.5194083  29.1160113  14.8832753  27.8174083
  34.3130113  24.5612753  26.2214083  35.0140113  24.0792753  26.4104083
  33.6530113  23.9922753  26.2664083  34.3190113  24.4062753  26.2554083
  24.6890113  25.4712753  35.4334083  25.5300113  25.5342753  35.2114083
  24.6520113  25.8682753  36.2094083  24.8080113  25.5392753  35.5154083
  23.6960113  10.5492753  26.1574083  24.2320113  11.2372753  26.1474083
  23.6990113  10.2752753  25.3294083  23.7750113  10.6102753  26.0334083
  26.6520113  20.9822753  30.1824083  26.8240113  20.7722753  31.0114083
  25.9970113  20.4482753  29.9664083  26.5810113  20.8722753  30.2734083
  32.8800113  14.8962753  33.6974083  32.7850113  15.2152753  34.5034083
  32.2870113  14.2572753  33.6594083  32.7780113  14.8482753  33.8114083
  27.4020113  20.9202753  32.7724083  27.4550113  21.7672753  32.9744083
  27.1170113  20.5502753  33.5094083  27.3680113  20.9902753  32.9104083
  34.1360113  10.8402753  26.5334083  34.1850113  10.5222753  27.3444083
  34.4590113  10.1962753  26.0404083  34.1910113  10.6982753  26.5804083
  20.2230113  25.2912753  38.9834083  20.9790113  25.6402753  39.2414083
  20.4000113  24.4382753  38.9264083  20.3610113  25.2162753  39.0134083
  36.6000113  15.0762753  34.8414083  37.3720113  14.8512753  35.1784083
  36.1250113  15.2932753  35.5414083  36.6440113  15.0752753  34.9944083
  24.1440113  14.3592753  27.8114083  24.4160113  13.9292753  27.1034083
  23.9680113  13.7232753  28.3824083  24.1580113  14.2022753  27.7914083
  36.8320113  22.0542753  22.0294083  36.9510113  21.7672753  22.8444083
  37.6390113  22.0752753  21.6994083  36.9680113  22.0152753  22.1014083
  23.9680113  21.7862753  27.3604083  24.8190113  21.7062753  27.1874083
  23.6110113  21.1042753  26.9484083  24.0410113  21.6732753  27.2734083
  22.7350113  28.5112753  28.5974083  22.0620113  28.0132753  28.3524083
  23.1380113  28.6962753  27.8464083  22.6950113  28.4652753  28.4504083
  22.2850113  15.4612753  30.8934083  23.1280113  15.6812753  30.8504083
  21.8960113  16.0342753  30.3624083  22.3520113  15.5782753  30.8084083
  34.7270113  18.5912753  21.6144083  34.5070113  19.3222753  21.1924083
  34.2790113  18.6422753  22.3614083  34.6280113  18.7062753  21.6624083
  26.3360113  21.7932753  25.5954083  27.0490113  22.2882753  25.6854083
  26.5580113  21.2262753  24.9694083  26.4740113  21.7822753  25.5164083
  38.9140113  13.4522753  21.0674083  38.2520113  12.8842753  21.0904083
  38.7210113  13.9642753  20.3874083  38.7880113  13.4442753  20.9704083
  20.4920113  23.4362753  28.9154083  19.8250113  23.9242753  29.1914083
  21.1720113  23.9812753  28.9444083  20.4940113  23.5882753  28.9604083
  28.1390113  17.1462753  39.0114083  27.6550113  17.7232753  39.4534083
  28.1110113  17.4412753  38.1904083  28.0630113  17.2752753  38.9554083
  39.2370113  17.8302753  33.6234083  39.4520113  17.0302753  33.3474083
  38.3870113  17.8902753  33.4344083  39.1430113  17.7212753  33.5544083
  20.5580113  20.1202753  24.0184083  20.3730113  19.2812753  24.1704083
  21.2170113  20.0842753  23.4484083  20.6280113  19.9912753  23.9564083
  36.9160113  13.0102753  23.3464083  37.6620113  12.6032753  23.5454083
  37.1790113  13.7252753  22.9214083  37.0650113  13.0562753  23.3134083
  20.7300113  24.2842753  23.5934083  21.2820113  24.8532753  23.9574083
  20.4980113  23.7692753  24.2584083  20.7770113  24.2922753  23.7454083
  24.9340113  23.2842753  30.6824083  25.4010113  23.5732753  31.3604083
  25.5060113  22.8062753  30.2284083  25.0880113  23.2562753  30.7154083
  33.3700113  15.2982753  28.4194083  33.7140113  15.4502753  29.2064083
  32.9170113  14.5602753  28.5324083  33.3540113  15.2112753  28.5524083
  20.5600113  22.7332753  21.2214083  21.3160113  22.3012753  21.2794083
  20.5750113  23.2652753  21.9124083  20.6740113  22.7482753  21.3324083
  21.5000113  20.9542753  29.2264083  21.9310113  20.8252753  28.4794083
  21.2950113  21.8022753  29.2004083  21.5330113  21.0602753  29.1124083
  27.8460113  14.5182753  22.8764083  27.8440113  14.4012753  22.0114083
  27.6650113  15.3662753  22.9684083  27.8190113  14.6262753  22.7624083
  25.5840113  24.4702753  27.5084083  25.7100113  25.3132753  27.6954083
  26.2520113  24.0712753  27.9044083  25.7020113  24.5362753  27.5944083
  23.7140113  17.9532753  37.3704083  23.1780113  17.4472753  37.8384083
  23.7340113  17.5632753  36.5904083  23.6370113  17.8202753  37.3244083
  24.1990113  17.3502753  22.5104083  24.0710113  16.9022753  23.2484083
  23.6170113  17.0082753  21.9584083  24.0940113  17.2332753  22.5384083
  24.3660113  19.1802753  29.1094083  23.5850113  19.1212753  28.7264083
  24.4380113  18.4282753  29.5464083  24.2610113  19.0612753  29.1174083
  24.7960113  18.9172753  32.5774083  24.8210113  18.2422753  32.0264083
  24.1500113  19.4132753  32.2654083  24.7050113  18.8902753  32.4504083
  34.6910113  16.6302753  30.9734083  34.0290113  16.9582753  31.4364083
  34.8780113  17.2642753  30.4044083  34.6210113  16.7722753  30.9574083
  31.3360113  12.5362753  34.4024083  31.4850113  11.7112753  34.1594083
  31.7150113  12.5912753  35.1864083  31.4140113  12.4222753  34.4824083
  32.8840113  14.5992753  24.4844083  33.3740113  15.3162753  24.4074083
  32.0940113  14.8602753  24.2214083  32.8400113  14.7432753  24.4344083
  22.5950113  20.2722753  38.1364083  22.5580113  20.7732753  37.4224083
  22.9260113  19.5202753  37.8414083  22.6380113  20.2342753  37.9874083
  29.4660113  16.0692753  30.2094083  29.9460113  16.7682753  30.4174083
  29.8390113  15.4222753  30.6604083  29.5920113  16.0772753  30.3064083
  31.6550113  19.2382753  22.4834083  31.6470113  19.9602753  21.9934083
  31.0160113  19.3732753  23.0604083  31.5600113  19.3652753  22.4964083
  36.6270113  23.1082753  26.4644083  36.9830113  22.7582753  27.1794083
  36.6190113  22.4472753  25.8944083  36.6790113  22.9582753  26.4854083
  26.5770113  27.8372753  24.1564083  26.4300113  27.0612753  24.5274083
  27.2660113  27.6902753  23.6414083  26.6570113  27.7002753  24.1354083
  26.2480113  11.5802753  22.1444083  26.3450113  11.4732753  23.0054083
  25.5400113  12.0862753  22.0794083  26.1580113  11.6392753  22.2624083
  28.8690113  27.3532753  22.5584083  29.4910113  27.5162753  23.1484083
  28.9050113  28.0442753  22.0264083  28.9660113  27.4792753  22.5674083
  35.9450113  21.0232753  34.5544083  36.0000113  21.1482753  33.6924083
  36.6980113  21.3432753  34.8564083  36.0640113  21.0882753  34.4714083
  36.9770113  11.3212753  37.5414083  36.3400113  10.9212753  37.0994083
  37.0030113  10.8902753  38.2994083  36.8870113  11.1992753  37.5874083
  23.3700113  19.8872753  23.3874083  23.6940113  19.1082753  23.1654083
  24.0160113  20.2552753  23.8424083  23.5130113  19.8262753  23.4214083
  31.6760113  20.8292753  34.1544083  31.5210113  21.4392753  34.7584083
  32.2100113  20.2712753  34.5604083  31.7320113  20.8372753  34.3034083
  20.3670113  11.5482753  24.3554083  20.4960113  10.8402753  23.8634083
  20.0000113  11.2302753  25.0804083  20.3320113  11.3962753  24.3904083
  30.0600113  19.2292753  24.8124083  30.1190113  19.8792753  25.3914083
  29.8710113  18.5332753  25.3034083  30.0410113  19.2222753  24.9704083
  24.5560113  13.7462753  21.3244083  24.0450113  13.7992753  20.6184083
  25.3400113  13.9862753  21.0284083  24.5960113  13.7892753  21.1764083
  29.2830113  21.2762753  29.2434083  28.4360113  21.0822753  29.3244083
  29.6070113  21.1112753  30.0364083  29.2050113  21.2232753  29.3724083
  26.0350113  28.0062753  20.1294083  26.4740113  27.3092753  20.4174083
  26.2420113  28.6302753  20.7024083  26.1310113  27.9952753  20.2564083
  23.1310113  20.9692753  31.5594083  23.8530113  21.4572753  31.5224083
  22.8610113  20.9392753  30.7304083  23.1980113  21.0372753  31.4314083
  26.3610113  16.1402753  28.2944083  27.2070113  15.9502753  28.3924083
  25.9910113  15.3632753  28.1564083  26.4310113  15.9972753  28.2884083
  38.9780113  27.7242753  22.6214083  39.6720113  27.2572753  22.3734083
  38.4390113  27.1262753  22.9584083  39.0010113  27.5662753  22.6344083
  21.1820113  17.4782753  24.9494083  21.6710113  17.1862753  25.6104083
  21.3110113  16.8852753  24.3224083  21.2730113  17.3472753  24.9544083
  36.2170113  20.5002753  31.8004083  36.2100113  19.7242753  32.1984083
  35.3760113  20.7342753  31.7934083  36.0920113  20.4202753  31.8584083
  25.7070113  18.9122753  20.4354083  25.0970113  18.5072753  20.9094083
  25.3210113  19.0302753  19.6624083  25.5600113  18.8692753  20.3914083
  22.5260113  22.0212753  35.8374083  22.1050113  21.5032753  35.2764083
  22.1740113  22.8072753  35.6944083  22.4120113  22.0612753  35.7334083
  37.4730113  20.5712753  29.2374083  37.1870113  20.9722753  29.9574083
  38.3330113  20.5092753  29.3644083  37.5580113  20.6212753  29.3624083
  27.1620113  17.3732753  23.1454083  27.4340113  18.1992753  23.2124083
  26.2990113  17.4482753  23.0494083  27.0750113  17.5062753  23.1404083
  35.1350113  14.4952753  37.7774083  34.6100113  14.9542753  38.3014083
  34.7740113  13.7002753  37.7714083  35.0040113  14.4452753  37.8534083
  20.6420113  13.3432753  29.6814083  20.6860113  13.6872753  28.8804083
  21.3970113  13.5802753  30.0484083  20.7600113  13.4292753  29.6174083
  33.6270113  18.0642753  37.8534083  33.7000113  18.1682753  38.7164083
  32.9930113  18.6222753  37.6324083  33.5440113  18.1622753  37.9484083
  35.8950113  18.3832753  36.2184083  36.2140113  19.1692753  36.4214083
  35.5250113  18.1132753  36.9614083  35.8880113  18.4592753  36.3584083
  35.2090113  24.8072753  21.7484083  35.5430113  24.0012753  21.7834083
  34.4540113  24.7352753  22.1784083  35.1470113  24.6772753  21.8174083
  35.6910113  16.6412753  27.4074083  34.9460113  16.3182753  27.7254083
  35.6930113  17.4672753  27.6874083  35.5810113  16.7152753  27.4954083
  38.5930113  18.9252753  38.9534083  38.5410113  18.5842753  38.1524083
  39.3300113  19.3922753  38.9314083  38.6940113  18.9442753  38.8314083
  38.1310113  22.6012753  35.1594083  38.7590113  22.0522753  34.9034083
  38.0700113  23.1662753  34.4974083  38.2150113  22.6042753  35.0234083
  32.5830113  22.6822753  21.1514083  33.2670113  22.1682753  20.9824083
  32.1660113  22.7282753  20.3864083  32.6220113  22.6132753  21.0134083
  27.2650113  23.8322753  32.4554083  26.9670113  24.4242753  33.0224083
  27.3200113  24.2742753  31.7064083  27.2290113  23.9852753  32.4284083
  25.2440113  22.7822753  35.8534083  24.4380113  22.4922753  36.0204083
  25.1550113  23.6502753  35.8594083  25.1120113  22.8672753  35.8784083
  34.6030113  12.9712753  34.8684083  35.3470113  13.4232753  34.8054083
  34.0370113  13.4412753  34.3994083  34.6300113  13.1082753  34.7904083
  29.7810113  20.2552753  31.9464083  30.2570113  20.6292753  32.5744083
  28.9580113  20.3892753  32.2054083  29.7300113  20.3302753  32.0774083
  26.4910113  15.8582753  34.6874083  26.6520113  15.1142753  35.1144083
  26.4460113  15.6092753  33.8524083  26.5080113  15.7112753  34.6274083
  29.0450113  27.6482753  27.1744083  29.5910113  28.3272753  27.2284083
  28.6950113  27.7302753  26.3794083  29.0740113  27.7612753  27.0644083
  35.8880113  10.9512753  32.5384083  35.6080113  11.7762753  32.4944083
  36.6040113  11.0042753  33.0344083  35.9530113  11.0812753  32.6054083
  28.2430113  11.6662753  34.5674083  28.9480113  11.9862753  34.1654083
  28.4840113  10.8592753  34.7944083  28.3820113  11.5942753  34.5414083
  27.2280113  25.8762753  30.5634083  26.6040113  26.4582753  30.3814083
  27.4760113  25.5902753  29.7774083  27.1720113  25.9202753  30.4204083
  37.3090113  17.2062753  21.3954083  37.6870113  17.8832753  20.9954083
  36.4670113  17.4302753  21.4264083  37.2400113  17.3392753  21.3404083
  28.8220113  20.6522753  20.4784083  28.0170113  20.4752753  20.1934083
  28.7890113  21.5032753  20.6704083  28.6980113  20.7512753  20.4654083
  24.7520113  16.7192753  30.6284083  25.1920113  16.6162753  29.8824083
  25.2970113  16.4062753  31.2334083  24.8970113  16.6582753  30.6074083
  32.7680113  15.8212753  36.2204083  32.1200113  16.2912753  36.5684083
  33.3330113  15.7322753  36.8794083  32.7560113  15.8772753  36.3694083
  32.4560113  17.3582753  32.5184083  32.7580113  17.7782753  33.2214083
  32.4920113  16.5182753  32.7504083  32.5060113  17.2962753  32.6564083
  28.2990113  11.7042753  30.6754083  27.4730113  11.5552753  30.9124083
  28.2590113  11.7392753  29.8044083  28.1710113  11.6872753  30.5814083
  36.0260113  12.8882753  26.2444083  35.3120113  12.4172753  26.4154083
  35.8640113  13.2292753  25.4584083  35.8970113  12.8692753  26.1534083
  36.4690113  20.8322753  24.6244083  36.9450113  20.1032753  24.5764083
  35.6480113  20.5462753  24.5484083  36.4180113  20.6822753  24.6054083
  20.8640113  12.1022753  36.7104083  20.7240113  12.8972753  36.3794083
  20.0780113  11.8592753  36.9994083  20.7270113  12.1842753  36.7044083
  25.7700113  28.9512753  30.7804083  25.7810113  29.0102753  31.6504083
  25.3450113  28.2042753  30.6304083  25.7090113  28.8492753  30.8864083
  23.9280113  14.8462753  23.9354083  24.0540113  14.5172753  23.1374083
  23.1160113  14.5972753  24.1344083  23.8270113  14.7612753  23.8474083
  32.6850113  21.9992753  26.9794083  32.7610113  22.3402753  27.7784083
  32.8540113  21.1522753  27.1004083  32.7210113  21.9242753  27.1154083
  30.2070113  21.2732753  26.5444083  29.9090113  20.9582753  27.3014083
  30.9020113  21.7462753  26.7794083  30.2660113  21.2962753  26.6914083
  38.6050113  18.0002753  36.3824083  37.7500113  17.8782753  36.5084083
  38.7580113  17.6052753  35.6194083  38.5010113  17.9232753  36.2884083
  33.1180113  18.6652753  34.9584083  32.8630113  17.9462753  35.3804083
  33.9390113  18.7812753  35.2284083  33.2020113  18.5762753  35.0604083
  22.5340113  28.4492753  36.2224083  21.8800113  27.8802753  36.3204083
  22.1590113  29.2222753  36.3734083  22.3820113  28.4792753  36.2594083
  23.9050113  16.8572753  34.3514083  24.2800113  17.4762753  33.8644083
  24.5790113  16.3832753  34.6364083  24.0600113  16.8792753  34.3214083
  21.6800113  15.3052753  33.6264083  21.7570113  15.1362753  32.7734083
  22.4260113  15.7112753  33.8234083  21.8010113  15.3402753  33.5294083
  37.2390113  17.9452753  24.0664083  37.3420113  17.8872753  23.2024083
  37.9800113  17.6132753  24.3844083  37.3640113  17.8882753  23.9854083
  24.2340113  12.7152753  36.0374083  24.1530113  11.8712753  36.2434083
  23.9200113  12.7592753  35.2244083  24.1760113  12.5972753  35.9474083
  31.1590113  24.9102753  25.1734083  30.9540113  25.7432753  25.0144083
  30.3840113  24.5282753  25.2954083  31.0140113  24.9772753  25.1684083
  36.3410113  18.0912753  33.4224083  36.3390113  17.2282753  33.5464083
  36.4080113  18.4152753  34.2294083  36.3510113  18.0112753  33.5594083
  21.0770113  20.5312753  33.8504083  21.3970113  20.7502753  33.0694083
  20.9770113  19.6662753  33.7954083  21.1090113  20.4362753  33.7274083
  22.5330113  16.4672753  20.4684083  21.8610113  16.4812753  21.0244083
  22.6280113  15.6192753  20.2844083  22.4480113  16.3442753  20.5234083
  31.2140113  13.0812753  28.0584083  30.5140113  13.5992753  28.0024083
  31.2520113  12.7012753  27.2744083  31.1160113  13.1022753  27.9344083
  26.5210113  25.1722753  21.5824083  26.9620113  25.2522753  22.3304083
  25.7160113  24.9562753  21.8404083  26.4670113  25.1522753  21.7314083
  34.8120113  13.5972753  30.8584083  35.6670113  13.6962753  31.0034083
  34.4430113  14.1502753  31.4234083  34.8840113  13.6942753  30.9634083
  25.8400113  19.8232753  35.2354083  25.4440113  20.5972753  35.3104083
  25.4340113  19.4502753  34.5594083  25.7220113  19.8822753  35.1464083
  35.1160113  18.8772753  29.3494083  35.7820113  19.4182753  29.5094083
  34.7710113  19.1882753  28.6104083  35.1630113  19.0032753  29.2644083
  23.8500113  24.2422753  22.1834083  23.6060113  23.9352753  22.9634083
  23.8170113  23.5392753  21.6674083  23.8090113  24.0932753  22.2224083
  26.6690113  22.4872753  20.9264083  25.8510113  22.2192753  21.0664083
  26.6410113  23.3392753  21.1114083  26.5440113  22.5742753  20.9744083
  26.2690113  12.8002753  32.6854083  25.4050113  12.8842753  32.7654083
  26.4890113  12.2862753  33.3544083  26.1740113  12.7372753  32.7964083
  38.2870113  11.4352753  34.0144083  38.2350113  11.3912753  34.8844083
  38.9740113  10.9322753  33.8244083  38.3810113  11.3552753  34.1144083
  30.3720113  13.5482753  31.0594083  29.6350113  13.0942753  31.1724083
  30.9430113  13.1462753  31.5824083  30.3470113  13.4212753  31.1534083
  27.8750113  17.8772753  36.2634083  27.5530113  17.3012753  35.6934083
  27.5160113  18.6322753  36.0174083  27.7750113  17.9032753  36.1434083
  28.6710113  11.1292753  20.8904083  28.7490113  11.3762753  20.0574083
  27.9280113  11.5062753  21.1484083  28.5730113  11.2212753  20.8054083
  37.9160113  23.0352753  32.3054083  37.8840113  22.1732753  32.1704083
  37.2230113  23.3372753  31.8714083  37.8090113  22.9522753  32.2214083
  26.3100113  28.2332753  36.5114083  26.3510113  28.3592753  37.3744083
  26.9610113  27.6732753  36.3554083  26.4120113  28.1692753  36.6164083
  23.4890113  12.8832753  33.3334083  23.1460113  12.1162753  33.0994083
  22.7940113  13.4072753  33.3974083  23.3360113  12.8472753  33.3084083
  32.5350113  11.7392753  30.3104083  33.2050113  12.2832753  30.4374083
  32.0320113  12.1632753  29.7374083  32.5600113  11.8822753  30.2444083
  23.9030113  26.6162753  37.8714083  24.4980113  27.0472753  38.3434083
  23.5390113  27.2402753  37.3824083  23.9370113  26.7722753  37.8684083
  31.8940113  17.5472753  27.8034083  32.4450113  16.9402753  28.1034083
  31.4690113  17.8102753  28.5184083  31.9130113  17.4962753  27.9524083
  22.1420113  16.1972753  27.2894083  21.7740113  16.4992753  28.0204083
  22.6760113  15.5682753  27.5734083  22.1660113  16.1492753  27.4394083
  21.8300113  24.6052753  34.8004083  21.2560113  25.0212753  35.3094083
  22.5630113  25.0702753  34.8954083  21.8540113  24.7352753  34.8894083
  33.8640113  19.3782753  24.3654083  33.9320113  18.5282753  24.5464083
  33.0410113  19.4642753  24.0874083  33.7520113  19.2652753  24.3514083
  23.6160113  27.8722753  23.5754083  23.4710113  28.0282753  22.7294083
  24.4820113  27.9512753  23.6534083  23.7230113  27.9072753  23.4624083
  27.7830113  20.2692753  23.3034083  27.8830113  20.4082753  22.4484083
  28.6010113  20.2092753  23.5994083  27.9180113  20.2802753  23.2204083
  37.1380113  20.7512753  37.5164083  37.7720113  20.5812753  38.0904083
  37.5550113  21.1542753  36.8644083  37.2930113  20.7862753  37.5054083
  33.0180113  24.5982753  23.1054083  32.7670113  24.4702753  23.9314083
  32.7010113  23.9032753  22.6844083  32.9340113  24.4772753  23.1654083
  37.7630113  15.3152753  38.2544083  37.5670113  15.9592753  38.8094083
  37.0410113  14.8252753  38.2464083  37.6280113  15.3382753  38.3354083
  26.9220113  13.2442753  36.4194083  27.1560113  12.6682753  35.8064083
  26.0800113  13.0632753  36.5604083  26.8320113  13.1322753  36.3494083
  24.3030113  26.6872753  30.0524083  24.2240113  25.8772753  29.7364083
  23.8590113  27.1742753  29.4804083  24.2260113  26.6392753  29.9214083
  29.9040113  22.8062753  22.5354083  30.6210113  22.4592753  22.1794083
  29.8700113  23.6062753  22.1874083  30.0050113  22.8732753  22.4314083
  21.8750113  28.9312753  33.6334083  22.3680113  28.8752753  34.3514083
  22.0630113  28.1982753  33.1984083  21.9760113  28.8142753  33.6754083
  31.3130113  11.4472753   6.7741673  31.0680113  11.9352753   6.0941673
  32.1760113  11.3742753   6.6741673  31.4040113  11.5082753   6.6591673
  31.1220113  18.3632753  11.4451673  30.5980113  18.9592753  11.8081673
  31.5190113  17.9952753  12.1291673  31.1030113  18.3972753  11.6001673
  20.9910113  22.5032753   6.9011673  20.5500113  22.6212753   7.6441673
  20.7080113  21.7282753   6.6161673  20.8840113  22.4062753   6.9691673
  37.2660113  25.8042753   4.4161673  37.9670113  25.2852753   4.4121673
  36.6790113  25.3592753   3.9471673  37.2830113  25.6612753   4.3461673
  20.7340113  16.2952753   3.4081673  19.9560113  16.4572753   3.0481673
  20.7730113  15.4242753   3.4301673  20.6250113  16.1902753   3.3581673
  23.8730113  21.5582753   2.0801673  23.4810113  21.1872753   1.3941673
  23.7930113  20.9602753   2.7091673  23.8030113  21.4152753   2.0711673
  33.7930113  19.4302753   8.1211673  33.8730113  19.4342753   7.2521673
  33.2090113  18.7982753   8.2701673  33.7180113  19.3372753   8.0151673
  23.5000113  23.1992753   5.9801673  24.1080113  23.0292753   6.5831673
  22.7490113  23.0592753   6.4011673  23.4790113  23.1532753   6.1311673
  27.7820113  12.5342753   5.9291673  27.7120113  13.2112753   5.3831673
  28.5230113  12.1462753   5.6801673  27.8810113  12.5772753   5.8111673
  22.3910113  26.2902753   2.0571673  22.8580113  26.3742753   1.3251673
  22.8460113  25.7122753   2.5261673  22.5270113  26.2172753   2.0181673
  20.9310113  25.2382753  13.1561673  21.0600113  24.9582753  13.9721673
  20.3210113  24.6972753  12.8471673  20.8600113  25.1172753  13.2311673
  27.5050113  22.7632753  18.2231673  27.2690113  22.7602753  19.0631673
  26.7570113  22.6152753  17.7991673  27.3590113  22.7402753  18.2841673
  22.3770113  19.7592753   7.3581673  21.9150113  19.3672753   6.7311673
  23.0770113  19.2462753   7.4501673  22.4120113  19.6262753   7.2791673
  26.8850113  15.3692753  12.7051673  27.5630113  15.3872753  12.1561673
  26.8400113  14.5332753  12.9501673  26.9780113  15.2482753  12.6601673
  27.4870113  25.9552753  15.4861673  27.6250113  26.7152753  15.0791673
  28.2780113  25.5902753  15.5131673  27.6240113  26.0142753  15.4301673
  24.3780113  17.8592753   7.3811673  25.1950113  17.6722753   7.6241673
  23.9010113  17.2452753   7.7771673  24.4280113  17.7412753   7.4761673
  28.5820113  23.8402753   9.9911673  28.9300113  23.0412753  10.0211673
  29.2470113  24.3442753   9.7361673  28.7320113  23.7962753   9.9581673
  28.6390113  23.2892753   6.2021673  28.9700113  22.6452753   6.6881673
  28.8790113  23.0782753   5.3911673  28.7230113  23.1632753   6.1541673
  30.6070113  17.4202753  17.5411673  29.7590113  17.3212753  17.3631673
  30.6360113  18.1652753  17.9951673  30.4860113  17.5162753  17.5821673
  24.9750113  12.9532753   6.6471673  24.6790113  13.4542753   5.9971673
  25.8420113  13.0312753   6.5901673  25.0590113  13.0392753   6.5431673
  35.1650113  10.3802753  16.6551673  35.0070113  11.1492753  16.2731673
  34.3930113  10.1602753  16.9991673  35.0270113  10.4612753  16.6501673
  27.9540113  12.0952753   8.8701673  28.0270113  12.9552753   8.9991673
  27.9160113  12.0202753   8.0021673  27.9590113  12.2112753   8.7611673
  20.8330113  17.5202753  10.3711673  20.5770113  18.3512753  10.2961673
  20.1690113  17.1372753  10.7881673  20.6970113  17.5862753  10.4221673
  20.7430113  27.2302753   8.2711673  20.1510113  27.7882753   7.9581673
  21.1690113  26.9612753   7.5591673  20.7190113  27.2722753   8.1201673
  26.5830113  25.0742753   5.7511673  26.0040113  24.7992753   6.3431673
  27.2070113  24.4652753   5.7761673  26.5900113  24.9442753   5.8421673
  32.7260113  27.3622753   3.2731673  33.4530113  27.8342753   3.3751673
  32.9550113  26.5682753   3.5531673  32.8680113  27.3152753   3.3301673
  30.8940113  27.7542753   5.2631673  31.1080113  28.2812753   5.9251673
  31.6610113  27.5802753   4.8841673  31.0390113  27.8062753   5.3051673
  23.8620113  12.3372753  10.8621673  23.3410113  11.7092753  10.5541673
  24.4530113  11.9002753  11.3331673  23.8730113  12.1792753  10.8861673
  27.1680113  14.4702753  20.1601673  27.2850113  14.0162753  19.4241673
  27.4560113  15.2682753  19.9571673  27.2280113  14.5212753  20.0211673
  22.2880113  25.9002753   6.2021673  22.9440113  25.3252753   6.2171673
  22.6770113  26.6492753   5.9811673  22.4430113  25.9252753   6.1721673
  38.0210113  14.9942753   7.4641673  37.6750113  15.6722753   7.8901673
  37.3850113  14.3962753   7.4801673  37.8760113  15.0062753   7.5291673
  33.3330113  27.7642753  13.5681673  34.0770113  28.2202753  13.5581673
  33.2120113  27.5502753  12.7311673  33.4250113  27.8002753  13.4431673
  22.9010113  14.0672753  19.1441673  22.1230113  13.6772753  19.0721673
  23.3920113  13.6552753  18.5531673  22.8580113  13.9482753  19.0461673
  23.1060113  24.3872753   9.7021673  23.5290113  24.0312753   9.0281673
  23.4300113  23.9652753  10.3941673  23.2160113  24.2722753   9.7051673
  26.3370113  27.2392753   8.9981673  27.1810113  27.3432753   8.8031673
  26.0400113  28.0572753   9.0661673  26.4180113  27.3752753   8.9791673
  29.5500113  11.7102753  18.3121673  29.7280113  10.9012753  18.0371673
  29.4070113  12.1512753  17.5731673  29.5550113  11.6562753  18.1621673
  30.1440113  16.6362753   7.0851673  30.4310113  16.4042753   6.2951673
  30.8760113  16.7152753   7.5541673  30.2940113  16.6132753   7.0381673
  30.8660113  16.9752753   2.2061673  31.1470113  17.7632753   2.4551673
  30.0900113  17.1402753   1.8431673  30.7930113  17.1162753   2.1891673
  34.9070113  28.9492753   3.6731673  35.5720113  28.8012753   3.1281673
  35.2670113  28.8662753   4.4631673  35.0590113  28.9152753   3.7091673
  25.3350113  28.4582753  14.7381673  25.6270113  28.3912753  15.5581673
  24.7090113  27.8532753  14.6931673  25.2860113  28.3592753  14.8531673
  37.6960113  13.3172753  12.8331673  38.4530113  13.3892753  12.4051673
  37.7590113  12.5442753  13.2321673  37.8170113  13.2142753  12.8281673
  20.2490113  14.6152753  16.7301673  20.2450113  15.2022753  17.3761673
  20.8430113  14.9272753  16.1731673  20.3360113  14.7482753  16.7431673
  32.5870113  24.9492753  17.2721673  32.5530113  25.3312753  18.0561673
  33.4410113  24.9072753  17.1011673  32.7080113  24.9992753  17.3631673
  29.7250113  25.1462753   2.0221673  29.5440113  25.6912753   2.6791673
  30.4910113  25.4362753   1.7211673  29.8110113  25.2702753   2.0751673
  33.2320113  13.0422753   3.0761673  33.7720113  12.3602753   3.1521673
  33.2940113  13.4402753   3.8501673  33.3210113  13.0002753   3.2021673
  21.1860113  14.2102753   5.6451673  21.0720113  13.3462753   5.6761673
  20.7110113  14.5042753   6.3151673  21.0990113  14.1262753   5.7481673
  23.3280113  26.6202753  13.8601673  22.6300113  26.1122753  13.9861673
  23.5880113  26.4152753  13.0521673  23.2630113  26.5152753  13.7591673
  30.4900113  15.4182753   4.3901673  29.9820113  14.7562753   4.1361673
  30.5420113  15.9222753   3.6801673  30.4230113  15.3952753   4.2481673
  31.0390113  28.1132753  14.7701673  31.8070113  28.0332753  14.3641673
  30.4560113  27.9922753  14.1321673  31.0660113  28.0832753  14.6161673
  30.4900113  12.3592753   4.2811673  30.0350113  11.9572753   3.6551673
  31.2630113  12.5142753   3.9061673  30.5370113  12.3232753   4.1331673
  37.3160113  28.7162753   7.6711673  36.8610113  29.4332753   7.8721673
  36.7020113  28.1452753   7.4291673  37.1580113  28.7382753   7.6651673
  29.0880113  14.7262753   8.8031673  29.1620113  15.2942753   8.1451673
  29.2090113  15.2182753   9.5131673  29.1160113  14.8832753   8.8111673
  34.3130113  24.5612753   7.2151673  35.0140113  24.0792753   7.4041673
  33.6530113  23.9922753   7.2601673  34.3190113  24.4062753   7.2491673
  24.6890113  25.4712753  16.4271673  25.5300113  25.5342753  16.2051673
  24.6520113  25.8682753  17.2031673  24.8080113  25.5392753  16.5091673
  23.6960113  10.5492753   7.1511673  24.2320113  11.2372753   7.1411673
  23.6990113  10.2752753   6.3231673  23.7750113  10.6102753   7.0271673
  26.6520113  20.9822753  11.1761673  26.8240113  20.7722753  12.0051673
  25.9970113  20.4482753  10.9601673  26.5810113  20.8722753  11.2671673
  32.8800113  14.8962753  14.6911673  32.7850113  15.2152753  15.4971673
  32.2870113  14.2572753  14.6531673  32.7780113  14.8482753  14.8051673
  27.4020113  20.9202753  13.7661673  27.4550113  21.7672753  13.9681673
  27.1170113  20.5502753  14.5031673  27.3680113  20.9902753  13.9041673
  33.5790113  21.6152753  12.8961673  33.0650113  21.2032753  13.4671673
  33.4530113  22.4592753  13.0771673  33.4850113  21.6792753  13.0071673
  34.1360113  10.8402753   7.5271673  34.1850113  10.5222753   8.3381673
  34.4590113  10.1962753   7.0341673  34.1910113  10.6982753   7.5741673
  20.2230113  25.2912753  19.9771673  20.9790113  25.6402753  20.2351673
  20.4000113  24.4382753  19.9201673  20.3610113  25.2162753  20.0071673
  36.6000113  15.0762753  15.8351673  37.3720113  14.8512753  16.1721673
  36.1250113  15.2932753  16.5351673  36.6440113  15.0752753  15.9881673
  24.1440113  14.3592753   8.8051673  24.4160113  13.9292753   8.0971673
  23.9680113  13.7232753   9.3761673  24.1580113  14.2022753   8.7851673
  36.8320113  22.0542753   3.0231673  36.9510113  21.7672753   3.8381673
  37.6390113  22.0752753   2.6931673  36.9680113  22.0152753   3.0951673
  23.9680113  21.7862753   8.3541673  24.8190113  21.7062753   8.1811673
  23.6110113  21.1042753   7.9421673  24.0410113  21.6732753   8.2671673
  22.7350113  28.5112753   9.5911673  22.0620113  28.0132753   9.3461673
  23.1380113  28.6962753   8.8401673  22.6950113  28.4652753   9.4441673
  22.2850113  15.4612753  11.8871673  23.1280113  15.6812753  11.8441673
  21.8960113  16.0342753  11.3561673  22.3520113  15.5782753  11.8021673
  39.0660113  26.5632753  17.2771673  38.3840113  26.8732753  16.8301673
  38.6970113  26.1052753  17.9221673  38.9100113  26.5412753  17.3061673
  34.7270113  18.5912753   2.6081673  34.5070113  19.3222753   2.1861673
  34.2790113  18.6422753   3.3551673  34.6280113  18.7062753   2.6561673
  26.3360113  21.7932753   6.5891673  27.0490113  22.2882753   6.6791673
  26.5580113  21.2262753   5.9631673  26.4740113  21.7822753   6.5101673
  38.9140113  13.4522753   2.0611673  38.2520113  12.8842753   2.0841673
  38.7210113  13.9642753   1.3811673  38.7880113  13.4442753   1.9641673
  20.4920113  23.4362753   9.9091673  19.8250113  23.9242753  10.1851673
  21.1720113  23.9812753   9.9381673  20.4940113  23.5882753   9.9541673
  28.1390113  17.1462753  20.0051673  27.6550113  17.7232753  20.4471673
  28.1110113  17.4412753  19.1841673  28.0630113  17.2752753  19.9491673
  39.2370113  17.8302753  14.6171673  39.4520113  17.0302753  14.3411673
  38.3870113  17.8902753  14.4281673  39.1430113  17.7212753  14.5481673
  20.5580113  20.1202753   5.0121673  20.3730113  19.2812753   5.1641673
  21.2170113  20.0842753   4.4421673  20.6280113  19.9912753   4.9501673
  36.9160113  13.0102753   4.3401673  37.6620113  12.6032753   4.5391673
  37.1790113  13.7252753   3.9151673  37.0650113  13.0562753   4.3071673
  30.8590113  25.4962753   8.9161673  30.3360113  26.1302753   8.6231673
  31.1690113  25.1322753   8.1871673  30.8270113  25.5362753   8.7651673
  20.7300113  24.2842753   4.5871673  21.2820113  24.8532753   4.9511673
  20.4980113  23.7692753   5.2521673  20.7770113  24.2922753   4.7391673
  24.9340113  23.2842753  11.6761673  25.4010113  23.5732753  12.3541673
  25.5060113  22.8062753  11.2221673  25.0880113  23.2562753  11.7091673
  33.3700113  15.2982753   9.4131673  33.7140113  15.4502753  10.2001673
  32.9170113  14.5602753   9.5261673  33.3540113  15.2112753   9.5461673
  20.5600113  22.7332753   2.2151673  21.3160113  22.3012753   2.2731673
  20.5750113  23.2652753   2.9061673  20.6740113  22.7482753   2.3261673
  21.5000113  20.9542753  10.2201673  21.9310113  20.8252753   9.4731673
  21.2950113  21.8022753  10.1941673  21.5330113  21.0602753  10.1061673
  27.8460113  14.5182753   3.8701673  27.8440113  14.4012753   3.0051673
  27.6650113  15.3662753   3.9621673  27.8190113  14.6262753   3.7561673
  36.9000113  26.9452753  15.3671673  36.2290113  27.4592753  15.5851673
  36.9630113  27.0452753  14.5031673  36.8100113  27.0362753  15.2721673
  25.5840113  24.4702753   8.5021673  25.7100113  25.3132753   8.6891673
  26.2520113  24.0712753   8.8981673  25.7020113  24.5362753   8.5881673
  23.7140113  17.9532753  18.3641673  23.1780113  17.4472753  18.8321673
  23.7340113  17.5632753  17.5841673  23.6370113  17.8202753  18.3181673
  24.1990113  17.3502753   3.5041673  24.0710113  16.9022753   4.2421673
  23.6170113  17.0082753   2.9521673  24.0940113  17.2332753   3.5321673
  24.3660113  19.1802753  10.1031673  23.5850113  19.1212753   9.7201673
  24.4380113  18.4282753  10.5401673  24.2610113  19.0612753  10.1111673
  24.7960113  18.9172753  13.5711673  24.8210113  18.2422753  13.0201673
  24.1500113  19.4132753  13.2591673  24.7050113  18.8902753  13.4441673
  34.6910113  16.6302753  11.9671673  34.0290113  16.9582753  12.4301673
  34.8780113  17.2642753  11.3981673  34.6210113  16.7722753  11.9511673
  28.8960113  27.6942753  12.9631673  28.6190113  27.0532753  12.4401673
  28.6880113  28.4202753  12.5251673  28.8250113  27.7072753  12.8211673
  31.3360113  12.5362753  15.3961673  31.4850113  11.7112753  15.1531673
  31.7150113  12.5912753  16.1801673  31.4140113  12.4222753  15.4761673
  32.8840113  14.5992753   5.4781673  33.3740113  15.3162753   5.4011673
  32.0940113  14.8602753   5.2151673  32.8400113  14.7432753   5.4281673
  22.5950113  20.2722753  19.1301673  22.5580113  20.7732753  18.4161673
  22.9260113  19.5202753  18.8351673  22.6380113  20.2342753  18.9811673
  34.1980113  22.4772753  17.3881673  34.6820113  23.1952753  17.4861673
  34.5920113  22.0502753  16.7371673  34.3280113  22.5202753  17.3061673
  28.4940113  25.3222753  18.5651673  28.8480113  25.1442753  19.3421673
  28.0580113  24.5932753  18.3661673  28.4820113  25.1882753  18.6511673
  29.4660113  16.0692753  11.2031673  29.9460113  16.7682753  11.4111673
  29.8390113  15.4222753  11.6541673  29.5920113  16.0772753  11.3001673
  31.6550113  19.2382753   3.4771673  31.6470113  19.9602753   2.9871673
  31.0160113  19.3732753   4.0541673  31.5600113  19.3652753   3.4901673
  36.6270113  23.1082753   7.4581673  36.9830113  22.7582753   8.1731673
  36.6190113  22.4472753   6.8881673  36.6790113  22.9582753   7.4791673
  32.6720113  26.1742753  11.3021673  32.0690113  25.8782753  10.7451673
  33.2170113  26.6262753  10.7931673  32.6630113  26.1972753  11.1441673
  32.6850113  23.0252753  10.7021673  31.8880113  23.2492753  10.9761673
  32.9430113  22.4312753  11.2871673  32.6050113  22.9702753  10.8291673
  26.5770113  27.8372753   5.1501673  26.4300113  27.0612753   5.5211673
  27.2660113  27.6902753   4.6351673  26.6570113  27.7002753   5.1291673
  26.2480113  11.5802753   3.1381673  26.3450113  11.4732753   3.9991673
  25.5400113  12.0862753   3.0731673  26.1580113  11.6392753   3.2561673
  28.8690113  27.3532753   3.5521673  29.4910113  27.5162753   4.1421673
  28.9050113  28.0442753   3.0201673  28.9660113  27.4792753   3.5611673
  35.9450113  21.0232753  15.5481673  36.0000113  21.1482753  14.6861673
  36.6980113  21.3432753  15.8501673  36.0640113  21.0882753  15.4651673
  32.1360113  26.3722753  19.8251673  32.3000113  26.6552753  20.6341673
  32.3990113  27.0332753  19.3201673  32.1990113  26.5122753  19.8701673
  36.9770113  11.3212753  18.5351673  36.3400113  10.9212753  18.0931673
  37.0030113  10.8902753  19.2931673  36.8870113  11.1992753  18.5811673
  23.3700113  19.8872753   4.3811673  23.6940113  19.1082753   4.1591673
  24.0160113  20.2552753   4.8361673  23.5130113  19.8262753   4.4151673
  31.6760113  20.8292753  15.1481673  31.5210113  21.4392753  15.7521673
  32.2100113  20.2712753  15.5541673  31.7320113  20.8372753  15.2971673
  20.3670113  11.5482753   5.3491673  20.4960113  10.8402753   4.8571673
  20.0000113  11.2302753   6.0741673  20.3320113  11.3962753   5.3841673
  30.0600113  19.2292753   5.8061673  30.1190113  19.8792753   6.3851673
  29.8710113  18.5332753   6.2971673  30.0410113  19.2222753   5.9641673
  35.2860113  23.5582753  11.6751673  34.8070113  23.8562753  11.0091673
  34.9300113  22.7822753  11.8531673  35.1630113  23.4872753  11.6031673
  24.5560113  13.7462753   2.3181673  24.0450113  13.7992753   1.6121673
  25.3400113  13.9862753   2.0221673  24.5960113  13.7892753   2.1701673
  29.2830113  21.2762753  10.2371673  28.4360113  21.0822753  10.3181673
  29.6070113  21.1112753  11.0301673  29.2050113  21.2232753  10.3661673
  23.1310113  20.9692753  12.5531673  23.8530113  21.4572753  12.5161673
  22.8610113  20.9392753  11.7241673  23.1980113  21.0372753  12.4251673
  26.3610113  16.1402753   9.2881673  27.2070113  15.9502753   9.3861673
  25.9910113  15.3632753   9.1501673  26.4310113  15.9972753   9.2821673
  38.9780113  27.7242753   3.6151673  39.6720113  27.2572753   3.3671673
  38.4390113  27.1262753   3.9521673  39.0010113  27.5662753   3.6281673
  21.1820113  17.4782753   5.9431673  21.6710113  17.1862753   6.6041673
  21.3110113  16.8852753   5.3161673  21.2730113  17.3472753   5.9481673
  36.2170113  20.5002753  12.7941673  36.2100113  19.7242753  13.1921673
  35.3760113  20.7342753  12.7871673  36.0920113  20.4202753  12.8521673
  22.5260113  22.0212753  16.8311673  22.1050113  21.5032753  16.2701673
  22.1740113  22.8072753  16.6881673  22.4120113  22.0612753  16.7271673
  37.4730113  20.5712753  10.2311673  37.1870113  20.9722753  10.9511673
  38.3330113  20.5092753  10.3581673  37.5580113  20.6212753  10.3561673
  27.1620113  17.3732753   4.1391673  27.4340113  18.1992753   4.2061673
  26.2990113  17.4482753   4.0431673  27.0750113  17.5062753   4.1341673
  35.1350113  14.4952753  18.7711673  34.6100113  14.9542753  19.2951673
  34.7740113  13.7002753  18.7651673  35.0040113  14.4452753  18.8471673
  20.6420113  13.3432753  10.6751673  20.6860113  13.6872753   9.8741673
  21.3970113  13.5802753  11.0421673  20.7600113  13.4292753  10.6111673
  38.6040113  26.2042753  10.7601673  38.8940113  26.4612753   9.9791673
  39.2990113  26.3002753  11.2791673  38.7500113  26.2562753  10.7211673
  33.6270113  18.0642753  18.8471673  33.7000113  18.1682753  19.7101673
  32.9930113  18.6222753  18.6261673  33.5440113  18.1622753  18.9421673
  35.8950113  18.3832753  17.2121673  36.2140113  19.1692753  17.4151673
  35.5250113  18.1132753  17.9551673  35.8880113  18.4592753  17.3521673
  35.2090113  24.8072753   2.7421673  35.5430113  24.0012753   2.7771673
  34.4540113  24.7352753   3.1721673  35.1470113  24.6772753   2.8111673
  35.6910113  16.6412753   8.4011673  34.9460113  16.3182753   8.7191673
  35.6930113  17.4672753   8.6811673  35.5810113  16.7152753   8.4891673
  38.5930113  18.9252753  19.9471673  38.5410113  18.5842753  19.1461673
  39.3300113  19.3922753  19.9251673  38.6940113  18.9442753  19.8251673
  38.1310113  22.6012753  16.1531673  38.7590113  22.0522753  15.8971673
  38.0700113  23.1662753  15.4911673  38.2150113  22.6042753  16.0171673
  32.5830113  22.6822753   2.1451673  33.2670113  22.1682753   1.9761673
  32.1660113  22.7282753   1.3801673  32.6220113  22.6132753   2.0071673
  27.2650113  23.8322753  13.4491673  26.9670113  24.4242753  14.0161673
  27.3200113  24.2742753  12.7001673  27.2290113  23.9852753  13.4221673
  25.2440113  22.7822753  16.8471673  24.4380113  22.4922753  17.0141673
  25.1550113  23.6502753  16.8531673  25.1120113  22.8672753  16.8721673
  34.6030113  12.9712753  15.8621673  35.3470113  13.4232753  15.7991673
  34.0370113  13.4412753  15.3931673  34.6300113  13.1082753  15.7841673
  29.7810113  20.2552753  12.9401673  30.2570113  20.6292753  13.5681673
  28.9580113  20.3892753  13.1991673  29.7300113  20.3302753  13.0711673
  26.4910113  15.8582753  15.6811673  26.6520113  15.1142753  16.1081673
  26.4460113  15.6092753  14.8461673  26.5080113  15.7112753  15.6211673
  29.0450113  27.6482753   8.1681673  29.5910113  28.3272753   8.2221673
  28.6950113  27.7302753   7.3731673  29.0740113  27.7612753   8.0581673
  35.8880113  10.9512753  13.5321673  35.6080113  11.7762753  13.4881673
  36.6040113  11.0042753  14.0281673  35.9530113  11.0812753  13.5991673
  28.2430113  11.6662753  15.5611673  28.9480113  11.9862753  15.1591673
  28.4840113  10.8592753  15.7881673  28.3820113  11.5942753  15.5351673
  27.2280113  25.8762753  11.5571673  26.6040113  26.4582753  11.3751673
  27.4760113  25.5902753  10.7711673  27.1720113  25.9202753  11.4141673
  31.5370113  22.5102753  18.5461673  32.2940113  22.7962753  18.2201673
  30.9900113  22.5622753  17.8681673  31.5680113  22.5602753  18.3971673
  35.4460113  25.0602753  17.0501673  35.7920113  25.3302753  17.8041673
  35.7400113  25.6422753  16.4701673  35.5410113  25.1862753  17.0761673
  37.3090113  17.2062753   2.3891673  37.6870113  17.8832753   1.9891673
  36.4670113  17.4302753   2.4201673  37.2400113  17.3392753   2.3341673
  24.7520113  16.7192753  11.6221673  25.1920113  16.6162753  10.8761673
  25.2970113  16.4062753  12.2271673  24.8970113  16.6582753  11.6011673
  32.7680113  15.8212753  17.2141673  32.1200113  16.2912753  17.5621673
  33.3330113  15.7322753  17.8731673  32.7560113  15.8772753  17.3631673
  32.4560113  17.3582753  13.5121673  32.7580113  17.7782753  14.2151673
  32.4920113  16.5182753  13.7441673  32.5060113  17.2962753  13.6501673
  29.8810113  27.5252753  17.4371673  30.3590113  26.9252753  17.0211673
  29.5300113  27.0822753  18.1021673  29.9000113  27.3712753  17.4741673
  35.0040113  16.8052753   5.7641673  35.2110113  16.6042753   6.5881673
  35.7600113  17.0732753   5.4221673  35.1460113  16.8152753   5.8351673
  28.2990113  11.7042753  11.6691673  27.4730113  11.5552753  11.9061673
  28.2590113  11.7392753  10.7981673  28.1710113  11.6872753  11.5751673
  36.0260113  12.8882753   7.2381673  35.3120113  12.4172753   7.4091673
  35.8640113  13.2292753   6.4521673  35.8970113  12.8692753   7.1471673
  36.4690113  20.8322753   5.6181673  36.9450113  20.1032753   5.5701673
  35.6480113  20.5462753   5.5421673  36.4180113  20.6822753   5.5991673
  29.9400113  22.7442753  16.4571673  29.1450113  22.6802753  16.8081673
  30.0110113  23.5912753  16.2621673  29.8330113  22.8592753  16.4801673
  20.8640113  12.1022753  17.7041673  20.7240113  12.8972753  17.3731673
  20.0780113  11.8592753  17.9931673  20.7270113  12.1842753  17.6981673
  25.7700113  28.9512753  11.7741673  25.7810113  29.0102753  12.6441673
  25.3450113  28.2042753  11.6241673  25.7090113  28.8492753  11.8801673
  23.9280113  14.8462753   4.9291673  24.0540113  14.5172753   4.1311673
  23.1160113  14.5972753   5.1281673  23.8270113  14.7612753   4.8411673
  32.6850113  21.9992753   7.9731673  32.7610113  22.3402753   8.7721673
  32.8540113  21.1522753   8.0941673  32.7210113  21.9242753   8.1091673
  30.2070113  21.2732753   7.5381673  29.9090113  20.9582753   8.2951673
  30.9020113  21.7462753   7.7731673  30.2660113  21.2962753   7.6851673
  30.4290113  25.3912753  15.5651673  31.1160113  25.2772753  16.0901673
  30.5630113  26.1822753  15.2211673  30.5500113  25.4912753  15.5921673
  38.6050113  18.0002753  17.3761673  37.7500113  17.8782753  17.5021673
  38.7580113  17.6052753  16.6131673  38.5010113  17.9232753  17.2821673
  33.1180113  18.6652753  15.9521673  32.8630113  17.9462753  16.3741673
  33.9390113  18.7812753  16.2221673  33.2020113  18.5762753  16.0541673
  22.5340113  28.4492753  17.2161673  21.8800113  27.8802753  17.3141673
  22.1590113  29.2222753  17.3671673  22.3820113  28.4792753  17.2531673
  31.0520113  19.8552753  19.1391673  31.3750113  20.5412753  18.7071673
  30.3480113  20.1782753  19.5411673  30.9950113  20.0042753  19.1341673
  34.1360113  28.2292753  10.0681673  33.6850113  28.8722753  10.4471673
  34.8440113  28.1502753  10.5731673  34.1740113  28.3122753  10.1991673
  30.8370113  23.3192753  12.9981673  30.1430113  23.7212753  13.3411673
  31.5140113  23.7522753  13.3371673  30.8340113  23.4422753  13.0991673
  36.2140113  25.9122753  19.5781673  36.9900113  25.5222753  19.6611673
  35.7450113  25.5762753  20.2331673  36.2590113  25.8052753  19.6871673
  23.9050113  16.8572753  15.3451673  24.2800113  17.4762753  14.8581673
  24.5790113  16.3832753  15.6301673  24.0600113  16.8792753  15.3151673
  21.6800113  15.3052753  14.6201673  21.7570113  15.1362753  13.7671673
  22.4260113  15.7112753  14.8171673  21.8010113  15.3402753  14.5231673
  37.2390113  17.9452753   5.0601673  37.3420113  17.8872753   4.1961673
  37.9800113  17.6132753   5.3781673  37.3640113  17.8882753   4.9791673
  24.2340113  12.7152753  17.0311673  24.1530113  11.8712753  17.2371673
  23.9200113  12.7592753  16.2181673  24.1760113  12.5972753  16.9411673
  31.1590113  24.9102753   6.1671673  30.9540113  25.7432753   6.0081673
  30.3840113  24.5282753   6.2891673  31.0140113  24.9772753   6.1621673
  36.3410113  18.0912753  14.4161673  36.3390113  17.2282753  14.5401673
  36.4080113  18.4152753  15.2231673  36.3510113  18.0112753  14.5531673
  21.0770113  20.5312753  14.8441673  21.3970113  20.7502753  14.0631673
  20.9770113  19.6662753  14.7891673  21.1090113  20.4362753  14.7211673
  32.2200113  12.8912753  18.1981673  32.3120113  13.6032753  18.6921673
  31.5830113  12.4462753  18.5951673  32.1390113  12.9302753  18.3301673
  31.2140113  13.0812753   9.0521673  30.5140113  13.5992753   8.9961673
  31.2520113  12.7012753   8.2681673  31.1160113  13.1022753   8.9281673
  26.5210113  25.1722753   2.5761673  26.9620113  25.2522753   3.3241673
  25.7160113  24.9562753   2.8341673  26.4670113  25.1522753   2.7251673
  34.8120113  13.5972753  11.8521673  35.6670113  13.6962753  11.9971673
  34.4430113  14.1502753  12.4171673  34.8840113  13.6942753  11.9571673
  25.8400113  19.8232753  16.2291673  25.4440113  20.5972753  16.3041673
  25.4340113  19.4502753  15.5531673  25.7220113  19.8822753  16.1401673
  35.1160113  18.8772753  10.3431673  35.7820113  19.4182753  10.5031673
  34.7710113  19.1882753   9.6041673  35.1630113  19.0032753  10.2581673
  35.4290113  26.9432753   6.1501673  35.2550113  26.2892753   6.7001673
  36.1420113  26.6722753   5.7271673  35.5090113  26.8062753   6.1691673
  23.8500113  24.2422753   3.1771673  23.6060113  23.9352753   3.9571673
  23.8170113  23.5392753   2.6611673  23.8090113  24.0932753   3.2161673
  26.6690113  22.4872753   1.9201673  25.8510113  22.2192753   2.0601673
  26.6410113  23.3392753   2.1051673  26.5440113  22.5742753   1.9681673
  26.2690113  12.8002753  13.6791673  25.4050113  12.8842753  13.7591673
  26.4890113  12.2862753  14.3481673  26.1740113  12.7372753  13.7901673
  38.2870113  11.4352753  15.0081673  38.2350113  11.3912753  15.8781673
  38.9740113  10.9322753  14.8181673  38.3810113  11.3552753  15.1081673
  30.3720113  13.5482753  12.0531673  29.6350113  13.0942753  12.1661673
  30.9430113  13.1462753  12.5761673  30.3470113  13.4212753  12.1471673
  33.1040113  24.3962753  13.8411673  33.3100113  24.6972753  14.6331673
  33.0430113  25.1182753  13.3561673  33.1250113  24.5472753  13.8861673
  32.6380113  28.6102753  18.0871673  31.8850113  28.5922753  17.6461673
  32.8060113  29.4622753  18.1711673  32.5520113  28.7332753  18.0341673
  27.8750113  17.8772753  17.2571673  27.5530113  17.3012753  16.6871673
  27.5160113  18.6322753  17.0111673  27.7750113  17.9032753  17.1371673
  37.9160113  23.0352753  13.2991673  37.8840113  22.1732753  13.1641673
  37.2230113  23.3372753  12.8651673  37.8090113  22.9522753  13.2151673
  26.3100113  28.2332753  17.5051673  26.3510113  28.3592753  18.3681673
  26.9610113  27.6732753  17.3491673  26.4120113  28.1692753  17.6101673
  36.0210113  26.2952753  12.0961673  36.5480113  26.2122753  11.4051673
  35.6300113  25.5172753  12.1501673  36.0410113  26.1682753  12.0021673
  23.4890113  12.8832753  14.3271673  23.1460113  12.1162753  14.0931673
  22.7940113  13.4072753  14.3911673  23.3360113  12.8472753  14.3021673
  32.5350113  11.7392753  11.3041673  33.2050113  12.2832753  11.4311673
  32.0320113  12.1632753  10.7311673  32.5600113  11.8822753  11.2381673
  23.9030113  26.6162753  18.8651673  24.4980113  27.0472753  19.3371673
  23.5390113  27.2402753  18.3761673  23.9370113  26.7722753  18.8621673
  31.8940113  17.5472753   8.7971673  32.4450113  16.9402753   9.0971673
  31.4690113  17.8102753   9.5121673  31.9130113  17.4962753   8.9461673
  22.1420113  16.1972753   8.2831673  21.7740113  16.4992753   9.0141673
  22.6760113  15.5682753   8.5671673  22.1660113  16.1492753   8.4331673
  21.8300113  24.6052753  15.7941673  21.2560113  25.0212753  16.3031673
  22.5630113  25.0702753  15.8891673  21.8540113  24.7352753  15.8831673
  33.8640113  19.3782753   5.3591673  33.9320113  18.5282753   5.5401673
  33.0410113  19.4642753   5.0811673  33.7520113  19.2652753   5.3451673
  23.6160113  27.8722753   4.5691673  23.4710113  28.0282753   3.7231673
  24.4820113  27.9512753   4.6471673  23.7230113  27.9072753   4.4561673
  27.7830113  20.2692753   4.2971673  27.8830113  20.4082753   3.4421673
  28.6010113  20.2092753   4.5931673  27.9180113  20.2802753   4.2141673
  36.9430113  28.3332753   1.7771673  37.5800113  28.1992753   2.3581673
  36.6020113  27.5392753   1.6601673  36.9870113  28.1962753   1.8451673
  37.1380113  20.7512753  18.5101673  37.7720113  20.5812753  19.0841673
  37.5550113  21.1542753  17.8581673  37.2930113  20.7862753  18.4991673
  33.0180113  24.5982753   4.0991673  32.7670113  24.4702753   4.9251673
  32.7010113  23.9032753   3.6781673  32.9340113  24.4772753   4.1591673
  37.7630113  15.3152753  19.2481673  37.5670113  15.9592753  19.8031673
  37.0410113  14.8252753  19.2401673  37.6280113  15.3382753  19.3291673
  37.6620113  16.2562753  12.2191673  36.8290113  16.5062753  12.1471673
  37.6060113  15.4162753  12.4481673  37.5310113  16.1692753  12.2421673
  26.9220113  13.2442753  17.4131673  27.1560113  12.6682753  16.8001673
  26.0800113  13.0632753  17.5541673  26.8320113  13.1322753  17.3431673
  34.5490113  20.8622753  19.8651673  35.4200113  20.8262753  19.8291673
  34.3300113  21.2822753  19.1331673  34.6460113  20.9182753  19.7521673
  24.3030113  26.6872753  11.0461673  24.2240113  25.8772753  10.7301673
  23.8590113  27.1742753  10.4741673  24.2260113  26.6392753  10.9151673
  29.9040113  22.8062753   3.5291673  30.6210113  22.4592753   3.1731673
  29.8700113  23.6062753   3.1811673  30.0050113  22.8732753   3.4251673
  21.8750113  28.9312753  14.6271673  22.3680113  28.8752753  15.3451673
  22.0630113  28.1982753  14.1921673  21.9760113  28.8142753  14.6691673
  20.9910113   4.0251673  63.9198903  20.5500113   4.1431673  64.6628903
  20.7080113   3.2501673  63.6348903  20.8840113   3.9281673  63.9878903
  37.2660113   7.3261673  61.4348903  37.9670113   6.8071673  61.4308903
  36.6790113   6.8811673  60.9658903  37.2830113   7.1831673  61.3648903
  23.8730113   3.0801673  59.0988903  23.4810113   2.7091673  58.4128903
  23.7930113   2.4821673  59.7278903  23.8030113   2.9371673  59.0898903
  23.5000113   4.7211673  62.9988903  24.1080113   4.5511673  63.6018903
  22.7490113   4.5811673  63.4198903  23.4790113   4.6751673  63.1498903
  22.3910113   7.8121673  59.0758903  22.8580113   7.8961673  58.3438903
  22.8460113   7.2341673  59.5448903  22.5270113   7.7391673  59.0368903
  20.9310113   6.7601673  70.1748903  21.0600113   6.4801673  70.9908903
  20.3210113   6.2191673  69.8658903  20.8600113   6.6391673  70.2498903
  27.5050113   4.2851673  75.2418903  27.2690113   4.2821673  76.0818903
  26.7570113   4.1371673  74.8178903  27.3590113   4.2621673  75.3028903
  27.4870113   7.4771673  72.5048903  27.6250113   8.2371673  72.0978903
  28.2780113   7.1121673  72.5318903  27.6240113   7.5361673  72.4488903
  28.5820113   5.3621673  67.0098903  28.9300113   4.5631673  67.0398903
  29.2470113   5.8661673  66.7548903  28.7320113   5.3181673  66.9768903
  28.6390113   4.8111673  63.2208903  28.9700113   4.1671673  63.7068903
  28.8790113   4.6001673  62.4098903  28.7230113   4.6851673  63.1728903
  20.7430113   8.7521673  65.2898903  20.1510113   9.3101673  64.9768903
  21.1690113   8.4831673  64.5778903  20.7190113   8.7941673  65.1388903
  26.5830113   6.5961673  62.7698903  26.0040113   6.3211673  63.3618903
  27.2070113   5.9871673  62.7948903  26.5900113   6.4661673  62.8608903
  32.7260113   8.8841673  60.2918903  33.4530113   9.3561673  60.3938903
  32.9550113   8.0901673  60.5718903  32.8680113   8.8371673  60.3488903
  30.8940113   9.2761673  62.2818903  31.1080113   9.8031673  62.9438903
  31.6610113   9.1021673  61.9028903  31.0390113   9.3281673  62.3238903
  22.2880113   7.4221673  63.2208903  22.9440113   6.8471673  63.2358903
  22.6770113   8.1711673  62.9998903  22.4430113   7.4471673  63.1908903
  33.3330113   9.2861673  70.5868903  34.0770113   9.7421673  70.5768903
  33.2120113   9.0721673  69.7498903  33.4250113   9.3221673  70.4618903
  23.1060113   5.9091673  66.7208903  23.5290113   5.5531673  66.0468903
  23.4300113   5.4871673  67.4128903  23.2160113   5.7941673  66.7238903
  26.3370113   8.7611673  66.0168903  27.1810113   8.8651673  65.8218903
  26.0400113   9.5791673  66.0848903  26.4180113   8.8971673  65.9978903
  34.9070113  10.4711673  60.6918903  35.5720113  10.3231673  60.1468903
  35.2670113  10.3881673  61.4818903  35.0590113  10.4371673  60.7278903
  25.3350113   9.9801673  71.7568903  25.6270113   9.9131673  72.5768903
  24.7090113   9.3751673  71.7118903  25.2860113   9.8811673  71.8718903
  32.5870113   6.4711673  74.2908903  32.5530113   6.8531673  75.0748903
  33.4410113   6.4291673  74.1198903  32.7080113   6.5211673  74.3818903
  29.7250113   6.6681673  59.0408903  29.5440113   7.2131673  59.6978903
  30.4910113   6.9581673  58.7398903  29.8110113   6.7921673  59.0938903
  23.3280113   8.1421673  70.8788903  22.6300113   7.6341673  71.0048903
  23.5880113   7.9371673  70.0708903  23.2630113   8.0371673  70.7778903
  31.0390113   9.6351673  71.7888903  31.8070113   9.5551673  71.3828903
  30.4560113   9.5141673  71.1508903  31.0660113   9.6051673  71.6348903
  37.3160113  10.2381673  64.6898903  36.8610113  10.9551673  64.8908903
  36.7020113   9.6671673  64.4478903  37.1580113  10.2601673  64.6838903
  34.3130113   6.0831673  64.2338903  35.0140113   5.6011673  64.4228903
  33.6530113   5.5141673  64.2788903  34.3190113   5.9281673  64.2678903
  24.6890113   6.9931673  73.4458903  25.5300113   7.0561673  73.2238903
  24.6520113   7.3901673  74.2218903  24.8080113   7.0611673  73.5278903
  26.6520113   2.5041673  68.1948903  26.8240113   2.2941673  69.0238903
  25.9970113   1.9701673  67.9788903  26.5810113   2.3941673  68.2858903
  27.4020113   2.4421673  70.7848903  27.4550113   3.2891673  70.9868903
  27.1170113   2.0721673  71.5218903  27.3680113   2.5121673  70.9228903
  33.5790113   3.1371673  69.9148903  33.0650113   2.7251673  70.4858903
  33.4530113   3.9811673  70.0958903  33.4850113   3.2011673  70.0258903
  36.8320113   3.5761673  60.0418903  36.9510113   3.2891673  60.8568903
  37.6390113   3.5971673  59.7118903  36.9680113   3.5371673  60.1138903
  23.9680113   3.3081673  65.3728903  24.8190113   3.2281673  65.1998903
  23.6110113   2.6261673  64.9608903  24.0410113   3.1951673  65.2858903
  22.7350113  10.0331673  66.6098903  22.0620113   9.5351673  66.3648903
  23.1380113  10.2181673  65.8588903  22.6950113   9.9871673  66.4628903
  39.0660113   8.0851673  74.2958903  38.3840113   8.3951673  73.8488903
  38.6970113   7.6271673  74.9408903  38.9100113   8.0631673  74.3248903
  26.3360113   3.3151673  63.6078903  27.0490113   3.8101673  63.6978903
  26.5580113   2.7481673  62.9818903  26.4740113   3.3041673  63.5288903
  20.4920113   4.9581673  66.9278903  19.8250113   5.4461673  67.2038903
  21.1720113   5.5031673  66.9568903  20.4940113   5.1101673  66.9728903
  30.8590113   7.0181673  65.9348903  30.3360113   7.6521673  65.6418903
  31.1690113   6.6541673  65.2058903  30.8270113   7.0581673  65.7838903
  20.7300113   5.8061673  61.6058903  21.2820113   6.3751673  61.9698903
  20.4980113   5.2911673  62.2708903  20.7770113   5.8141673  61.7578903
  24.9340113   4.8061673  68.6948903  25.4010113   5.0951673  69.3728903
  25.5060113   4.3281673  68.2408903  25.0880113   4.7781673  68.7278903
  20.5600113   4.2551673  59.2338903  21.3160113   3.8231673  59.2918903
  20.5750113   4.7871673  59.9248903  20.6740113   4.2701673  59.3448903
  21.5000113   2.4761673  67.2388903  21.9310113   2.3471673  66.4918903
  21.2950113   3.3241673  67.2128903  21.5330113   2.5821673  67.1248903
  36.9000113   8.4671673  72.3858903  36.2290113   8.9811673  72.6038903
  36.9630113   8.5671673  71.5218903  36.8100113   8.5581673  72.2908903
  25.5840113   5.9921673  65.5208903  25.7100113   6.8351673  65.7078903
  26.2520113   5.5931673  65.9168903  25.7020113   6.0581673  65.6068903
  28.8960113   9.2161673  69.9818903  28.6190113   8.5751673  69.4588903
  28.6880113   9.9421673  69.5438903  28.8250113   9.2291673  69.8398903
  34.1980113   3.9991673  74.4068903  34.6820113   4.7171673  74.5048903
  34.5920113   3.5721673  73.7558903  34.3280113   4.0421673  74.3248903
  28.4940113   6.8441673  75.5838903  28.8480113   6.6661673  76.3608903
  28.0580113   6.1151673  75.3848903  28.4820113   6.7101673  75.6698903
  36.6270113   4.6301673  64.4768903  36.9830113   4.2801673  65.1918903
  36.6190113   3.9691673  63.9068903  36.6790113   4.4801673  64.4978903
  32.6720113   7.6961673  68.3208903  32.0690113   7.4001673  67.7638903
  33.2170113   8.1481673  67.8118903  32.6630113   7.7191673  68.1628903
  32.6850113   4.5471673  67.7208903  31.8880113   4.7711673  67.9948903
  32.9430113   3.9531673  68.3058903  32.6050113   4.4921673  67.8478903
  26.5770113   9.3591673  62.1688903  26.4300113   8.5831673  62.5398903
  27.2660113   9.2121673  61.6538903  26.6570113   9.2221673  62.1478903
  28.8690113   8.8751673  60.5708903  29.4910113   9.0381673  61.1608903
  28.9050113   9.5661673  60.0388903  28.9660113   9.0011673  60.5798903
  35.9450113   2.5451673  72.5668903  36.0000113   2.6701673  71.7048903
  36.6980113   2.8651673  72.8688903  36.0640113   2.6101673  72.4838903
  31.6760113   2.3511673  72.1668903  31.5210113   2.9611673  72.7708903
  32.2100113   1.7931673  72.5728903  31.7320113   2.3591673  72.3158903
  35.2860113   5.0801673  68.6938903  34.8070113   5.3781673  68.0278903
  34.9300113   4.3041673  68.8718903  35.1630113   5.0091673  68.6218903
  29.2830113   2.7981673  67.2558903  28.4360113   2.6041673  67.3368903
  29.6070113   2.6331673  68.0488903  29.2050113   2.7451673  67.3848903
  26.0350113   9.5281673  58.1418903  26.4740113   8.8311673  58.4298903
  26.2420113  10.1521673  58.7148903  26.1310113   9.5171673  58.2688903
  23.1310113   2.4911673  69.5718903  23.8530113   2.9791673  69.5348903
  22.8610113   2.4611673  68.7428903  23.1980113   2.5591673  69.4438903
  38.9780113   9.2461673  60.6338903  39.6720113   8.7791673  60.3858903
  38.4390113   8.6481673  60.9708903  39.0010113   9.0881673  60.6468903
  22.5260113   3.5431673  73.8498903  22.1050113   3.0251673  73.2888903
  22.1740113   4.3291673  73.7068903  22.4120113   3.5831673  73.7458903
  37.4730113   2.0931673  67.2498903  37.1870113   2.4941673  67.9698903
  38.3330113   2.0311673  67.3768903  37.5580113   2.1431673  67.3748903
  38.6040113   7.7261673  67.7788903  38.8940113   7.9831673  66.9978903
  39.2990113   7.8221673  68.2978903  38.7500113   7.7781673  67.7398903
  35.2090113   6.3291673  59.7608903  35.5430113   5.5231673  59.7958903
  34.4540113   6.2571673  60.1908903  35.1470113   6.1991673  59.8298903
  38.1310113   4.1231673  73.1718903  38.7590113   3.5741673  72.9158903
  38.0700113   4.6881673  72.5098903  38.2150113   4.1261673  73.0358903
  32.5830113   4.2041673  59.1638903  33.2670113   3.6901673  58.9948903
  32.1660113   4.2501673  58.3988903  32.6220113   4.1351673  59.0258903
  27.2650113   5.3541673  70.4678903  26.9670113   5.9461673  71.0348903
  27.3200113   5.7961673  69.7188903  27.2290113   5.5071673  70.4408903
  25.2440113   4.3041673  73.8658903  24.4380113   4.0141673  74.0328903
  25.1550113   5.1721673  73.8718903  25.1120113   4.3891673  73.8908903
  29.7810113   1.7771673  69.9588903  30.2570113   2.1511673  70.5868903
  28.9580113   1.9111673  70.2178903  29.7300113   1.8521673  70.0898903
  29.0450113   9.1701673  65.1868903  29.5910113   9.8491673  65.2408903
  28.6950113   9.2521673  64.3918903  29.0740113   9.2831673  65.0768903
  27.2280113   7.3981673  68.5758903  26.6040113   7.9801673  68.3938903
  27.4760113   7.1121673  67.7898903  27.1720113   7.4421673  68.4328903
  31.5370113   4.0321673  75.5648903  32.2940113   4.3181673  75.2388903
  30.9900113   4.0841673  74.8868903  31.5680113   4.0821673  75.4158903
  35.4460113   6.5821673  74.0688903  35.7920113   6.8521673  74.8228903
  35.7400113   7.1641673  73.4888903  35.5410113   6.7081673  74.0948903
  28.8220113   2.1741673  58.4908903  28.0170113   1.9971673  58.2058903
  28.7890113   3.0251673  58.6828903  28.6980113   2.2731673  58.4778903
  29.8810113   9.0471673  74.4558903  30.3590113   8.4471673  74.0398903
  29.5300113   8.6041673  75.1208903  29.9000113   8.8931673  74.4928903
  36.4690113   2.3541673  62.6368903  36.9450113   1.6251673  62.5888903
  35.6480113   2.0681673  62.5608903  36.4180113   2.2041673  62.6178903
  29.9400113   4.2661673  73.4758903  29.1450113   4.2021673  73.8268903
  30.0110113   5.1131673  73.2808903  29.8330113   4.3811673  73.4988903
  25.7700113  10.4731673  68.7928903  25.7810113  10.5321673  69.6628903
  25.3450113   9.7261673  68.6428903  25.7090113  10.3711673  68.8988903
  32.6850113   3.5211673  64.9918903  32.7610113   3.8621673  65.7908903
  32.8540113   2.6741673  65.1128903  32.7210113   3.4461673  65.1278903
  30.2070113   2.7951673  64.5568903  29.9090113   2.4801673  65.3138903
  30.9020113   3.2681673  64.7918903  30.2660113   2.8181673  64.7038903
  30.4290113   6.9131673  72.5838903  31.1160113   6.7991673  73.1088903
  30.5630113   7.7041673  72.2398903  30.5500113   7.0131673  72.6108903
  22.5340113   9.9711673  74.2348903  21.8800113   9.4021673  74.3328903
  22.1590113  10.7441673  74.3858903  22.3820113  10.0011673  74.2718903
  34.1360113   9.7511673  67.0868903  33.6850113  10.3941673  67.4658903
  34.8440113   9.6721673  67.5918903  34.1740113   9.8341673  67.2178903
  30.8370113   4.8411673  70.0168903  30.1430113   5.2431673  70.3598903
  31.5140113   5.2741673  70.3558903  30.8340113   4.9641673  70.1178903
  31.1590113   6.4321673  63.1858903  30.9540113   7.2651673  63.0268903
  30.3840113   6.0501673  63.3078903  31.0140113   6.4991673  63.1808903
  26.5210113   6.6941673  59.5948903  26.9620113   6.7741673  60.3428903
  25.7160113   6.4781673  59.8528903  26.4670113   6.6741673  59.7438903
  35.4290113   8.4651673  63.1688903  35.2550113   7.8111673  63.7188903
  36.1420113   8.1941673  62.7458903  35.5090113   8.3281673  63.1878903
  23.8500113   5.7641673  60.1958903  23.6060113   5.4571673  60.9758903
  23.8170113   5.0611673  59.6798903  23.8090113   5.6151673  60.2348903
  26.6690113   4.0091673  58.9388903  25.8510113   3.7411673  59.0788903
  26.6410113   4.8611673  59.1238903  26.5440113   4.0961673  58.9868903
  33.1040113   5.9181673  70.8598903  33.3100113   6.2191673  71.6518903
  33.0430113   6.6401673  70.3748903  33.1250113   6.0691673  70.9048903
  32.6380113  10.1321673  75.1058903  31.8850113  10.1141673  74.6648903
  32.8060113  10.9841673  75.1898903  32.5520113  10.2551673  75.0528903
  37.9160113   4.5571673  70.3178903  37.8840113   3.6951673  70.1828903
  37.2230113   4.8591673  69.8838903  37.8090113   4.4741673  70.2338903
  26.3100113   9.7551673  74.5238903  26.3510113   9.8811673  75.3868903
  26.9610113   9.1951673  74.3678903  26.4120113   9.6911673  74.6288903
  36.0210113   7.8171673  69.1148903  36.5480113   7.7341673  68.4238903
  35.6300113   7.0391673  69.1688903  36.0410113   7.6901673  69.0208903
  23.9030113   8.1381673  75.8838903  24.4980113   8.5691673  76.3558903
  23.5390113   8.7621673  75.3948903  23.9370113   8.2941673  75.8808903
  21.8300113   6.1271673  72.8128903  21.2560113   6.5431673  73.3218903
  22.5630113   6.5921673  72.9078903  21.8540113   6.2571673  72.9018903
  23.6160113   9.3941673  61.5878903  23.4710113   9.5501673  60.7418903
  24.4820113   9.4731673  61.6658903  23.7230113   9.4291673  61.4748903
  27.7830113   1.7911673  61.3158903  27.8830113   1.9301673  60.4608903
  28.6010113   1.7311673  61.6118903  27.9180113   1.8021673  61.2328903
  36.9430113   9.8551673  58.7958903  37.5800113   9.7211673  59.3768903
  36.6020113   9.0611673  58.6788903  36.9870113   9.7181673  58.8638903
  37.1380113   2.2731673  75.5288903  37.7720113   2.1031673  76.1028903
  37.5550113   2.6761673  74.8768903  37.2930113   2.3081673  75.5178903
  33.0180113   6.1201673  61.1178903  32.7670113   5.9921673  61.9438903
  32.7010113   5.4251673  60.6968903  32.9340113   5.9991673  61.1778903
  34.5490113   2.3841673  76.8838903  35.4200113   2.3481673  76.8478903
  34.3300113   2.8041673  76.1518903  34.6460113   2.4401673  76.7708903
  24.3030113   8.2091673  68.0648903  24.2240113   7.3991673  67.7488903
  23.8590113   8.6961673  67.4928903  24.2260113   8.1611673  67.9338903
  29.9040113   4.3281673  60.5478903  30.6210113   3.9811673  60.1918903
  29.8700113   5.1281673  60.1998903  30.0050113   4.3951673  60.4438903
  21.8750113  10.4531673  71.6458903  22.3680113  10.3971673  72.3638903
  22.0630113   9.7201673  71.2108903  21.9760113  10.3361673  71.6878903
  20.9910113   4.0251673  44.9136493  20.5500113   4.1431673  45.6566493
  20.7080113   3.2501673  44.6286493  20.8840113   3.9281673  44.9816493
  37.2660113   7.3261673  42.4286493  37.9670113   6.8071673  42.4246493
  36.6790113   6.8811673  41.9596493  37.2830113   7.1831673  42.3586493
  23.8730113   3.0801673  40.0926493  23.4810113   2.7091673  39.4066493
  23.7930113   2.4821673  40.7216493  23.8030113   2.9371673  40.0836493
  23.5000113   4.7211673  43.9926493  24.1080113   4.5511673  44.5956493
  22.7490113   4.5811673  44.4136493  23.4790113   4.6751673  44.1436493
  22.3910113   7.8121673  40.0696493  22.8580113   7.8961673  39.3376493
  22.8460113   7.2341673  40.5386493  22.5270113   7.7391673  40.0306493
  20.9310113   6.7601673  51.1686493  21.0600113   6.4801673  51.9846493
  20.3210113   6.2191673  50.8596493  20.8600113   6.6391673  51.2436493
  27.5050113   4.2851673  56.2356493  27.2690113   4.2821673  57.0756493
  26.7570113   4.1371673  55.8116493  27.3590113   4.2621673  56.2966493
  27.4870113   7.4771673  53.4986493  27.6250113   8.2371673  53.0916493
  28.2780113   7.1121673  53.5256493  27.6240113   7.5361673  53.4426493
  28.5820113   5.3621673  48.0036493  28.9300113   4.5631673  48.0336493
  29.2470113   5.8661673  47.7486493  28.7320113   5.3181673  47.9706493
  28.6390113   4.8111673  44.2146493  28.9700113   4.1671673  44.7006493
  28.8790113   4.6001673  43.4036493  28.7230113   4.6851673  44.1666493
  20.7430113   8.7521673  46.2836493  20.1510113   9.3101673  45.9706493
  21.1690113   8.4831673  45.5716493  20.7190113   8.7941673  46.1326493
  26.5830113   6.5961673  43.7636493  26.0040113   6.3211673  44.3556493
  27.2070113   5.9871673  43.7886493  26.5900113   6.4661673  43.8546493
  32.7260113   8.8841673  41.2856493  33.4530113   9.3561673  41.3876493
  32.9550113   8.0901673  41.5656493  32.8680113   8.8371673  41.3426493
  30.8940113   9.2761673  43.2756493  31.1080113   9.8031673  43.9376493
  31.6610113   9.1021673  42.8966493  31.0390113   9.3281673  43.3176493
  22.2880113   7.4221673  44.2146493  22.9440113   6.8471673  44.2296493
  22.6770113   8.1711673  43.9936493  22.4430113   7.4471673  44.1846493
  33.3330113   9.2861673  51.5806493  34.0770113   9.7421673  51.5706493
  33.2120113   9.0721673  50.7436493  33.4250113   9.3221673  51.4556493
  23.1060113   5.9091673  47.7146493  23.5290113   5.5531673  47.0406493
  23.4300113   5.4871673  48.4066493  23.2160113   5.7941673  47.7176493
  26.3370113   8.7611673  47.0106493  27.1810113   8.8651673  46.8156493
  26.0400113   9.5791673  47.0786493  26.4180113   8.8971673  46.9916493
  34.9070113  10.4711673  41.6856493  35.5720113  10.3231673  41.1406493
  35.2670113  10.3881673  42.4756493  35.0590113  10.4371673  41.7216493
  25.3350113   9.9801673  52.7506493  25.6270113   9.9131673  53.5706493
  24.7090113   9.3751673  52.7056493  25.2860113   9.8811673  52.8656493
  32.5870113   6.4711673  55.2846493  32.5530113   6.8531673  56.0686493
  33.4410113   6.4291673  55.1136493  32.7080113   6.5211673  55.3756493
  29.7250113   6.6681673  40.0346493  29.5440113   7.2131673  40.6916493
  30.4910113   6.9581673  39.7336493  29.8110113   6.7921673  40.0876493
  23.3280113   8.1421673  51.8726493  22.6300113   7.6341673  51.9986493
  23.5880113   7.9371673  51.0646493  23.2630113   8.0371673  51.7716493
  31.0390113   9.6351673  52.7826493  31.8070113   9.5551673  52.3766493
  30.4560113   9.5141673  52.1446493  31.0660113   9.6051673  52.6286493
  37.3160113  10.2381673  45.6836493  36.8610113  10.9551673  45.8846493
  36.7020113   9.6671673  45.4416493  37.1580113  10.2601673  45.6776493
  34.3130113   6.0831673  45.2276493  35.0140113   5.6011673  45.4166493
  33.6530113   5.5141673  45.2726493  34.3190113   5.9281673  45.2616493
  24.6890113   6.9931673  54.4396493  25.5300113   7.0561673  54.2176493
  24.6520113   7.3901673  55.2156493  24.8080113   7.0611673  54.5216493
  26.6520113   2.5041673  49.1886493  26.8240113   2.2941673  50.0176493
  25.9970113   1.9701673  48.9726493  26.5810113   2.3941673  49.2796493
  27.4020113   2.4421673  51.7786493  27.4550113   3.2891673  51.9806493
  27.1170113   2.0721673  52.5156493  27.3680113   2.5121673  51.9166493
  33.5790113   3.1371673  50.9086493  33.0650113   2.7251673  51.4796493
  33.4530113   3.9811673  51.0896493  33.4850113   3.2011673  51.0196493
  20.2230113   6.8131673  57.9896493  20.9790113   7.1621673  58.2476493
  20.4000113   5.9601673  57.9326493  20.3610113   6.7381673  58.0196493
  36.8320113   3.5761673  41.0356493  36.9510113   3.2891673  41.8506493
  37.6390113   3.5971673  40.7056493  36.9680113   3.5371673  41.1076493
  23.9680113   3.3081673  46.3666493  24.8190113   3.2281673  46.1936493
  23.6110113   2.6261673  45.9546493  24.0410113   3.1951673  46.2796493
  22.7350113  10.0331673  47.6036493  22.0620113   9.5351673  47.3586493
  23.1380113  10.2181673  46.8526493  22.6950113   9.9871673  47.4566493
  39.0660113   8.0851673  55.2896493  38.3840113   8.3951673  54.8426493
  38.6970113   7.6271673  55.9346493  38.9100113   8.0631673  55.3186493
  26.3360113   3.3151673  44.6016493  27.0490113   3.8101673  44.6916493
  26.5580113   2.7481673  43.9756493  26.4740113   3.3041673  44.5226493
  20.4920113   4.9581673  47.9216493  19.8250113   5.4461673  48.1976493
  21.1720113   5.5031673  47.9506493  20.4940113   5.1101673  47.9666493
  30.8590113   7.0181673  46.9286493  30.3360113   7.6521673  46.6356493
  31.1690113   6.6541673  46.1996493  30.8270113   7.0581673  46.7776493
  20.7300113   5.8061673  42.5996493  21.2820113   6.3751673  42.9636493
  20.4980113   5.2911673  43.2646493  20.7770113   5.8141673  42.7516493
  24.9340113   4.8061673  49.6886493  25.4010113   5.0951673  50.3666493
  25.5060113   4.3281673  49.2346493  25.0880113   4.7781673  49.7216493
  20.5600113   4.2551673  40.2276493  21.3160113   3.8231673  40.2856493
  20.5750113   4.7871673  40.9186493  20.6740113   4.2701673  40.3386493
  21.5000113   2.4761673  48.2326493  21.9310113   2.3471673  47.4856493
  21.2950113   3.3241673  48.2066493  21.5330113   2.5821673  48.1186493
  36.9000113   8.4671673  53.3796493  36.2290113   8.9811673  53.5976493
  36.9630113   8.5671673  52.5156493  36.8100113   8.5581673  53.2846493
  25.5840113   5.9921673  46.5146493  25.7100113   6.8351673  46.7016493
  26.2520113   5.5931673  46.9106493  25.7020113   6.0581673  46.6006493
  28.8960113   9.2161673  50.9756493  28.6190113   8.5751673  50.4526493
  28.6880113   9.9421673  50.5376493  28.8250113   9.2291673  50.8336493
  34.1980113   3.9991673  55.4006493  34.6820113   4.7171673  55.4986493
  34.5920113   3.5721673  54.7496493  34.3280113   4.0421673  55.3186493
  28.4940113   6.8441673  56.5776493  28.8480113   6.6661673  57.3546493
  28.0580113   6.1151673  56.3786493  28.4820113   6.7101673  56.6636493
  36.6270113   4.6301673  45.4706493  36.9830113   4.2801673  46.1856493
  36.6190113   3.9691673  44.9006493  36.6790113   4.4801673  45.4916493
  32.6720113   7.6961673  49.3146493  32.0690113   7.4001673  48.7576493
  33.2170113   8.1481673  48.8056493  32.6630113   7.7191673  49.1566493
  32.6850113   4.5471673  48.7146493  31.8880113   4.7711673  48.9886493
  32.9430113   3.9531673  49.2996493  32.6050113   4.4921673  48.8416493
  26.5770113   9.3591673  43.1626493  26.4300113   8.5831673  43.5336493
  27.2660113   9.2121673  42.6476493  26.6570113   9.2221673  43.1416493
  28.8690113   8.8751673  41.5646493  29.4910113   9.0381673  42.1546493
  28.9050113   9.5661673  41.0326493  28.9660113   9.0011673  41.5736493
  35.9450113   2.5451673  53.5606493  36.0000113   2.6701673  52.6986493
  36.6980113   2.8651673  53.8626493  36.0640113   2.6101673  53.4776493
  32.1360113   7.8941673  57.8376493  32.3000113   8.1771673  58.6466493
  32.3990113   8.5551673  57.3326493  32.1990113   8.0341673  57.8826493
  31.6760113   2.3511673  53.1606493  31.5210113   2.9611673  53.7646493
  32.2100113   1.7931673  53.5666493  31.7320113   2.3591673  53.3096493
  35.2860113   5.0801673  49.6876493  34.8070113   5.3781673  49.0216493
  34.9300113   4.3041673  49.8656493  35.1630113   5.0091673  49.6156493
  29.2830113   2.7981673  48.2496493  28.4360113   2.6041673  48.3306493
  29.6070113   2.6331673  49.0426493  29.2050113   2.7451673  48.3786493
  26.0350113   9.5281673  39.1356493  26.4740113   8.8311673  39.4236493
  26.2420113  10.1521673  39.7086493  26.1310113   9.5171673  39.2626493
  23.1310113   2.4911673  50.5656493  23.8530113   2.9791673  50.5286493
  22.8610113   2.4611673  49.7366493  23.1980113   2.5591673  50.4376493
  38.9780113   9.2461673  41.6276493  39.6720113   8.7791673  41.3796493
  38.4390113   8.6481673  41.9646493  39.0010113   9.0881673  41.6406493
  22.5260113   3.5431673  54.8436493  22.1050113   3.0251673  54.2826493
  22.1740113   4.3291673  54.7006493  22.4120113   3.5831673  54.7396493
  37.4730113   2.0931673  48.2436493  37.1870113   2.4941673  48.9636493
  38.3330113   2.0311673  48.3706493  37.5580113   2.1431673  48.3686493
  38.6040113   7.7261673  48.7726493  38.8940113   7.9831673  47.9916493
  39.2990113   7.8221673  49.2916493  38.7500113   7.7781673  48.7336493
  35.2090113   6.3291673  40.7546493  35.5430113   5.5231673  40.7896493
  34.4540113   6.2571673  41.1846493  35.1470113   6.1991673  40.8236493
  38.1310113   4.1231673  54.1656493  38.7590113   3.5741673  53.9096493
  38.0700113   4.6881673  53.5036493  38.2150113   4.1261673  54.0296493
  32.5830113   4.2041673  40.1576493  33.2670113   3.6901673  39.9886493
  32.1660113   4.2501673  39.3926493  32.6220113   4.1351673  40.0196493
  27.2650113   5.3541673  51.4616493  26.9670113   5.9461673  52.0286493
  27.3200113   5.7961673  50.7126493  27.2290113   5.5071673  51.4346493
  25.2440113   4.3041673  54.8596493  24.4380113   4.0141673  55.0266493
  25.1550113   5.1721673  54.8656493  25.1120113   4.3891673  54.8846493
  29.7810113   1.7771673  50.9526493  30.2570113   2.1511673  51.5806493
  28.9580113   1.9111673  51.2116493  29.7300113   1.8521673  51.0836493
  29.0450113   9.1701673  46.1806493  29.5910113   9.8491673  46.2346493
  28.6950113   9.2521673  45.3856493  29.0740113   9.2831673  46.0706493
  27.2280113   7.3981673  49.5696493  26.6040113   7.9801673  49.3876493
  27.4760113   7.1121673  48.7836493  27.1720113   7.4421673  49.4266493
  31.5370113   4.0321673  56.5586493  32.2940113   4.3181673  56.2326493
  30.9900113   4.0841673  55.8806493  31.5680113   4.0821673  56.4096493
  35.4460113   6.5821673  55.0626493  35.7920113   6.8521673  55.8166493
  35.7400113   7.1641673  54.4826493  35.5410113   6.7081673  55.0886493
  28.8220113   2.1741673  39.4846493  28.0170113   1.9971673  39.1996493
  28.7890113   3.0251673  39.6766493  28.6980113   2.2731673  39.4716493
  29.8810113   9.0471673  55.4496493  30.3590113   8.4471673  55.0336493
  29.5300113   8.6041673  56.1146493  29.9000113   8.8931673  55.4866493
  36.4690113   2.3541673  43.6306493  36.9450113   1.6251673  43.5826493
  35.6480113   2.0681673  43.5546493  36.4180113   2.2041673  43.6116493
  29.9400113   4.2661673  54.4696493  29.1450113   4.2021673  54.8206493
  30.0110113   5.1131673  54.2746493  29.8330113   4.3811673  54.4926493
  25.7700113  10.4731673  49.7866493  25.7810113  10.5321673  50.6566493
  25.3450113   9.7261673  49.6366493  25.7090113  10.3711673  49.8926493
  32.6850113   3.5211673  45.9856493  32.7610113   3.8621673  46.7846493
  32.8540113   2.6741673  46.1066493  32.7210113   3.4461673  46.1216493
  30.2070113   2.7951673  45.5506493  29.9090113   2.4801673  46.3076493
  30.9020113   3.2681673  45.7856493  30.2660113   2.8181673  45.6976493
  30.4290113   6.9131673  53.5776493  31.1160113   6.7991673  54.1026493
  30.5630113   7.7041673  53.2336493  30.5500113   7.0131673  53.6046493
  22.5340113   9.9711673  55.2286493  21.8800113   9.4021673  55.3266493
  22.1590113  10.7441673  55.3796493  22.3820113  10.0011673  55.2656493
  34.1360113   9.7511673  48.0806493  33.6850113  10.3941673  48.4596493
  34.8440113   9.6721673  48.5856493  34.1740113   9.8341673  48.2116493
  30.8370113   4.8411673  51.0106493  30.1430113   5.2431673  51.3536493
  31.5140113   5.2741673  51.3496493  30.8340113   4.9641673  51.1116493
  36.2140113   7.4341673  57.5906493  36.9900113   7.0441673  57.6736493
  35.7450113   7.0981673  58.2456493  36.2590113   7.3271673  57.6996493
  31.1590113   6.4321673  44.1796493  30.9540113   7.2651673  44.0206493
  30.3840113   6.0501673  44.3016493  31.0140113   6.4991673  44.1746493
  26.5210113   6.6941673  40.5886493  26.9620113   6.7741673  41.3366493
  25.7160113   6.4781673  40.8466493  26.4670113   6.6741673  40.7376493
  35.4290113   8.4651673  44.1626493  35.2550113   7.8111673  44.7126493
  36.1420113   8.1941673  43.7396493  35.5090113   8.3281673  44.1816493
  23.8500113   5.7641673  41.1896493  23.6060113   5.4571673  41.9696493
  23.8170113   5.0611673  40.6736493  23.8090113   5.6151673  41.2286493
  26.6690113   4.0091673  39.9326493  25.8510113   3.7411673  40.0726493
  26.6410113   4.8611673  40.1176493  26.5440113   4.0961673  39.9806493
  33.1040113   5.9181673  51.8536493  33.3100113   6.2191673  52.6456493
  33.0430113   6.6401673  51.3686493  33.1250113   6.0691673  51.8986493
  32.6380113  10.1321673  56.0996493  31.8850113  10.1141673  55.6586493
  32.8060113  10.9841673  56.1836493  32.5520113  10.2551673  56.0466493
  37.9160113   4.5571673  51.3116493  37.8840113   3.6951673  51.1766493
  37.2230113   4.8591673  50.8776493  37.8090113   4.4741673  51.2276493
  26.3100113   9.7551673  55.5176493  26.3510113   9.8811673  56.3806493
  26.9610113   9.1951673  55.3616493  26.4120113   9.6911673  55.6226493
  36.0210113   7.8171673  50.1086493  36.5480113   7.7341673  49.4176493
  35.6300113   7.0391673  50.1626493  36.0410113   7.6901673  50.0146493
  23.9030113   8.1381673  56.8776493  24.4980113   8.5691673  57.3496493
  23.5390113   8.7621673  56.3886493  23.9370113   8.2941673  56.8746493
  21.8300113   6.1271673  53.8066493  21.2560113   6.5431673  54.3156493
  22.5630113   6.5921673  53.9016493  21.8540113   6.2571673  53.8956493
  23.6160113   9.3941673  42.5816493  23.4710113   9.5501673  41.7356493
  24.4820113   9.4731673  42.6596493  23.7230113   9.4291673  42.4686493
  27.7830113   1.7911673  42.3096493  27.8830113   1.9301673  41.4546493
  28.6010113   1.7311673  42.6056493  27.9180113   1.8021673  42.2266493
  36.9430113   9.8551673  39.7896493  37.5800113   9.7211673  40.3706493
  36.6020113   9.0611673  39.6726493  36.9870113   9.7181673  39.8576493
  37.1380113   2.2731673  56.5226493  37.7720113   2.1031673  57.0966493
  37.5550113   2.6761673  55.8706493  37.2930113   2.3081673  56.5116493
  33.0180113   6.1201673  42.1116493  32.7670113   5.9921673  42.9376493
  32.7010113   5.4251673  41.6906493  32.9340113   5.9991673  42.1716493
  34.5490113   2.3841673  57.8776493  35.4200113   2.3481673  57.8416493
  34.3300113   2.8041673  57.1456493  34.6460113   2.4401673  57.7646493
  24.3030113   8.2091673  49.0586493  24.2240113   7.3991673  48.7426493
  23.8590113   8.6961673  48.4866493  24.2260113   8.1611673  48.9276493
  29.9040113   4.3281673  41.5416493  30.6210113   3.9811673  41.1856493
  29.8700113   5.1281673  41.1936493  30.0050113   4.3951673  41.4376493
  21.8750113  10.4531673  52.6396493  22.3680113  10.3971673  53.3576493
  22.0630113   9.7201673  52.2046493  21.9760113  10.3361673  52.6816493
  20.9910113   4.0251673  25.9074083  20.5500113   4.1431673  26.6504083
  20.7080113   3.2501673  25.6224083  20.8840113   3.9281673  25.9754083
  37.2660113   7.3261673  23.4224083  37.9670113   6.8071673  23.4184083
  36.6790113   6.8811673  22.9534083  37.2830113   7.1831673  23.3524083
  23.8730113   3.0801673  21.0864083  23.4810113   2.7091673  20.4004083
  23.7930113   2.4821673  21.7154083  23.8030113   2.9371673  21.0774083
  23.5000113   4.7211673  24.9864083  24.1080113   4.5511673  25.5894083
  22.7490113   4.5811673  25.4074083  23.4790113   4.6751673  25.1374083
  22.3910113   7.8121673  21.0634083  22.8580113   7.8961673  20.3314083
  22.8460113   7.2341673  21.5324083  22.5270113   7.7391673  21.0244083
  20.9310113   6.7601673  32.1624083  21.0600113   6.4801673  32.9784083
  20.3210113   6.2191673  31.8534083  20.8600113   6.6391673  32.2374083
  27.5050113   4.2851673  37.2294083  27.2690113   4.2821673  38.0694083
  26.7570113   4.1371673  36.8054083  27.3590113   4.2621673  37.2904083
  27.4870113   7.4771673  34.4924083  27.6250113   8.2371673  34.0854083
  28.2780113   7.1121673  34.5194083  27.6240113   7.5361673  34.4364083
  28.5820113   5.3621673  28.9974083  28.9300113   4.5631673  29.0274083
  29.2470113   5.8661673  28.7424083  28.7320113   5.3181673  28.9644083
  28.6390113   4.8111673  25.2084083  28.9700113   4.1671673  25.6944083
  28.8790113   4.6001673  24.3974083  28.7230113   4.6851673  25.1604083
  20.7430113   8.7521673  27.2774083  20.1510113   9.3101673  26.9644083
  21.1690113   8.4831673  26.5654083  20.7190113   8.7941673  27.1264083
  26.5830113   6.5961673  24.7574083  26.0040113   6.3211673  25.3494083
  27.2070113   5.9871673  24.7824083  26.5900113   6.4661673  24.8484083
  32.7260113   8.8841673  22.2794083  33.4530113   9.3561673  22.3814083
  32.9550113   8.0901673  22.5594083  32.8680113   8.8371673  22.3364083
  30.8940113   9.2761673  24.2694083  31.1080113   9.8031673  24.9314083
  31.6610113   9.1021673  23.8904083  31.0390113   9.3281673  24.3114083
  22.2880113   7.4221673  25.2084083  22.9440113   6.8471673  25.2234083
  22.6770113   8.1711673  24.9874083  22.4430113   7.4471673  25.1784083
  33.3330113   9.2861673  32.5744083  34.0770113   9.7421673  32.5644083
  33.2120113   9.0721673  31.7374083  33.4250113   9.3221673  32.4494083
  23.1060113   5.9091673  28.7084083  23.5290113   5.5531673  28.0344083
  23.4300113   5.4871673  29.4004083  23.2160113   5.7941673  28.7114083
  26.3370113   8.7611673  28.0044083  27.1810113   8.8651673  27.8094083
  26.0400113   9.5791673  28.0724083  26.4180113   8.8971673  27.9854083
  34.9070113  10.4711673  22.6794083  35.5720113  10.3231673  22.1344083
  35.2670113  10.3881673  23.4694083  35.0590113  10.4371673  22.7154083
  25.3350113   9.9801673  33.7444083  25.6270113   9.9131673  34.5644083
  24.7090113   9.3751673  33.6994083  25.2860113   9.8811673  33.8594083
  32.5870113   6.4711673  36.2784083  32.5530113   6.8531673  37.0624083
  33.4410113   6.4291673  36.1074083  32.7080113   6.5211673  36.3694083
  29.7250113   6.6681673  21.0284083  29.5440113   7.2131673  21.6854083
  30.4910113   6.9581673  20.7274083  29.8110113   6.7921673  21.0814083
  23.3280113   8.1421673  32.8664083  22.6300113   7.6341673  32.9924083
  23.5880113   7.9371673  32.0584083  23.2630113   8.0371673  32.7654083
  31.0390113   9.6351673  33.7764083  31.8070113   9.5551673  33.3704083
  30.4560113   9.5141673  33.1384083  31.0660113   9.6051673  33.6224083
  37.3160113  10.2381673  26.6774083  36.8610113  10.9551673  26.8784083
  36.7020113   9.6671673  26.4354083  37.1580113  10.2601673  26.6714083
  34.3130113   6.0831673  26.2214083  35.0140113   5.6011673  26.4104083
  33.6530113   5.5141673  26.2664083  34.3190113   5.9281673  26.2554083
  24.6890113   6.9931673  35.4334083  25.5300113   7.0561673  35.2114083
  24.6520113   7.3901673  36.2094083  24.8080113   7.0611673  35.5154083
  26.6520113   2.5041673  30.1824083  26.8240113   2.2941673  31.0114083
  25.9970113   1.9701673  29.9664083  26.5810113   2.3941673  30.2734083
  27.4020113   2.4421673  32.7724083  27.4550113   3.2891673  32.9744083
  27.1170113   2.0721673  33.5094083  27.3680113   2.5121673  32.9104083
  33.5790113   3.1371673  31.9024083  33.0650113   2.7251673  32.4734083
  33.4530113   3.9811673  32.0834083  33.4850113   3.2011673  32.0134083
  20.2230113   6.8131673  38.9834083  20.9790113   7.1621673  39.2414083
  20.4000113   5.9601673  38.9264083  20.3610113   6.7381673  39.0134083
  36.8320113   3.5761673  22.0294083  36.9510113   3.2891673  22.8444083
  37.6390113   3.5971673  21.6994083  36.9680113   3.5371673  22.1014083
  23.9680113   3.3081673  27.3604083  24.8190113   3.2281673  27.1874083
  23.6110113   2.6261673  26.9484083  24.0410113   3.1951673  27.2734083
  22.7350113  10.0331673  28.5974083  22.0620113   9.5351673  28.3524083
  23.1380113  10.2181673  27.8464083  22.6950113   9.9871673  28.4504083
  39.0660113   8.0851673  36.2834083  38.3840113   8.3951673  35.8364083
  38.6970113   7.6271673  36.9284083  38.9100113   8.0631673  36.3124083
  26.3360113   3.3151673  25.5954083  27.0490113   3.8101673  25.6854083
  26.5580113   2.7481673  24.9694083  26.4740113   3.3041673  25.5164083
  20.4920113   4.9581673  28.9154083  19.8250113   5.4461673  29.1914083
  21.1720113   5.5031673  28.9444083  20.4940113   5.1101673  28.9604083
  30.8590113   7.0181673  27.9224083  30.3360113   7.6521673  27.6294083
  31.1690113   6.6541673  27.1934083  30.8270113   7.0581673  27.7714083
  20.7300113   5.8061673  23.5934083  21.2820113   6.3751673  23.9574083
  20.4980113   5.2911673  24.2584083  20.7770113   5.8141673  23.7454083
  24.9340113   4.8061673  30.6824083  25.4010113   5.0951673  31.3604083
  25.5060113   4.3281673  30.2284083  25.0880113   4.7781673  30.7154083
  20.5600113   4.2551673  21.2214083  21.3160113   3.8231673  21.2794083
  20.5750113   4.7871673  21.9124083  20.6740113   4.2701673  21.3324083
  21.5000113   2.4761673  29.2264083  21.9310113   2.3471673  28.4794083
  21.2950113   3.3241673  29.2004083  21.5330113   2.5821673  29.1124083
  36.9000113   8.4671673  34.3734083  36.2290113   8.9811673  34.5914083
  36.9630113   8.5671673  33.5094083  36.8100113   8.5581673  34.2784083
  25.5840113   5.9921673  27.5084083  25.7100113   6.8351673  27.6954083
  26.2520113   5.5931673  27.9044083  25.7020113   6.0581673  27.5944083
  28.8960113   9.2161673  31.9694083  28.6190113   8.5751673  31.4464083
  28.6880113   9.9421673  31.5314083  28.8250113   9.2291673  31.8274083
  34.1980113   3.9991673  36.3944083  34.6820113   4.7171673  36.4924083
  34.5920113   3.5721673  35.7434083  34.3280113   4.0421673  36.3124083
  28.4940113   6.8441673  37.5714083  28.8480113   6.6661673  38.3484083
  28.0580113   6.1151673  37.3724083  28.4820113   6.7101673  37.6574083
  36.6270113   4.6301673  26.4644083  36.9830113   4.2801673  27.1794083
  36.6190113   3.9691673  25.8944083  36.6790113   4.4801673  26.4854083
  32.6720113   7.6961673  30.3084083  32.0690113   7.4001673  29.7514083
  33.2170113   8.1481673  29.7994083  32.6630113   7.7191673  30.1504083
  32.6850113   4.5471673  29.7084083  31.8880113   4.7711673  29.9824083
  32.9430113   3.9531673  30.2934083  32.6050113   4.4921673  29.8354083
  26.5770113   9.3591673  24.1564083  26.4300113   8.5831673  24.5274083
  27.2660113   9.2121673  23.6414083  26.6570113   9.2221673  24.1354083
  28.8690113   8.8751673  22.5584083  29.4910113   9.0381673  23.1484083
  28.9050113   9.5661673  22.0264083  28.9660113   9.0011673  22.5674083
  35.9450113   2.5451673  34.5544083  36.0000113   2.6701673  33.6924083
  36.6980113   2.8651673  34.8564083  36.0640113   2.6101673  34.4714083
  32.1360113   7.8941673  38.8314083  32.3000113   8.1771673  39.6404083
  32.3990113   8.5551673  38.3264083  32.1990113   8.0341673  38.8764083
  31.6760113   2.3511673  34.1544083  31.5210113   2.9611673  34.7584083
  32.2100113   1.7931673  34.5604083  31.7320113   2.3591673  34.3034083
  35.2860113   5.0801673  30.6814083  34.8070113   5.3781673  30.0154083
  34.9300113   4.3041673  30.8594083  35.1630113   5.0091673  30.6094083
  29.2830113   2.7981673  29.2434083  28.4360113   2.6041673  29.3244083
  29.6070113   2.6331673  30.0364083  29.2050113   2.7451673  29.3724083
  26.0350113   9.5281673  20.1294083  26.4740113   8.8311673  20.4174083
  26.2420113  10.1521673  20.7024083  26.1310113   9.5171673  20.2564083
  23.1310113   2.4911673  31.5594083  23.8530113   2.9791673  31.5224083
  22.8610113   2.4611673  30.7304083  23.1980113   2.5591673  31.4314083
  38.9780113   9.2461673  22.6214083  39.6720113   8.7791673  22.3734083
  38.4390113   8.6481673  22.9584083  39.0010113   9.0881673  22.6344083
  22.5260113   3.5431673  35.8374083  22.1050113   3.0251673  35.2764083
  22.1740113   4.3291673  35.6944083  22.4120113   3.5831673  35.7334083
  37.4730113   2.0931673  29.2374083  37.1870113   2.4941673  29.9574083
  38.3330113   2.0311673  29.3644083  37.5580113   2.1431673  29.3624083
  38.6040113   7.7261673  29.7664083  38.8940113   7.9831673  28.9854083
  39.2990113   7.8221673  30.2854083  38.7500113   7.7781673  29.7274083
  35.2090113   6.3291673  21.7484083  35.5430113   5.5231673  21.7834083
  34.4540113   6.2571673  22.1784083  35.1470113   6.1991673  21.8174083
  38.1310113   4.1231673  35.1594083  38.7590113   3.5741673  34.9034083
  38.0700113   4.6881673  34.4974083  38.2150113   4.1261673  35.0234083
  32.5830113   4.2041673  21.1514083  33.2670113   3.6901673  20.9824083
  32.1660113   4.2501673  20.3864083  32.6220113   4.1351673  21.0134083
  27.2650113   5.3541673  32.4554083  26.9670113   5.9461673  33.0224083
  27.3200113   5.7961673  31.7064083  27.2290113   5.5071673  32.4284083
  25.2440113   4.3041673  35.8534083  24.4380113   4.0141673  36.0204083
  25.1550113   5.1721673  35.8594083  25.1120113   4.3891673  35.8784083
  29.7810113   1.7771673  31.9464083  30.2570113   2.1511673  32.5744083
  28.9580113   1.9111673  32.2054083  29.7300113   1.8521673  32.0774083
  29.0450113   9.1701673  27.1744083  29.5910113   9.8491673  27.2284083
  28.6950113   9.2521673  26.3794083  29.0740113   9.2831673  27.0644083
  27.2280113   7.3981673  30.5634083  26.6040113   7.9801673  30.3814083
  27.4760113   7.1121673  29.7774083  27.1720113   7.4421673  30.4204083
  31.5370113   4.0321673  37.5524083  32.2940113   4.3181673  37.2264083
  30.9900113   4.0841673  36.8744083  31.5680113   4.0821673  37.4034083
  35.4460113   6.5821673  36.0564083  35.7920113   6.8521673  36.8104083
  35.7400113   7.1641673  35.4764083  35.5410113   6.7081673  36.0824083
  28.8220113   2.1741673  20.4784083  28.0170113   1.9971673  20.1934083
  28.7890113   3.0251673  20.6704083  28.6980113   2.2731673  20.4654083
  29.8810113   9.0471673  36.4434083  30.3590113   8.4471673  36.0274083
  29.5300113   8.6041673  37.1084083  29.9000113   8.8931673  36.4804083
  36.4690113   2.3541673  24.6244083  36.9450113   1.6251673  24.5764083
  35.6480113   2.0681673  24.5484083  36.4180113   2.2041673  24.6054083
  29.9400113   4.2661673  35.4634083  29.1450113   4.2021673  35.8144083
  30.0110113   5.1131673  35.2684083  29.8330113   4.3811673  35.4864083
  25.7700113  10.4731673  30.7804083  25.7810113  10.5321673  31.6504083
  25.3450113   9.7261673  30.6304083  25.7090113  10.3711673  30.8864083
  32.6850113   3.5211673  26.9794083  32.7610113   3.8621673  27.7784083
  32.8540113   2.6741673  27.1004083  32.7210113   3.4461673  27.1154083
  30.2070113   2.7951673  26.5444083  29.9090113   2.4801673  27.3014083
  30.9020113   3.2681673  26.7794083  30.2660113   2.8181673  26.6914083
  30.4290113   6.9131673  34.5714083  31.1160113   6.7991673  35.0964083
  30.5630113   7.7041673  34.2274083  30.5500113   7.0131673  34.5984083
  22.5340113   9.9711673  36.2224083  21.8800113   9.4021673  36.3204083
  22.1590113  10.7441673  36.3734083  22.3820113  10.0011673  36.2594083
  34.1360113   9.7511673  29.0744083  33.6850113  10.3941673  29.4534083
  34.8440113   9.6721673  29.5794083  34.1740113   9.8341673  29.2054083
  30.8370113   4.8411673  32.0044083  30.1430113   5.2431673  32.3474083
  31.5140113   5.2741673  32.3434083  30.8340113   4.9641673  32.1054083
  36.2140113   7.4341673  38.5844083  36.9900113   7.0441673  38.6674083
  35.7450113   7.0981673  39.2394083  36.2590113   7.3271673  38.6934083
  31.1590113   6.4321673  25.1734083  30.9540113   7.2651673  25.0144083
  30.3840113   6.0501673  25.2954083  31.0140113   6.4991673  25.1684083
  26.5210113   6.6941673  21.5824083  26.9620113   6.7741673  22.3304083
  25.7160113   6.4781673  21.8404083  26.4670113   6.6741673  21.7314083
  35.4290113   8.4651673  25.1564083  35.2550113   7.8111673  25.7064083
  36.1420113   8.1941673  24.7334083  35.5090113   8.3281673  25.1754083
  23.8500113   5.7641673  22.1834083  23.6060113   5.4571673  22.9634083
  23.8170113   5.0611673  21.6674083  23.8090113   5.6151673  22.2224083
  26.6690113   4.0091673  20.9264083  25.8510113   3.7411673  21.0664083
  26.6410113   4.8611673  21.1114083  26.5440113   4.0961673  20.9744083
  33.1040113   5.9181673  32.8474083  33.3100113   6.2191673  33.6394083
  33.0430113   6.6401673  32.3624083  33.1250113   6.0691673  32.8924083
  32.6380113  10.1321673  37.0934083  31.8850113  10.1141673  36.6524083
  32.8060113  10.9841673  37.1774083  32.5520113  10.2551673  37.0404083
  37.9160113   4.5571673  32.3054083  37.8840113   3.6951673  32.1704083
  37.2230113   4.8591673  31.8714083  37.8090113   4.4741673  32.2214083
  26.3100113   9.7551673  36.5114083  26.3510113   9.8811673  37.3744083
  26.9610113   9.1951673  36.3554083  26.4120113   9.6911673  36.6164083
  36.0210113   7.8171673  31.1024083  36.5480113   7.7341673  30.4114083
  35.6300113   7.0391673  31.1564083  36.0410113   7.6901673  31.0084083
  23.9030113   8.1381673  37.8714083  24.4980113   8.5691673  38.3434083
  23.5390113   8.7621673  37.3824083  23.9370113   8.2941673  37.8684083
  21.8300113   6.1271673  34.8004083  21.2560113   6.5431673  35.3094083
  22.5630113   6.5921673  34.8954083  21.8540113   6.2571673  34.8894083
  23.6160113   9.3941673  23.5754083  23.4710113   9.5501673  22.7294083
  24.4820113   9.4731673  23.6534083  23.7230113   9.4291673  23.4624083
  27.7830113   1.7911673  23.3034083  27.8830113   1.9301673  22.4484083
  28.6010113   1.7311673  23.5994083  27.9180113   1.8021673  23.2204083
  36.9430113   9.8551673  20.7834083  37.5800113   9.7211673  21.3644083
  36.6020113   9.0611673  20.6664083  36.9870113   9.7181673  20.8514083
  37.1380113   2.2731673  37.5164083  37.7720113   2.1031673  38.0904083
  37.5550113   2.6761673  36.8644083  37.2930113   2.3081673  37.5054083
  33.0180113   6.1201673  23.1054083  32.7670113   5.9921673  23.9314083
  32.7010113   5.4251673  22.6844083  32.9340113   5.9991673  23.1654083
  34.5490113   2.3841673  38.8714083  35.4200113   2.3481673  38.8354083
  34.3300113   2.8041673  38.1394083  34.6460113   2.4401673  38.7584083
  24.3030113   8.2091673  30.0524083  24.2240113   7.3991673  29.7364083
  23.8590113   8.6961673  29.4804083  24.2260113   8.1611673  29.9214083
  29.9040113   4.3281673  22.5354083  30.6210113   3.9811673  22.1794083
  29.8700113   5.1281673  22.1874083  30.0050113   4.3951673  22.4314083
  21.8750113  10.4531673  33.6334083  22.3680113  10.3971673  34.3514083
  22.0630113   9.7201673  33.1984083  21.9760113  10.3361673  33.6754083
  20.9910113   4.0251673   6.9011673  20.5500113   4.1431673   7.6441673
  20.7080113   3.2501673   6.6161673  20.8840113   3.9281673   6.9691673
  37.2660113   7.3261673   4.4161673  37.9670113   6.8071673   4.4121673
  36.6790113   6.8811673   3.9471673  37.2830113   7.1831673   4.3461673
  23.8730113   3.0801673   2.0801673  23.4810113   2.7091673   1.3941673
  23.7930113   2.4821673   2.7091673  23.8030113   2.9371673   2.0711673
  23.5000113   4.7211673   5.9801673  24.1080113   4.5511673   6.5831673
  22.7490113   4.5811673   6.4011673  23.4790113   4.6751673   6.1311673
  22.3910113   7.8121673   2.0571673  22.8580113   7.8961673   1.3251673
  22.8460113   7.2341673   2.5261673  22.5270113   7.7391673   2.0181673
  20.9310113   6.7601673  13.1561673  21.0600113   6.4801673  13.9721673
  20.3210113   6.2191673  12.8471673  20.8600113   6.6391673  13.2311673
  27.5050113   4.2851673  18.2231673  27.2690113   4.2821673  19.0631673
  26.7570113   4.1371673  17.7991673  27.3590113   4.2621673  18.2841673
  27.4870113   7.4771673  15.4861673  27.6250113   8.2371673  15.0791673
  28.2780113   7.1121673  15.5131673  27.6240113   7.5361673  15.4301673
  28.5820113   5.3621673   9.9911673  28.9300113   4.5631673  10.0211673
  29.2470113   5.8661673   9.7361673  28.7320113   5.3181673   9.9581673
  28.6390113   4.8111673   6.2021673  28.9700113   4.1671673   6.6881673
  28.8790113   4.6001673   5.3911673  28.7230113   4.6851673   6.1541673
  20.7430113   8.7521673   8.2711673  20.1510113   9.3101673   7.9581673
  21.1690113   8.4831673   7.5591673  20.7190113   8.7941673   8.1201673
  26.5830113   6.5961673   5.7511673  26.0040113   6.3211673   6.3431673
  27.2070113   5.9871673   5.7761673  26.5900113   6.4661673   5.8421673
  32.7260113   8.8841673   3.2731673  33.4530113   9.3561673   3.3751673
  32.9550113   8.0901673   3.5531673  32.8680113   8.8371673   3.3301673
  30.8940113   9.2761673   5.2631673  31.1080113   9.8031673   5.9251673
  31.6610113   9.1021673   4.8841673  31.0390113   9.3281673   5.3051673
  22.2880113   7.4221673   6.2021673  22.9440113   6.8471673   6.2171673
  22.6770113   8.1711673   5.9811673  22.4430113   7.4471673   6.1721673
  33.3330113   9.2861673  13.5681673  34.0770113   9.7421673  13.5581673
  33.2120113   9.0721673  12.7311673  33.4250113   9.3221673  13.4431673
  23.1060113   5.9091673   9.7021673  23.5290113   5.5531673   9.0281673
  23.4300113   5.4871673  10.3941673  23.2160113   5.7941673   9.7051673
  26.3370113   8.7611673   8.9981673  27.1810113   8.8651673   8.8031673
  26.0400113   9.5791673   9.0661673  26.4180113   8.8971673   8.9791673
  34.9070113  10.4711673   3.6731673  35.5720113  10.3231673   3.1281673
  35.2670113  10.3881673   4.4631673  35.0590113  10.4371673   3.7091673
  25.3350113   9.9801673  14.7381673  25.6270113   9.9131673  15.5581673
  24.7090113   9.3751673  14.6931673  25.2860113   9.8811673  14.8531673
  32.5870113   6.4711673  17.2721673  32.5530113   6.8531673  18.0561673
  33.4410113   6.4291673  17.1011673  32.7080113   6.5211673  17.3631673
  29.7250113   6.6681673   2.0221673  29.5440113   7.2131673   2.6791673
  30.4910113   6.9581673   1.7211673  29.8110113   6.7921673   2.0751673
  23.3280113   8.1421673  13.8601673  22.6300113   7.6341673  13.9861673
  23.5880113   7.9371673  13.0521673  23.2630113   8.0371673  13.7591673
  31.0390113   9.6351673  14.7701673  31.8070113   9.5551673  14.3641673
  30.4560113   9.5141673  14.1321673  31.0660113   9.6051673  14.6161673
  37.3160113  10.2381673   7.6711673  36.8610113  10.9551673   7.8721673
  36.7020113   9.6671673   7.4291673  37.1580113  10.2601673   7.6651673
  34.3130113   6.0831673   7.2151673  35.0140113   5.6011673   7.4041673
  33.6530113   5.5141673   7.2601673  34.3190113   5.9281673   7.2491673
  24.6890113   6.9931673  16.4271673  25.5300113   7.0561673  16.2051673
  24.6520113   7.3901673  17.2031673  24.8080113   7.0611673  16.5091673
  26.6520113   2.5041673  11.1761673  26.8240113   2.2941673  12.0051673
  25.9970113   1.9701673  10.9601673  26.5810113   2.3941673  11.2671673
  27.4020113   2.4421673  13.7661673  27.4550113   3.2891673  13.9681673
  27.1170113   2.0721673  14.5031673  27.3680113   2.5121673  13.9041673
  33.5790113   3.1371673  12.8961673  33.0650113   2.7251673  13.4671673
  33.4530113   3.9811673  13.0771673  33.4850113   3.2011673  13.0071673
  20.2230113   6.8131673  19.9771673  20.9790113   7.1621673  20.2351673
  20.4000113   5.9601673  19.9201673  20.3610113   6.7381673  20.0071673
  36.8320113   3.5761673   3.0231673  36.9510113   3.2891673   3.8381673
  37.6390113   3.5971673   2.6931673  36.9680113   3.5371673   3.0951673
  23.9680113   3.3081673   8.3541673  24.8190113   3.2281673   8.1811673
  23.6110113   2.6261673   7.9421673  24.0410113   3.1951673   8.2671673
  22.7350113  10.0331673   9.5911673  22.0620113   9.5351673   9.3461673
  23.1380113  10.2181673   8.8401673  22.6950113   9.9871673   9.4441673
  39.0660113   8.0851673  17.2771673  38.3840113   8.3951673  16.8301673
  38.6970113   7.6271673  17.9221673  38.9100113   8.0631673  17.3061673
  26.3360113   3.3151673   6.5891673  27.0490113   3.8101673   6.6791673
  26.5580113   2.7481673   5.9631673  26.4740113   3.3041673   6.5101673
  20.4920113   4.9581673   9.9091673  19.8250113   5.4461673  10.1851673
  21.1720113   5.5031673   9.9381673  20.4940113   5.1101673   9.9541673
  30.8590113   7.0181673   8.9161673  30.3360113   7.6521673   8.6231673
  31.1690113   6.6541673   8.1871673  30.8270113   7.0581673   8.7651673
  20.7300113   5.8061673   4.5871673  21.2820113   6.3751673   4.9511673
  20.4980113   5.2911673   5.2521673  20.7770113   5.8141673   4.7391673
  24.9340113   4.8061673  11.6761673  25.4010113   5.0951673  12.3541673
  25.5060113   4.3281673  11.2221673  25.0880113   4.7781673  11.7091673
  20.5600113   4.2551673   2.2151673  21.3160113   3.8231673   2.2731673
  20.5750113   4.7871673   2.9061673  20.6740113   4.2701673   2.3261673
  21.5000113   2.4761673  10.2201673  21.9310113   2.3471673   9.4731673
  21.2950113   3.3241673  10.1941673  21.5330113   2.5821673  10.1061673
  36.9000113   8.4671673  15.3671673  36.2290113   8.9811673  15.5851673
  36.9630113   8.5671673  14.5031673  36.8100113   8.5581673  15.2721673
  25.5840113   5.9921673   8.5021673  25.7100113   6.8351673   8.6891673
  26.2520113   5.5931673   8.8981673  25.7020113   6.0581673   8.5881673
  28.8960113   9.2161673  12.9631673  28.6190113   8.5751673  12.4401673
  28.6880113   9.9421673  12.5251673  28.8250113   9.2291673  12.8211673
  34.1980113   3.9991673  17.3881673  34.6820113   4.7171673  17.4861673
  34.5920113   3.5721673  16.7371673  34.3280113   4.0421673  17.3061673
  28.4940113   6.8441673  18.5651673  28.8480113   6.6661673  19.3421673
  28.0580113   6.1151673  18.3661673  28.4820113   6.7101673  18.6511673
  36.6270113   4.6301673   7.4581673  36.9830113   4.2801673   8.1731673
  36.6190113   3.9691673   6.8881673  36.6790113   4.4801673   7.4791673
  32.6720113   7.6961673  11.3021673  32.0690113   7.4001673  10.7451673
  33.2170113   8.1481673  10.7931673  32.6630113   7.7191673  11.1441673
  32.6850113   4.5471673  10.7021673  31.8880113   4.7711673  10.9761673
  32.9430113   3.9531673  11.2871673  32.6050113   4.4921673  10.8291673
  26.5770113   9.3591673   5.1501673  26.4300113   8.5831673   5.5211673
  27.2660113   9.2121673   4.6351673  26.6570113   9.2221673   5.1291673
  28.8690113   8.8751673   3.5521673  29.4910113   9.0381673   4.1421673
  28.9050113   9.5661673   3.0201673  28.9660113   9.0011673   3.5611673
  35.9450113   2.5451673  15.5481673  36.0000113   2.6701673  14.6861673
  36.6980113   2.8651673  15.8501673  36.0640113   2.6101673  15.4651673
  32.1360113   7.8941673  19.8251673  32.3000113   8.1771673  20.6341673
  32.3990113   8.5551673  19.3201673  32.1990113   8.0341673  19.8701673
  31.6760113   2.3511673  15.1481673  31.5210113   2.9611673  15.7521673
  32.2100113   1.7931673  15.5541673  31.7320113   2.3591673  15.2971673
  35.2860113   5.0801673  11.6751673  34.8070113   5.3781673  11.0091673
  34.9300113   4.3041673  11.8531673  35.1630113   5.0091673  11.6031673
  29.2830113   2.7981673  10.2371673  28.4360113   2.6041673  10.3181673
  29.6070113   2.6331673  11.0301673  29.2050113   2.7451673  10.3661673
  23.1310113   2.4911673  12.5531673  23.8530113   2.9791673  12.5161673
  22.8610113   2.4611673  11.7241673  23.1980113   2.5591673  12.4251673
  38.9780113   9.2461673   3.6151673  39.6720113   8.7791673   3.3671673
  38.4390113   8.6481673   3.9521673  39.0010113   9.0881673   3.6281673
  22.5260113   3.5431673  16.8311673  22.1050113   3.0251673  16.2701673
  22.1740113   4.3291673  16.6881673  22.4120113   3.5831673  16.7271673
  37.4730113   2.0931673  10.2311673  37.1870113   2.4941673  10.9511673
  38.3330113   2.0311673  10.3581673  37.5580113   2.1431673  10.3561673
  38.6040113   7.7261673  10.7601673  38.8940113   7.9831673   9.9791673
  39.2990113   7.8221673  11.2791673  38.7500113   7.7781673  10.7211673
  35.2090113   6.3291673   2.7421673  35.5430113   5.5231673   2.7771673
  34.4540113   6.2571673   3.1721673  35.1470113   6.1991673   2.8111673
  38.1310113   4.1231673  16.1531673  38.7590113   3.5741673  15.8971673
  38.0700113   4.6881673  15.4911673  38.2150113   4.1261673  16.0171673
  32.5830113   4.2041673   2.1451673  33.2670113   3.6901673   1.9761673
  32.1660113   4.2501673   1.3801673  32.6220113   4.1351673   2.0071673
  27.2650113   5.3541673  13.4491673  26.9670113   5.9461673  14.0161673
  27.3200113   5.7961673  12.7001673  27.2290113   5.5071673  13.4221673
  25.2440113   4.3041673  16.8471673  24.4380113   4.0141673  17.0141673
  25.1550113   5.1721673  16.8531673  25.1120113   4.3891673  16.8721673
  29.7810113   1.7771673  12.9401673  30.2570113   2.1511673  13.5681673
  28.9580113   1.9111673  13.1991673  29.7300113   1.8521673  13.0711673
  29.0450113   9.1701673   8.1681673  29.5910113   9.8491673   8.2221673
  28.6950113   9.2521673   7.3731673  29.0740113   9.2831673   8.0581673
  27.2280113   7.3981673  11.5571673  26.6040113   7.9801673  11.3751673
  27.4760113   7.1121673  10.7711673  27.1720113   7.4421673  11.4141673
  31.5370113   4.0321673  18.5461673  32.2940113   4.3181673  18.2201673
  30.9900113   4.0841673  17.8681673  31.5680113   4.0821673  18.3971673
  35.4460113   6.5821673  17.0501673  35.7920113   6.8521673  17.8041673
  35.7400113   7.1641673  16.4701673  35.5410113   6.7081673  17.0761673
  29.8810113   9.0471673  17.4371673  30.3590113   8.4471673  17.0211673
  29.5300113   8.6041673  18.1021673  29.9000113   8.8931673  17.4741673
  36.4690113   2.3541673   5.6181673  36.9450113   1.6251673   5.5701673
  35.6480113   2.0681673   5.5421673  36.4180113   2.2041673   5.5991673
  29.9400113   4.2661673  16.4571673  29.1450113   4.2021673  16.8081673
  30.0110113   5.1131673  16.2621673  29.8330113   4.3811673  16.4801673
  25.7700113  10.4731673  11.7741673  25.7810113  10.5321673  12.6441673
  25.3450113   9.7261673  11.6241673  25.7090113  10.3711673  11.8801673
  32.6850113   3.5211673   7.9731673  32.7610113   3.8621673   8.7721673
  32.8540113   2.6741673   8.0941673  32.7210113   3.4461673   8.1091673
  30.2070113   2.7951673   7.5381673  29.9090113   2.4801673   8.2951673
  30.9020113   3.2681673   7.7731673  30.2660113   2.8181673   7.6851673
  30.4290113   6.9131673  15.5651673  31.1160113   6.7991673  16.0901673
  30.5630113   7.7041673  15.2211673  30.5500113   7.0131673  15.5921673
  22.5340113   9.9711673  17.2161673  21.8800113   9.4021673  17.3141673
  22.1590113  10.7441673  17.3671673  22.3820113  10.0011673  17.2531673
  34.1360113   9.7511673  10.0681673  33.6850113  10.3941673  10.4471673
  34.8440113   9.6721673  10.5731673  34.1740113   9.8341673  10.1991673
  30.8370113   4.8411673  12.9981673  30.1430113   5.2431673  13.3411673
  31.5140113   5.2741673  13.3371673  30.8340113   4.9641673  13.0991673
  36.2140113   7.4341673  19.5781673  36.9900113   7.0441673  19.6611673
  35.7450113   7.0981673  20.2331673  36.2590113   7.3271673  19.6871673
  31.1590113   6.4321673   6.1671673  30.9540113   7.2651673   6.0081673
  30.3840113   6.0501673   6.2891673  31.0140113   6.4991673   6.1621673
  26.5210113   6.6941673   2.5761673  26.9620113   6.7741673   3.3241673
  25.7160113   6.4781673   2.8341673  26.4670113   6.6741673   2.7251673
  35.4290113   8.4651673   6.1501673  35.2550113   7.8111673   6.7001673
  36.1420113   8.1941673   5.7271673  35.5090113   8.3281673   6.1691673
  23.8500113   5.7641673   3.1771673  23.6060113   5.4571673   3.9571673
  23.8170113   5.0611673   2.6611673  23.8090113   5.6151673   3.2161673
  26.6690113   4.0091673   1.9201673  25.8510113   3.7411673   2.0601673
  26.6410113   4.8611673   2.1051673  26.5440113   4.0961673   1.9681673
  33.1040113   5.9181673  13.8411673  33.3100113   6.2191673  14.6331673
  33.0430113   6.6401673  13.3561673  33.1250113   6.0691673  13.8861673
  32.6380113  10.1321673  18.0871673  31.8850113  10.1141673  17.6461673
  32.8060113  10.9841673  18.1711673  32.5520113  10.2551673  18.0341673
  37.9160113   4.5571673  13.2991673  37.8840113   3.6951673  13.1641673
  37.2230113   4.8591673  12.8651673  37.8090113   4.4741673  13.2151673
  26.3100113   9.7551673  17.5051673  26.3510113   9.8811673  18.3681673
  26.9610113   9.1951673  17.3491673  26.4120113   9.6911673  17.6101673
  36.0210113   7.8171673  12.0961673  36.5480113   7.7341673  11.4051673
  35.6300113   7.0391673  12.1501673  36.0410113   7.6901673  12.0021673
  23.9030113   8.1381673  18.8651673  24.4980113   8.5691673  19.3371673
  23.5390113   8.7621673  18.3761673  23.9370113   8.2941673  18.8621673
  21.8300113   6.1271673  15.7941673  21.2560113   6.5431673  16.3031673
  22.5630113   6.5921673  15.8891673  21.8540113   6.2571673  15.8831673
  23.6160113   9.3941673   4.5691673  23.4710113   9.5501673   3.7231673
  24.4820113   9.4731673   4.6471673  23.7230113   9.4291673   4.4561673
  27.7830113   1.7911673   4.2971673  27.8830113   1.9301673   3.4421673
  28.6010113   1.7311673   4.5931673  27.9180113   1.8021673   4.2141673
  36.9430113   9.8551673   1.7771673  37.5800113   9.7211673   2.3581673
  36.6020113   9.0611673   1.6601673  36.9870113   9.7181673   1.8451673
  37.1380113   2.2731673  18.5101673  37.7720113   2.1031673  19.0841673
  37.5550113   2.6761673  17.8581673  37.2930113   2.3081673  18.4991673
  33.0180113   6.1201673   4.0991673  32.7670113   5.9921673   4.9251673
  32.7010113   5.4251673   3.6781673  32.9340113   5.9991673   4.1591673
  34.5490113   2.3841673  19.8651673  35.4200113   2.3481673  19.8291673
  34.3300113   2.8041673  19.1331673  34.6460113   2.4401673  19.7521673
  24.3030113   8.2091673  11.0461673  24.2240113   7.3991673  10.7301673
  23.8590113   8.6961673  10.4741673  24.2260113   8.1611673  10.9151673
  29.9040113   4.3281673   3.5291673  30.6210113   3.9811673   3.1731673
  29.8700113   5.1281673   3.1811673  30.0050113   4.3951673   3.4251673
  21.8750113  10.4531673  14.6271673  22.3680113  10.3971673  15.3451673
  22.0630113   9.7201673  14.1921673  21.9760113  10.3361673  14.6691673
  12.4481673  66.8815993  63.7928903  12.2031673  67.3695993  63.1128903
  13.3111673  66.8085993  63.6928903  12.5391673  66.9425993  63.6778903
  12.2571673  73.7975993  68.4638903  11.7331673  74.3935993  68.8268903
  12.6541673  73.4295993  69.1478903  12.2381673  73.8315993  68.6188903
  14.9281673  74.8645993  65.1398903  15.0081673  74.8685993  64.2708903
  14.3441673  74.2325993  65.2888903  14.8531673  74.7715993  65.0338903
   8.9171673  67.9685993  62.9478903   8.8471673  68.6455993  62.4018903
   9.6581673  67.5805993  62.6988903   9.0161673  68.0115993  62.8298903
   3.5121673  75.1935993  64.3768903   3.0501673  74.8015993  63.7498903
   4.2121673  74.6805993  64.4688903   3.5471673  75.0605993  64.2978903
   8.0201673  70.8035993  69.7238903   8.6981673  70.8215993  69.1748903
   7.9751673  69.9675993  69.9688903   8.1131673  70.6825993  69.6788903
   5.5131673  73.2935993  64.3998903   6.3301673  73.1065993  64.6428903
   5.0361673  72.6795993  64.7958903   5.5631673  73.1755993  64.4948903
  11.7421673  72.8545993  74.5598903  10.8941673  72.7555993  74.3818903
  11.7711673  73.5995993  75.0138903  11.6211673  72.9505993  74.6008903
   6.1101673  68.3875993  63.6658903   5.8141673  68.8885993  63.0158903
   6.9771673  68.4655993  63.6088903   6.1941673  68.4735993  63.5618903
  16.3001673  65.8145993  73.6738903  16.1421673  66.5835993  73.2918903
  15.5281673  65.5945993  74.0178903  16.1621673  65.8955993  73.6688903
   9.0891673  67.5295993  65.8888903   9.1621673  68.3895993  66.0178903
   9.0511673  67.4545993  65.0208903   9.0941673  67.6455993  65.7798903
  13.7621673  70.4555993  58.1878903  13.3121673  71.1365993  58.4948903
  13.8761673  69.9515993  58.8908903  13.7131673  70.4815993  58.3368903
   4.9971673  67.7715993  67.8808903   4.4761673  67.1435993  67.5728903
   5.5881673  67.3345993  68.3518903   5.0081673  67.6135993  67.9048903
  19.1561673  70.4285993  64.4828903  18.8101673  71.1065993  64.9088903
  18.5201673  69.8305993  64.4988903  19.0111673  70.4405993  64.5478903
   4.0361673  69.5015993  76.1628903   3.2581673  69.1115993  76.0908903
   4.5271673  69.0895993  75.5718903   3.9931673  69.3825993  76.0648903
  10.6851673  67.1445993  75.3308903  10.8631673  66.3355993  75.0558903
  10.5421673  67.5855993  74.5918903  10.6901673  67.0905993  75.1808903
  11.2791673  72.0705993  64.1038903  11.5661673  71.8385993  63.3138903
  12.0111673  72.1495993  64.5728903  11.4291673  72.0475993  64.0568903
  12.0011673  72.4095993  59.2248903  12.2821673  73.1975993  59.4738903
  11.2251673  72.5745993  58.8618903  11.9281673  72.5505993  59.2078903
  18.8311673  68.7515993  69.8518903  19.5881673  68.8235993  69.4238903
  18.8941673  67.9785993  70.2508903  18.9521673  68.6485993  69.8468903
  14.3671673  68.4765993  60.0948903  14.9071673  67.7945993  60.1708903
  14.4291673  68.8745993  60.8688903  14.4561673  68.4345993  60.2208903
   2.3211673  69.6445993  62.6638903   2.2071673  68.7805993  62.6948903
   1.8461673  69.9385993  63.3338903   2.2341673  69.5605993  62.7668903
  11.6251673  70.8525993  61.4088903  11.1171673  70.1905993  61.1548903
  11.6771673  71.3565993  60.6988903  11.5581673  70.8295993  61.2668903
  11.6251673  67.7935993  61.2998903  11.1701673  67.3915993  60.6738903
  12.3981673  67.9485993  60.9248903  11.6721673  67.7575993  61.1518903
  10.2231673  70.1605993  65.8218903  10.2971673  70.7285993  65.1638903
  10.3441673  70.6525993  66.5318903  10.2511673  70.3175993  65.8298903
   4.8311673  65.9835993  64.1698903   5.3671673  66.6715993  64.1598903
   4.8341673  65.7095993  63.3418903   4.9101673  66.0445993  64.0458903
  14.0151673  70.3305993  71.7098903  13.9201673  70.6495993  72.5158903
  13.4221673  69.6915993  71.6718903  13.9131673  70.2825993  71.8238903
  15.2711673  66.2745993  64.5458903  15.3201673  65.9565993  65.3568903
  15.5941673  65.6305993  64.0528903  15.3261673  66.1325993  64.5928903
  17.7351673  70.5105993  72.8538903  18.5071673  70.2855993  73.1908903
  17.2601673  70.7275993  73.5538903  17.7791673  70.5095993  73.0068903
   5.2791673  69.7935993  65.8238903   5.5511673  69.3635993  65.1158903
   5.1031673  69.1575993  66.3948903   5.2931673  69.6365993  65.8038903
   3.4201673  70.8955993  68.9058903   4.2631673  71.1155993  68.8628903
   3.0311673  71.4685993  68.3748903   3.4871673  71.0125993  68.8208903
  15.8621673  74.0255993  59.6268903  15.6421673  74.7565993  59.2048903
  15.4141673  74.0765993  60.3738903  15.7631673  74.1405993  59.6748903
  20.0491673  68.8865993  59.0798903  19.3871673  68.3185993  59.1028903
  19.8561673  69.3985993  58.3998903  19.9231673  68.8785993  58.9828903
  20.3721673  73.2645993  71.6358903  20.5871673  72.4645993  71.3598903
  19.5221673  73.3245993  71.4468903  20.2781673  73.1555993  71.5668903
  18.0511673  68.4445993  61.3588903  18.7971673  68.0375993  61.5578903
  18.3141673  69.1595993  60.9338903  18.2001673  68.4905993  61.3258903
  14.5051673  70.7325993  66.4318903  14.8491673  70.8845993  67.2188903
  14.0521673  69.9945993  66.5448903  14.4891673  70.6455993  66.5648903
   8.9811673  69.9525993  60.8888903   8.9791673  69.8355993  60.0238903
   8.8001673  70.8005993  60.9808903   8.9541673  70.0605993  60.7748903
   4.8491673  73.3875993  75.3828903   4.3131673  72.8815993  75.8508903
   4.8691673  72.9975993  74.6028903   4.7721673  73.2545993  75.3368903
   5.3341673  72.7845993  60.5228903   5.2061673  72.3365993  61.2608903
   4.7521673  72.4425993  59.9708903   5.2291673  72.6675993  60.5508903
   5.5011673  74.6145993  67.1218903   4.7201673  74.5555993  66.7388903
   5.5731673  73.8625993  67.5588903   5.3961673  74.4955993  67.1298903
   5.9311673  74.3515993  70.5898903   5.9561673  73.6765993  70.0388903
   5.2851673  74.8475993  70.2778903   5.8401673  74.3245993  70.4628903
  15.8261673  72.0645993  68.9858903  15.1641673  72.3925993  69.4488903
  16.0131673  72.6985993  68.4168903  15.7561673  72.2065993  68.9698903
  12.4711673  67.9705993  72.4148903  12.6201673  67.1455993  72.1718903
  12.8501673  68.0255993  73.1988903  12.5491673  67.8565993  72.4948903
  14.0191673  70.0335993  62.4968903  14.5091673  70.7505993  62.4198903
  13.2291673  70.2945993  62.2338903  13.9751673  70.1775993  62.4468903
  10.6011673  71.5035993  68.2218903  11.0811673  72.2025993  68.4298903
  10.9741673  70.8565993  68.6728903  10.7271673  71.5115993  68.3188903
  12.7901673  74.6725993  60.4958903  12.7821673  75.3945993  60.0058903
  12.1511673  74.8075993  61.0728903  12.6951673  74.7995993  60.5088903
   7.3831673  67.0145993  60.1568903   7.4801673  66.9075993  61.0178903
   6.6751673  67.5205993  60.0918903   7.2931673  67.0735993  60.2748903
  18.1121673  66.7555993  75.5538903  17.4751673  66.3555993  75.1118903
  18.1381673  66.3245993  76.3118903  18.0221673  66.6335993  75.5998903
  11.1951673  74.6635993  62.8248903  11.2541673  75.3135993  63.4038903
  11.0061673  73.9675993  63.3158903  11.1761673  74.6565993  62.9828903
   5.6911673  69.1805993  59.3368903   5.1801673  69.2335993  58.6308903
   6.4751673  69.4205993  59.0408903   5.7311673  69.2235993  59.1888903
   7.4961673  71.5745993  66.3068903   8.3421673  71.3845993  66.4048903
   7.1261673  70.7975993  66.1688903   7.5661673  71.4315993  66.3008903
   2.3171673  72.9125993  62.9618903   2.8061673  72.6205993  63.6228903
   2.4461673  72.3195993  62.3348903   2.4081673  72.7815993  62.9668903
   6.8421673  74.3465993  58.4478903   6.2321673  73.9415993  58.9218903
   6.4561673  74.4645993  57.6748903   6.6951673  74.3035993  58.4038903
   8.2971673  72.8075993  61.1578903   8.5691673  73.6335993  61.2248903
   7.4341673  72.8825993  61.0618903   8.2101673  72.9405993  61.1528903
  16.2701673  69.9295993  75.7898903  15.7451673  70.3885993  76.3138903
  15.9091673  69.1345993  75.7838903  16.1391673  69.8795993  75.8658903
   1.7771673  68.7775993  67.6938903   1.8211673  69.1215993  66.8928903
   2.5321673  69.0145993  68.0608903   1.8951673  68.8635993  67.6298903
  14.7621673  73.4985993  75.8658903  14.8351673  73.6025993  76.7288903
  14.1281673  74.0565993  75.6448903  14.6791673  73.5965993  75.9608903
  17.0301673  73.8175993  74.2308903  17.3491673  74.6035993  74.4338903
  16.6601673  73.5475993  74.9738903  17.0231673  73.8935993  74.3708903
  16.8261673  72.0755993  65.4198903  16.0811673  71.7525993  65.7378903
  16.8281673  72.9015993  65.6998903  16.7161673  72.1495993  65.5078903
  15.7381673  68.4055993  72.8808903  16.4821673  68.8575993  72.8178903
  15.1721673  68.8755993  72.4118903  15.7651673  68.5425993  72.8028903
   7.6261673  71.2925993  72.6998903   7.7871673  70.5485993  73.1268903
   7.5811673  71.0435993  71.8648903   7.6431673  71.1455993  72.6398903
  17.0231673  66.3855993  70.5508903  16.7431673  67.2105993  70.5068903
  17.7391673  66.4385993  71.0468903  17.0881673  66.5155993  70.6178903
   9.3781673  67.1005993  72.5798903  10.0831673  67.4205993  72.1778903
   9.6191673  66.2935993  72.8068903   9.5171673  67.0285993  72.5538903
  18.4441673  72.6405993  59.4078903  18.8221673  73.3175993  59.0078903
  17.6021673  72.8645993  59.4388903  18.3751673  72.7735993  59.3528903
   5.8871673  72.1535993  68.6408903   6.3271673  72.0505993  67.8948903
   6.4321673  71.8405993  69.2458903   6.0321673  72.0925993  68.6198903
  13.9031673  71.2555993  74.2328903  13.2551673  71.7255993  74.5808903
  14.4681673  71.1665993  74.8918903  13.8911673  71.3115993  74.3818903
  13.5911673  72.7925993  70.5308903  13.8931673  73.2125993  71.2338903
  13.6271673  71.9525993  70.7628903  13.6411673  72.7305993  70.6688903
  16.1391673  72.2395993  62.7828903  16.3461673  72.0385993  63.6068903
  16.8951673  72.5075993  62.4408903  16.2811673  72.2495993  62.8538903
   9.4341673  67.1385993  68.6878903   8.6081673  66.9895993  68.9248903
   9.3941673  67.1735993  67.8168903   9.3061673  67.1215993  68.5938903
  17.1611673  68.3225993  64.2568903  16.4471673  67.8515993  64.4278903
  16.9991673  68.6635993  63.4708903  17.0321673  68.3035993  64.1658903
   5.0631673  70.2805993  61.9478903   5.1891673  69.9515993  61.1498903
   4.2511673  70.0315993  62.1468903   4.9621673  70.1955993  61.8598903
  19.7401673  73.4345993  74.3948903  18.8851673  73.3125993  74.5208903
  19.8931673  73.0395993  73.6318903  19.6361673  73.3575993  74.3008903
  14.2531673  74.0995993  72.9708903  13.9981673  73.3805993  73.3928903
  15.0741673  74.2155993  73.2408903  14.3371673  74.0105993  73.0728903
   5.0401673  72.2915993  72.3638903   5.4151673  72.9105993  71.8768903
   5.7141673  71.8175993  72.6488903   5.1951673  72.3135993  72.3338903
   2.8151673  70.7395993  71.6388903   2.8921673  70.5705993  70.7858903
   3.5611673  71.1455993  71.8358903   2.9361673  70.7745993  71.5418903
  18.3741673  73.3795993  62.0788903  18.4771673  73.3215993  61.2148903
  19.1151673  73.0475993  62.3968903  18.4991673  73.3225993  61.9978903
   5.3691673  68.1495993  74.0498903   5.2881673  67.3055993  74.2558903
   5.0551673  68.1935993  73.2368903   5.3111673  68.0315993  73.9598903
  17.4761673  73.5255993  71.4348903  17.4741673  72.6625993  71.5588903
  17.5431673  73.8495993  72.2418903  17.4861673  73.4455993  71.5718903
   3.6681673  71.9015993  58.4808903   2.9961673  71.9155993  59.0368903
   3.7631673  71.0535993  58.2968903   3.5831673  71.7785993  58.5358903
  13.3551673  68.3255993  75.2168903  13.4471673  69.0375993  75.7108903
  12.7181673  67.8805993  75.6138903  13.2741673  68.3645993  75.3488903
  12.3491673  68.5155993  66.0708903  11.6491673  69.0335993  66.0148903
  12.3871673  68.1355993  65.2868903  12.2511673  68.5365993  65.9468903
  15.9471673  69.0315993  68.8708903  16.8021673  69.1305993  69.0158903
  15.5781673  69.5845993  69.4358903  16.0191673  69.1285993  68.9758903
  16.2511673  74.3115993  67.3618903  16.9171673  74.8525993  67.5218903
  15.9061673  74.6225993  66.6228903  16.2981673  74.4375993  67.2768903
   7.4041673  68.2345993  70.6978903   6.5401673  68.3185993  70.7778903
   7.6241673  67.7205993  71.3668903   7.3091673  68.1715993  70.8088903
  19.4221673  66.8695993  72.0268903  19.3701673  66.8255993  72.8968903
  20.1091673  66.3665993  71.8368903  19.5161673  66.7895993  72.1268903
  11.5071673  68.9825993  69.0718903  10.7701673  68.5285993  69.1848903
  12.0781673  68.5805993  69.5948903  11.4821673  68.8555993  69.1658903
   9.0101673  73.3115993  74.2758903   8.6881673  72.7355993  73.7058903
   8.6511673  74.0665993  74.0298903   8.9101673  73.3375993  74.1558903
   9.8061673  66.5635993  58.9028903   9.8841673  66.8105993  58.0698903
   9.0631673  66.9405993  59.1608903   9.7081673  66.6555993  58.8178903
   4.6241673  68.3175993  71.3458903   4.2811673  67.5505993  71.1118903
   3.9291673  68.8415993  71.4098903   4.4711673  68.2815993  71.3208903
  13.6701673  67.1735993  68.3228903  14.3401673  67.7175993  68.4498903
  13.1671673  67.5975993  67.7498903  13.6951673  67.3165993  68.2568903
  13.0291673  72.9815993  65.8158903  13.5801673  72.3745993  66.1158903
  12.6041673  73.2445993  66.5308903  13.0481673  72.9305993  65.9648903
   3.2771673  71.6315993  65.3018903   2.9091673  71.9335993  66.0328903
   3.8111673  71.0025993  65.5858903   3.3011673  71.5835993  65.4518903
  14.9991673  74.8125993  62.3778903  15.0671673  73.9625993  62.5588903
  14.1761673  74.8985993  62.0998903  14.8871673  74.6995993  62.3638903
  18.8981673  70.7495993  76.2668903  18.7021673  71.3935993  76.8218903
  18.1761673  70.2595993  76.2588903  18.7631673  70.7725993  76.3478903
  18.7971673  71.6905993  69.2378903  17.9641673  71.9405993  69.1658903
  18.7411673  70.8505993  69.4668903  18.6661673  71.6035993  69.2608903
   8.0571673  68.6785993  74.4318903   8.2911673  68.1025993  73.8188903
   7.2151673  68.4975993  74.5728903   7.9671673  68.5665993  74.3618903
  12.4481673  66.8815993  44.7866493  12.2031673  67.3695993  44.1066493
  13.3111673  66.8085993  44.6866493  12.5391673  66.9425993  44.6716493
  12.2571673  73.7975993  49.4576493  11.7331673  74.3935993  49.8206493
  12.6541673  73.4295993  50.1416493  12.2381673  73.8315993  49.6126493
  14.9281673  74.8645993  46.1336493  15.0081673  74.8685993  45.2646493
  14.3441673  74.2325993  46.2826493  14.8531673  74.7715993  46.0276493
   8.9171673  67.9685993  43.9416493   8.8471673  68.6455993  43.3956493
   9.6581673  67.5805993  43.6926493   9.0161673  68.0115993  43.8236493
   3.5121673  75.1935993  45.3706493   3.0501673  74.8015993  44.7436493
   4.2121673  74.6805993  45.4626493   3.5471673  75.0605993  45.2916493
   8.0201673  70.8035993  50.7176493   8.6981673  70.8215993  50.1686493
   7.9751673  69.9675993  50.9626493   8.1131673  70.6825993  50.6726493
   5.5131673  73.2935993  45.3936493   6.3301673  73.1065993  45.6366493
   5.0361673  72.6795993  45.7896493   5.5631673  73.1755993  45.4886493
  11.7421673  72.8545993  55.5536493  10.8941673  72.7555993  55.3756493
  11.7711673  73.5995993  56.0076493  11.6211673  72.9505993  55.5946493
   6.1101673  68.3875993  44.6596493   5.8141673  68.8885993  44.0096493
   6.9771673  68.4655993  44.6026493   6.1941673  68.4735993  44.5556493
  16.3001673  65.8145993  54.6676493  16.1421673  66.5835993  54.2856493
  15.5281673  65.5945993  55.0116493  16.1621673  65.8955993  54.6626493
   9.0891673  67.5295993  46.8826493   9.1621673  68.3895993  47.0116493
   9.0511673  67.4545993  46.0146493   9.0941673  67.6455993  46.7736493
  13.7621673  70.4555993  39.1816493  13.3121673  71.1365993  39.4886493
  13.8761673  69.9515993  39.8846493  13.7131673  70.4815993  39.3306493
   4.9971673  67.7715993  48.8746493   4.4761673  67.1435993  48.5666493
   5.5881673  67.3345993  49.3456493   5.0081673  67.6135993  48.8986493
   8.3031673  69.9045993  58.1726493   8.4201673  69.4505993  57.4366493
   8.5911673  70.7025993  57.9696493   8.3631673  69.9555993  58.0336493
  19.1561673  70.4285993  45.4766493  18.8101673  71.1065993  45.9026493
  18.5201673  69.8305993  45.4926493  19.0111673  70.4405993  45.5416493
   4.0361673  69.5015993  57.1566493   3.2581673  69.1115993  57.0846493
   4.5271673  69.0895993  56.5656493   3.9931673  69.3825993  57.0586493
  10.6851673  67.1445993  56.3246493  10.8631673  66.3355993  56.0496493
  10.5421673  67.5855993  55.5856493  10.6901673  67.0905993  56.1746493
  11.2791673  72.0705993  45.0976493  11.5661673  71.8385993  44.3076493
  12.0111673  72.1495993  45.5666493  11.4291673  72.0475993  45.0506493
  12.0011673  72.4095993  40.2186493  12.2821673  73.1975993  40.4676493
  11.2251673  72.5745993  39.8556493  11.9281673  72.5505993  40.2016493
  18.8311673  68.7515993  50.8456493  19.5881673  68.8235993  50.4176493
  18.8941673  67.9785993  51.2446493  18.9521673  68.6485993  50.8406493
  14.3671673  68.4765993  41.0886493  14.9071673  67.7945993  41.1646493
  14.4291673  68.8745993  41.8626493  14.4561673  68.4345993  41.2146493
   2.3211673  69.6445993  43.6576493   2.2071673  68.7805993  43.6886493
   1.8461673  69.9385993  44.3276493   2.2341673  69.5605993  43.7606493
  11.6251673  70.8525993  42.4026493  11.1171673  70.1905993  42.1486493
  11.6771673  71.3565993  41.6926493  11.5581673  70.8295993  42.2606493
  11.6251673  67.7935993  42.2936493  11.1701673  67.3915993  41.6676493
  12.3981673  67.9485993  41.9186493  11.6721673  67.7575993  42.1456493
  10.2231673  70.1605993  46.8156493  10.2971673  70.7285993  46.1576493
  10.3441673  70.6525993  47.5256493  10.2511673  70.3175993  46.8236493
   4.8311673  65.9835993  45.1636493   5.3671673  66.6715993  45.1536493
   4.8341673  65.7095993  44.3356493   4.9101673  66.0445993  45.0396493
  14.0151673  70.3305993  52.7036493  13.9201673  70.6495993  53.5096493
  13.4221673  69.6915993  52.6656493  13.9131673  70.2825993  52.8176493
  15.2711673  66.2745993  45.5396493  15.3201673  65.9565993  46.3506493
  15.5941673  65.6305993  45.0466493  15.3261673  66.1325993  45.5866493
  17.7351673  70.5105993  53.8476493  18.5071673  70.2855993  54.1846493
  17.2601673  70.7275993  54.5476493  17.7791673  70.5095993  54.0006493
   5.2791673  69.7935993  46.8176493   5.5511673  69.3635993  46.1096493
   5.1031673  69.1575993  47.3886493   5.2931673  69.6365993  46.7976493
   3.4201673  70.8955993  49.8996493   4.2631673  71.1155993  49.8566493
   3.0311673  71.4685993  49.3686493   3.4871673  71.0125993  49.8146493
  15.8621673  74.0255993  40.6206493  15.6421673  74.7565993  40.1986493
  15.4141673  74.0765993  41.3676493  15.7631673  74.1405993  40.6686493
  20.0491673  68.8865993  40.0736493  19.3871673  68.3185993  40.0966493
  19.8561673  69.3985993  39.3936493  19.9231673  68.8785993  39.9766493
   9.2741673  72.5805993  58.0176493   8.7901673  73.1575993  58.4596493
   9.2461673  72.8755993  57.1966493   9.1981673  72.7095993  57.9616493
  20.3721673  73.2645993  52.6296493  20.5871673  72.4645993  52.3536493
  19.5221673  73.3245993  52.4406493  20.2781673  73.1555993  52.5606493
  18.0511673  68.4445993  42.3526493  18.7971673  68.0375993  42.5516493
  18.3141673  69.1595993  41.9276493  18.2001673  68.4905993  42.3196493
  14.5051673  70.7325993  47.4256493  14.8491673  70.8845993  48.2126493
  14.0521673  69.9945993  47.5386493  14.4891673  70.6455993  47.5586493
   8.9811673  69.9525993  41.8826493   8.9791673  69.8355993  41.0176493
   8.8001673  70.8005993  41.9746493   8.9541673  70.0605993  41.7686493
   4.8491673  73.3875993  56.3766493   4.3131673  72.8815993  56.8446493
   4.8691673  72.9975993  55.5966493   4.7721673  73.2545993  56.3306493
   5.3341673  72.7845993  41.5166493   5.2061673  72.3365993  42.2546493
   4.7521673  72.4425993  40.9646493   5.2291673  72.6675993  41.5446493
   5.5011673  74.6145993  48.1156493   4.7201673  74.5555993  47.7326493
   5.5731673  73.8625993  48.5526493   5.3961673  74.4955993  48.1236493
   5.9311673  74.3515993  51.5836493   5.9561673  73.6765993  51.0326493
   5.2851673  74.8475993  51.2716493   5.8401673  74.3245993  51.4566493
  15.8261673  72.0645993  49.9796493  15.1641673  72.3925993  50.4426493
  16.0131673  72.6985993  49.4106493  15.7561673  72.2065993  49.9636493
  12.4711673  67.9705993  53.4086493  12.6201673  67.1455993  53.1656493
  12.8501673  68.0255993  54.1926493  12.5491673  67.8565993  53.4886493
  14.0191673  70.0335993  43.4906493  14.5091673  70.7505993  43.4136493
  13.2291673  70.2945993  43.2276493  13.9751673  70.1775993  43.4406493
  10.6011673  71.5035993  49.2156493  11.0811673  72.2025993  49.4236493
  10.9741673  70.8565993  49.6666493  10.7271673  71.5115993  49.3126493
  12.7901673  74.6725993  41.4896493  12.7821673  75.3945993  40.9996493
  12.1511673  74.8075993  42.0666493  12.6951673  74.7995993  41.5026493
   7.3831673  67.0145993  41.1506493   7.4801673  66.9075993  42.0116493
   6.6751673  67.5205993  41.0856493   7.2931673  67.0735993  41.2686493
  18.1121673  66.7555993  56.5476493  17.4751673  66.3555993  56.1056493
  18.1381673  66.3245993  57.3056493  18.0221673  66.6335993  56.5936493
  11.1951673  74.6635993  43.8186493  11.2541673  75.3135993  44.3976493
  11.0061673  73.9675993  44.3096493  11.1761673  74.6565993  43.9766493
   5.6911673  69.1805993  40.3306493   5.1801673  69.2335993  39.6246493
   6.4751673  69.4205993  40.0346493   5.7311673  69.2235993  40.1826493
   7.4961673  71.5745993  47.3006493   8.3421673  71.3845993  47.3986493
   7.1261673  70.7975993  47.1626493   7.5661673  71.4315993  47.2946493
   2.3171673  72.9125993  43.9556493   2.8061673  72.6205993  44.6166493
   2.4461673  72.3195993  43.3286493   2.4081673  72.7815993  43.9606493
   6.8421673  74.3465993  39.4416493   6.2321673  73.9415993  39.9156493
   6.4561673  74.4645993  38.6686493   6.6951673  74.3035993  39.3976493
   8.2971673  72.8075993  42.1516493   8.5691673  73.6335993  42.2186493
   7.4341673  72.8825993  42.0556493   8.2101673  72.9405993  42.1466493
  16.2701673  69.9295993  56.7836493  15.7451673  70.3885993  57.3076493
  15.9091673  69.1345993  56.7776493  16.1391673  69.8795993  56.8596493
   1.7771673  68.7775993  48.6876493   1.8211673  69.1215993  47.8866493
   2.5321673  69.0145993  49.0546493   1.8951673  68.8635993  48.6236493
  14.7621673  73.4985993  56.8596493  14.8351673  73.6025993  57.7226493
  14.1281673  74.0565993  56.6386493  14.6791673  73.5965993  56.9546493
  17.0301673  73.8175993  55.2246493  17.3491673  74.6035993  55.4276493
  16.6601673  73.5475993  55.9676493  17.0231673  73.8935993  55.3646493
  16.8261673  72.0755993  46.4136493  16.0811673  71.7525993  46.7316493
  16.8281673  72.9015993  46.6936493  16.7161673  72.1495993  46.5016493
  19.7281673  74.3595993  57.9596493  19.6761673  74.0185993  57.1586493
  20.4651673  74.8265993  57.9376493  19.8291673  74.3785993  57.8376493
  15.7381673  68.4055993  53.8746493  16.4821673  68.8575993  53.8116493
  15.1721673  68.8755993  53.4056493  15.7651673  68.5425993  53.7966493
   7.6261673  71.2925993  53.6936493   7.7871673  70.5485993  54.1206493
   7.5811673  71.0435993  52.8586493   7.6431673  71.1455993  53.6336493
  17.0231673  66.3855993  51.5446493  16.7431673  67.2105993  51.5006493
  17.7391673  66.4385993  52.0406493  17.0881673  66.5155993  51.6116493
   9.3781673  67.1005993  53.5736493  10.0831673  67.4205993  53.1716493
   9.6191673  66.2935993  53.8006493   9.5171673  67.0285993  53.5476493
  18.4441673  72.6405993  40.4016493  18.8221673  73.3175993  40.0016493
  17.6021673  72.8645993  40.4326493  18.3751673  72.7735993  40.3466493
   5.8871673  72.1535993  49.6346493   6.3271673  72.0505993  48.8886493
   6.4321673  71.8405993  50.2396493   6.0321673  72.0925993  49.6136493
  13.9031673  71.2555993  55.2266493  13.2551673  71.7255993  55.5746493
  14.4681673  71.1665993  55.8856493  13.8911673  71.3115993  55.3756493
  13.5911673  72.7925993  51.5246493  13.8931673  73.2125993  52.2276493
  13.6271673  71.9525993  51.7566493  13.6411673  72.7305993  51.6626493
  16.1391673  72.2395993  43.7766493  16.3461673  72.0385993  44.6006493
  16.8951673  72.5075993  43.4346493  16.2811673  72.2495993  43.8476493
   9.4341673  67.1385993  49.6816493   8.6081673  66.9895993  49.9186493
   9.3941673  67.1735993  48.8106493   9.3061673  67.1215993  49.5876493
  17.1611673  68.3225993  45.2506493  16.4471673  67.8515993  45.4216493
  16.9991673  68.6635993  44.4646493  17.0321673  68.3035993  45.1596493
   5.0631673  70.2805993  42.9416493   5.1891673  69.9515993  42.1436493
   4.2511673  70.0315993  43.1406493   4.9621673  70.1955993  42.8536493
  19.7401673  73.4345993  55.3886493  18.8851673  73.3125993  55.5146493
  19.8931673  73.0395993  54.6256493  19.6361673  73.3575993  55.2946493
  14.2531673  74.0995993  53.9646493  13.9981673  73.3805993  54.3866493
  15.0741673  74.2155993  54.2346493  14.3371673  74.0105993  54.0666493
   5.0401673  72.2915993  53.3576493   5.4151673  72.9105993  52.8706493
   5.7141673  71.8175993  53.6426493   5.1951673  72.3135993  53.3276493
   2.8151673  70.7395993  52.6326493   2.8921673  70.5705993  51.7796493
   3.5611673  71.1455993  52.8296493   2.9361673  70.7745993  52.5356493
  18.3741673  73.3795993  43.0726493  18.4771673  73.3215993  42.2086493
  19.1151673  73.0475993  43.3906493  18.4991673  73.3225993  42.9916493
   5.3691673  68.1495993  55.0436493   5.2881673  67.3055993  55.2496493
   5.0551673  68.1935993  54.2306493   5.3111673  68.0315993  54.9536493
  17.4761673  73.5255993  52.4286493  17.4741673  72.6625993  52.5526493
  17.5431673  73.8495993  53.2356493  17.4861673  73.4455993  52.5656493
   3.6681673  71.9015993  39.4746493   2.9961673  71.9155993  40.0306493
   3.7631673  71.0535993  39.2906493   3.5831673  71.7785993  39.5296493
  13.3551673  68.3255993  56.2106493  13.4471673  69.0375993  56.7046493
  12.7181673  67.8805993  56.6076493  13.2741673  68.3645993  56.3426493
  12.3491673  68.5155993  47.0646493  11.6491673  69.0335993  47.0086493
  12.3871673  68.1355993  46.2806493  12.2511673  68.5365993  46.9406493
  15.9471673  69.0315993  49.8646493  16.8021673  69.1305993  50.0096493
  15.5781673  69.5845993  50.4296493  16.0191673  69.1285993  49.9696493
  16.2511673  74.3115993  48.3556493  16.9171673  74.8525993  48.5156493
  15.9061673  74.6225993  47.6166493  16.2981673  74.4375993  48.2706493
   7.4041673  68.2345993  51.6916493   6.5401673  68.3185993  51.7716493
   7.6241673  67.7205993  52.3606493   7.3091673  68.1715993  51.8026493
  19.4221673  66.8695993  53.0206493  19.3701673  66.8255993  53.8906493
  20.1091673  66.3665993  52.8306493  19.5161673  66.7895993  53.1206493
  11.5071673  68.9825993  50.0656493  10.7701673  68.5285993  50.1786493
  12.0781673  68.5805993  50.5886493  11.4821673  68.8555993  50.1596493
   9.0101673  73.3115993  55.2696493   8.6881673  72.7355993  54.6996493
   8.6511673  74.0665993  55.0236493   8.9101673  73.3375993  55.1496493
   9.8061673  66.5635993  39.8966493   9.8841673  66.8105993  39.0636493
   9.0631673  66.9405993  40.1546493   9.7081673  66.6555993  39.8116493
   4.6241673  68.3175993  52.3396493   4.2811673  67.5505993  52.1056493
   3.9291673  68.8415993  52.4036493   4.4711673  68.2815993  52.3146493
  13.6701673  67.1735993  49.3166493  14.3401673  67.7175993  49.4436493
  13.1671673  67.5975993  48.7436493  13.6951673  67.3165993  49.2506493
  13.0291673  72.9815993  46.8096493  13.5801673  72.3745993  47.1096493
  12.6041673  73.2445993  47.5246493  13.0481673  72.9305993  46.9586493
   3.2771673  71.6315993  46.2956493   2.9091673  71.9335993  47.0266493
   3.8111673  71.0025993  46.5796493   3.3011673  71.5835993  46.4456493
  14.9991673  74.8125993  43.3716493  15.0671673  73.9625993  43.5526493
  14.1761673  74.8985993  43.0936493  14.8871673  74.6995993  43.3576493
  18.8981673  70.7495993  57.2606493  18.7021673  71.3935993  57.8156493
  18.1761673  70.2595993  57.2526493  18.7631673  70.7725993  57.3416493
  18.7971673  71.6905993  50.2316493  17.9641673  71.9405993  50.1596493
  18.7411673  70.8505993  50.4606493  18.6661673  71.6035993  50.2546493
   8.0571673  68.6785993  55.4256493   8.2911673  68.1025993  54.8126493
   7.2151673  68.4975993  55.5666493   7.9671673  68.5665993  55.3556493
  12.4481673  66.8815993  25.7804083  12.2031673  67.3695993  25.1004083
  13.3111673  66.8085993  25.6804083  12.5391673  66.9425993  25.6654083
  12.2571673  73.7975993  30.4514083  11.7331673  74.3935993  30.8144083
  12.6541673  73.4295993  31.1354083  12.2381673  73.8315993  30.6064083
  14.9281673  74.8645993  27.1274083  15.0081673  74.8685993  26.2584083
  14.3441673  74.2325993  27.2764083  14.8531673  74.7715993  27.0214083
   8.9171673  67.9685993  24.9354083   8.8471673  68.6455993  24.3894083
   9.6581673  67.5805993  24.6864083   9.0161673  68.0115993  24.8174083
   3.5121673  75.1935993  26.3644083   3.0501673  74.8015993  25.7374083
   4.2121673  74.6805993  26.4564083   3.5471673  75.0605993  26.2854083
   8.0201673  70.8035993  31.7114083   8.6981673  70.8215993  31.1624083
   7.9751673  69.9675993  31.9564083   8.1131673  70.6825993  31.6664083
   5.5131673  73.2935993  26.3874083   6.3301673  73.1065993  26.6304083
   5.0361673  72.6795993  26.7834083   5.5631673  73.1755993  26.4824083
  11.7421673  72.8545993  36.5474083  10.8941673  72.7555993  36.3694083
  11.7711673  73.5995993  37.0014083  11.6211673  72.9505993  36.5884083
   6.1101673  68.3875993  25.6534083   5.8141673  68.8885993  25.0034083
   6.9771673  68.4655993  25.5964083   6.1941673  68.4735993  25.5494083
  16.3001673  65.8145993  35.6614083  16.1421673  66.5835993  35.2794083
  15.5281673  65.5945993  36.0054083  16.1621673  65.8955993  35.6564083
   9.0891673  67.5295993  27.8764083   9.1621673  68.3895993  28.0054083
   9.0511673  67.4545993  27.0084083   9.0941673  67.6455993  27.7674083
  13.7621673  70.4555993  20.1754083  13.3121673  71.1365993  20.4824083
  13.8761673  69.9515993  20.8784083  13.7131673  70.4815993  20.3244083
   4.9971673  67.7715993  29.8684083   4.4761673  67.1435993  29.5604083
   5.5881673  67.3345993  30.3394083   5.0081673  67.6135993  29.8924083
   8.3031673  69.9045993  39.1664083   8.4201673  69.4505993  38.4304083
   8.5911673  70.7025993  38.9634083   8.3631673  69.9555993  39.0274083
  19.1561673  70.4285993  26.4704083  18.8101673  71.1065993  26.8964083
  18.5201673  69.8305993  26.4864083  19.0111673  70.4405993  26.5354083
   4.0361673  69.5015993  38.1504083   3.2581673  69.1115993  38.0784083
   4.5271673  69.0895993  37.5594083   3.9931673  69.3825993  38.0524083
  10.6851673  67.1445993  37.3184083  10.8631673  66.3355993  37.0434083
  10.5421673  67.5855993  36.5794083  10.6901673  67.0905993  37.1684083
  11.2791673  72.0705993  26.0914083  11.5661673  71.8385993  25.3014083
  12.0111673  72.1495993  26.5604083  11.4291673  72.0475993  26.0444083
  12.0011673  72.4095993  21.2124083  12.2821673  73.1975993  21.4614083
  11.2251673  72.5745993  20.8494083  11.9281673  72.5505993  21.1954083
  18.8311673  68.7515993  31.8394083  19.5881673  68.8235993  31.4114083
  18.8941673  67.9785993  32.2384083  18.9521673  68.6485993  31.8344083
  14.3671673  68.4765993  22.0824083  14.9071673  67.7945993  22.1584083
  14.4291673  68.8745993  22.8564083  14.4561673  68.4345993  22.2084083
   2.3211673  69.6445993  24.6514083   2.2071673  68.7805993  24.6824083
   1.8461673  69.9385993  25.3214083   2.2341673  69.5605993  24.7544083
  11.6251673  70.8525993  23.3964083  11.1171673  70.1905993  23.1424083
  11.6771673  71.3565993  22.6864083  11.5581673  70.8295993  23.2544083
  11.6251673  67.7935993  23.2874083  11.1701673  67.3915993  22.6614083
  12.3981673  67.9485993  22.9124083  11.6721673  67.7575993  23.1394083
  10.2231673  70.1605993  27.8094083  10.2971673  70.7285993  27.1514083
  10.3441673  70.6525993  28.5194083  10.2511673  70.3175993  27.8174083
   4.8311673  65.9835993  26.1574083   5.3671673  66.6715993  26.1474083
   4.8341673  65.7095993  25.3294083   4.9101673  66.0445993  26.0334083
  14.0151673  70.3305993  33.6974083  13.9201673  70.6495993  34.5034083
  13.4221673  69.6915993  33.6594083  13.9131673  70.2825993  33.8114083
  15.2711673  66.2745993  26.5334083  15.3201673  65.9565993  27.3444083
  15.5941673  65.6305993  26.0404083  15.3261673  66.1325993  26.5804083
  17.7351673  70.5105993  34.8414083  18.5071673  70.2855993  35.1784083
  17.2601673  70.7275993  35.5414083  17.7791673  70.5095993  34.9944083
   5.2791673  69.7935993  27.8114083   5.5511673  69.3635993  27.1034083
   5.1031673  69.1575993  28.3824083   5.2931673  69.6365993  27.7914083
   3.4201673  70.8955993  30.8934083   4.2631673  71.1155993  30.8504083
   3.0311673  71.4685993  30.3624083   3.4871673  71.0125993  30.8084083
  15.8621673  74.0255993  21.6144083  15.6421673  74.7565993  21.1924083
  15.4141673  74.0765993  22.3614083  15.7631673  74.1405993  21.6624083
  20.0491673  68.8865993  21.0674083  19.3871673  68.3185993  21.0904083
  19.8561673  69.3985993  20.3874083  19.9231673  68.8785993  20.9704083
   9.2741673  72.5805993  39.0114083   8.7901673  73.1575993  39.4534083
   9.2461673  72.8755993  38.1904083   9.1981673  72.7095993  38.9554083
  20.3721673  73.2645993  33.6234083  20.5871673  72.4645993  33.3474083
  19.5221673  73.3245993  33.4344083  20.2781673  73.1555993  33.5544083
  18.0511673  68.4445993  23.3464083  18.7971673  68.0375993  23.5454083
  18.3141673  69.1595993  22.9214083  18.2001673  68.4905993  23.3134083
  14.5051673  70.7325993  28.4194083  14.8491673  70.8845993  29.2064083
  14.0521673  69.9945993  28.5324083  14.4891673  70.6455993  28.5524083
   8.9811673  69.9525993  22.8764083   8.9791673  69.8355993  22.0114083
   8.8001673  70.8005993  22.9684083   8.9541673  70.0605993  22.7624083
   4.8491673  73.3875993  37.3704083   4.3131673  72.8815993  37.8384083
   4.8691673  72.9975993  36.5904083   4.7721673  73.2545993  37.3244083
   5.3341673  72.7845993  22.5104083   5.2061673  72.3365993  23.2484083
   4.7521673  72.4425993  21.9584083   5.2291673  72.6675993  22.5384083
   5.5011673  74.6145993  29.1094083   4.7201673  74.5555993  28.7264083
   5.5731673  73.8625993  29.5464083   5.3961673  74.4955993  29.1174083
   5.9311673  74.3515993  32.5774083   5.9561673  73.6765993  32.0264083
   5.2851673  74.8475993  32.2654083   5.8401673  74.3245993  32.4504083
  15.8261673  72.0645993  30.9734083  15.1641673  72.3925993  31.4364083
  16.0131673  72.6985993  30.4044083  15.7561673  72.2065993  30.9574083
  12.4711673  67.9705993  34.4024083  12.6201673  67.1455993  34.1594083
  12.8501673  68.0255993  35.1864083  12.5491673  67.8565993  34.4824083
  14.0191673  70.0335993  24.4844083  14.5091673  70.7505993  24.4074083
  13.2291673  70.2945993  24.2214083  13.9751673  70.1775993  24.4344083
  10.6011673  71.5035993  30.2094083  11.0811673  72.2025993  30.4174083
  10.9741673  70.8565993  30.6604083  10.7271673  71.5115993  30.3064083
  12.7901673  74.6725993  22.4834083  12.7821673  75.3945993  21.9934083
  12.1511673  74.8075993  23.0604083  12.6951673  74.7995993  22.4964083
   7.3831673  67.0145993  22.1444083   7.4801673  66.9075993  23.0054083
   6.6751673  67.5205993  22.0794083   7.2931673  67.0735993  22.2624083
  18.1121673  66.7555993  37.5414083  17.4751673  66.3555993  37.0994083
  18.1381673  66.3245993  38.2994083  18.0221673  66.6335993  37.5874083
  11.1951673  74.6635993  24.8124083  11.2541673  75.3135993  25.3914083
  11.0061673  73.9675993  25.3034083  11.1761673  74.6565993  24.9704083
   5.6911673  69.1805993  21.3244083   5.1801673  69.2335993  20.6184083
   6.4751673  69.4205993  21.0284083   5.7311673  69.2235993  21.1764083
   7.4961673  71.5745993  28.2944083   8.3421673  71.3845993  28.3924083
   7.1261673  70.7975993  28.1564083   7.5661673  71.4315993  28.2884083
   2.3171673  72.9125993  24.9494083   2.8061673  72.6205993  25.6104083
   2.4461673  72.3195993  24.3224083   2.4081673  72.7815993  24.9544083
   6.8421673  74.3465993  20.4354083   6.2321673  73.9415993  20.9094083
   6.4561673  74.4645993  19.6624083   6.6951673  74.3035993  20.3914083
   8.2971673  72.8075993  23.1454083   8.5691673  73.6335993  23.2124083
   7.4341673  72.8825993  23.0494083   8.2101673  72.9405993  23.1404083
  16.2701673  69.9295993  37.7774083  15.7451673  70.3885993  38.3014083
  15.9091673  69.1345993  37.7714083  16.1391673  69.8795993  37.8534083
   1.7771673  68.7775993  29.6814083   1.8211673  69.1215993  28.8804083
   2.5321673  69.0145993  30.0484083   1.8951673  68.8635993  29.6174083
  14.7621673  73.4985993  37.8534083  14.8351673  73.6025993  38.7164083
  14.1281673  74.0565993  37.6324083  14.6791673  73.5965993  37.9484083
  17.0301673  73.8175993  36.2184083  17.3491673  74.6035993  36.4214083
  16.6601673  73.5475993  36.9614083  17.0231673  73.8935993  36.3584083
  16.8261673  72.0755993  27.4074083  16.0811673  71.7525993  27.7254083
  16.8281673  72.9015993  27.6874083  16.7161673  72.1495993  27.4954083
  19.7281673  74.3595993  38.9534083  19.6761673  74.0185993  38.1524083
  20.4651673  74.8265993  38.9314083  19.8291673  74.3785993  38.8314083
  15.7381673  68.4055993  34.8684083  16.4821673  68.8575993  34.8054083
  15.1721673  68.8755993  34.3994083  15.7651673  68.5425993  34.7904083
   7.6261673  71.2925993  34.6874083   7.7871673  70.5485993  35.1144083
   7.5811673  71.0435993  33.8524083   7.6431673  71.1455993  34.6274083
  17.0231673  66.3855993  32.5384083  16.7431673  67.2105993  32.4944083
  17.7391673  66.4385993  33.0344083  17.0881673  66.5155993  32.6054083
   9.3781673  67.1005993  34.5674083  10.0831673  67.4205993  34.1654083
   9.6191673  66.2935993  34.7944083   9.5171673  67.0285993  34.5414083
  18.4441673  72.6405993  21.3954083  18.8221673  73.3175993  20.9954083
  17.6021673  72.8645993  21.4264083  18.3751673  72.7735993  21.3404083
   5.8871673  72.1535993  30.6284083   6.3271673  72.0505993  29.8824083
   6.4321673  71.8405993  31.2334083   6.0321673  72.0925993  30.6074083
  13.9031673  71.2555993  36.2204083  13.2551673  71.7255993  36.5684083
  14.4681673  71.1665993  36.8794083  13.8911673  71.3115993  36.3694083
  13.5911673  72.7925993  32.5184083  13.8931673  73.2125993  33.2214083
  13.6271673  71.9525993  32.7504083  13.6411673  72.7305993  32.6564083
  16.1391673  72.2395993  24.7704083  16.3461673  72.0385993  25.5944083
  16.8951673  72.5075993  24.4284083  16.2811673  72.2495993  24.8414083
   9.4341673  67.1385993  30.6754083   8.6081673  66.9895993  30.9124083
   9.3941673  67.1735993  29.8044083   9.3061673  67.1215993  30.5814083
  17.1611673  68.3225993  26.2444083  16.4471673  67.8515993  26.4154083
  16.9991673  68.6635993  25.4584083  17.0321673  68.3035993  26.1534083
   5.0631673  70.2805993  23.9354083   5.1891673  69.9515993  23.1374083
   4.2511673  70.0315993  24.1344083   4.9621673  70.1955993  23.8474083
  19.7401673  73.4345993  36.3824083  18.8851673  73.3125993  36.5084083
  19.8931673  73.0395993  35.6194083  19.6361673  73.3575993  36.2884083
  14.2531673  74.0995993  34.9584083  13.9981673  73.3805993  35.3804083
  15.0741673  74.2155993  35.2284083  14.3371673  74.0105993  35.0604083
   5.0401673  72.2915993  34.3514083   5.4151673  72.9105993  33.8644083
   5.7141673  71.8175993  34.6364083   5.1951673  72.3135993  34.3214083
   2.8151673  70.7395993  33.6264083   2.8921673  70.5705993  32.7734083
   3.5611673  71.1455993  33.8234083   2.9361673  70.7745993  33.5294083
  18.3741673  73.3795993  24.0664083  18.4771673  73.3215993  23.2024083
  19.1151673  73.0475993  24.3844083  18.4991673  73.3225993  23.9854083
   5.3691673  68.1495993  36.0374083   5.2881673  67.3055993  36.2434083
   5.0551673  68.1935993  35.2244083   5.3111673  68.0315993  35.9474083
  17.4761673  73.5255993  33.4224083  17.4741673  72.6625993  33.5464083
  17.5431673  73.8495993  34.2294083  17.4861673  73.4455993  33.5594083
   3.6681673  71.9015993  20.4684083   2.9961673  71.9155993  21.0244083
   3.7631673  71.0535993  20.2844083   3.5831673  71.7785993  20.5234083
  13.3551673  68.3255993  37.2044083  13.4471673  69.0375993  37.6984083
  12.7181673  67.8805993  37.6014083  13.2741673  68.3645993  37.3364083
  12.3491673  68.5155993  28.0584083  11.6491673  69.0335993  28.0024083
  12.3871673  68.1355993  27.2744083  12.2511673  68.5365993  27.9344083
  15.9471673  69.0315993  30.8584083  16.8021673  69.1305993  31.0034083
  15.5781673  69.5845993  31.4234083  16.0191673  69.1285993  30.9634083
  16.2511673  74.3115993  29.3494083  16.9171673  74.8525993  29.5094083
  15.9061673  74.6225993  28.6104083  16.2981673  74.4375993  29.2644083
   7.4041673  68.2345993  32.6854083   6.5401673  68.3185993  32.7654083
   7.6241673  67.7205993  33.3544083   7.3091673  68.1715993  32.7964083
  19.4221673  66.8695993  34.0144083  19.3701673  66.8255993  34.8844083
  20.1091673  66.3665993  33.8244083  19.5161673  66.7895993  34.1144083
  11.5071673  68.9825993  31.0594083  10.7701673  68.5285993  31.1724083
  12.0781673  68.5805993  31.5824083  11.4821673  68.8555993  31.1534083
   9.0101673  73.3115993  36.2634083   8.6881673  72.7355993  35.6934083
   8.6511673  74.0665993  36.0174083   8.9101673  73.3375993  36.1434083
   9.8061673  66.5635993  20.8904083   9.8841673  66.8105993  20.0574083
   9.0631673  66.9405993  21.1484083   9.7081673  66.6555993  20.8054083
   4.6241673  68.3175993  33.3334083   4.2811673  67.5505993  33.0994083
   3.9291673  68.8415993  33.3974083   4.4711673  68.2815993  33.3084083
  13.6701673  67.1735993  30.3104083  14.3401673  67.7175993  30.4374083
  13.1671673  67.5975993  29.7374083  13.6951673  67.3165993  30.2444083
  13.0291673  72.9815993  27.8034083  13.5801673  72.3745993  28.1034083
  12.6041673  73.2445993  28.5184083  13.0481673  72.9305993  27.9524083
   3.2771673  71.6315993  27.2894083   2.9091673  71.9335993  28.0204083
   3.8111673  71.0025993  27.5734083   3.3011673  71.5835993  27.4394083
  14.9991673  74.8125993  24.3654083  15.0671673  73.9625993  24.5464083
  14.1761673  74.8985993  24.0874083  14.8871673  74.6995993  24.3514083
  18.8981673  70.7495993  38.2544083  18.7021673  71.3935993  38.8094083
  18.1761673  70.2595993  38.2464083  18.7631673  70.7725993  38.3354083
  18.7971673  71.6905993  31.2254083  17.9641673  71.9405993  31.1534083
  18.7411673  70.8505993  31.4544083  18.6661673  71.6035993  31.2484083
   8.0571673  68.6785993  36.4194083   8.2911673  68.1025993  35.8064083
   7.2151673  68.4975993  36.5604083   7.9671673  68.5665993  36.3494083
  12.4481673  66.8815993   6.7741673  12.2031673  67.3695993   6.0941673
  13.3111673  66.8085993   6.6741673  12.5391673  66.9425993   6.6591673
  12.2571673  73.7975993  11.4451673  11.7331673  74.3935993  11.8081673
  12.6541673  73.4295993  12.1291673  12.2381673  73.8315993  11.6001673
  14.9281673  74.8645993   8.1211673  15.0081673  74.8685993   7.2521673
  14.3441673  74.2325993   8.2701673  14.8531673  74.7715993   8.0151673
   8.9171673  67.9685993   5.9291673   8.8471673  68.6455993   5.3831673
   9.6581673  67.5805993   5.6801673   9.0161673  68.0115993   5.8111673
   3.5121673  75.1935993   7.3581673   3.0501673  74.8015993   6.7311673
   4.2121673  74.6805993   7.4501673   3.5471673  75.0605993   7.2791673
   8.0201673  70.8035993  12.7051673   8.6981673  70.8215993  12.1561673
   7.9751673  69.9675993  12.9501673   8.1131673  70.6825993  12.6601673
   5.5131673  73.2935993   7.3811673   6.3301673  73.1065993   7.6241673
   5.0361673  72.6795993   7.7771673   5.5631673  73.1755993   7.4761673
  11.7421673  72.8545993  17.5411673  10.8941673  72.7555993  17.3631673
  11.7711673  73.5995993  17.9951673  11.6211673  72.9505993  17.5821673
   6.1101673  68.3875993   6.6471673   5.8141673  68.8885993   5.9971673
   6.9771673  68.4655993   6.5901673   6.1941673  68.4735993   6.5431673
  16.3001673  65.8145993  16.6551673  16.1421673  66.5835993  16.2731673
  15.5281673  65.5945993  16.9991673  16.1621673  65.8955993  16.6501673
   9.0891673  67.5295993   8.8701673   9.1621673  68.3895993   8.9991673
   9.0511673  67.4545993   8.0021673   9.0941673  67.6455993   8.7611673
   4.9971673  67.7715993  10.8621673   4.4761673  67.1435993  10.5541673
   5.5881673  67.3345993  11.3331673   5.0081673  67.6135993  10.8861673
   8.3031673  69.9045993  20.1601673   8.4201673  69.4505993  19.4241673
   8.5911673  70.7025993  19.9571673   8.3631673  69.9555993  20.0211673
  19.1561673  70.4285993   7.4641673  18.8101673  71.1065993   7.8901673
  18.5201673  69.8305993   7.4801673  19.0111673  70.4405993   7.5291673
   4.0361673  69.5015993  19.1441673   3.2581673  69.1115993  19.0721673
   4.5271673  69.0895993  18.5531673   3.9931673  69.3825993  19.0461673
  10.6851673  67.1445993  18.3121673  10.8631673  66.3355993  18.0371673
  10.5421673  67.5855993  17.5731673  10.6901673  67.0905993  18.1621673
  11.2791673  72.0705993   7.0851673  11.5661673  71.8385993   6.2951673
  12.0111673  72.1495993   7.5541673  11.4291673  72.0475993   7.0381673
  12.0011673  72.4095993   2.2061673  12.2821673  73.1975993   2.4551673
  11.2251673  72.5745993   1.8431673  11.9281673  72.5505993   2.1891673
  18.8311673  68.7515993  12.8331673  19.5881673  68.8235993  12.4051673
  18.8941673  67.9785993  13.2321673  18.9521673  68.6485993  12.8281673
  14.3671673  68.4765993   3.0761673  14.9071673  67.7945993   3.1521673
  14.4291673  68.8745993   3.8501673  14.4561673  68.4345993   3.2021673
   2.3211673  69.6445993   5.6451673   2.2071673  68.7805993   5.6761673
   1.8461673  69.9385993   6.3151673   2.2341673  69.5605993   5.7481673
  11.6251673  70.8525993   4.3901673  11.1171673  70.1905993   4.1361673
  11.6771673  71.3565993   3.6801673  11.5581673  70.8295993   4.2481673
  11.6251673  67.7935993   4.2811673  11.1701673  67.3915993   3.6551673
  12.3981673  67.9485993   3.9061673  11.6721673  67.7575993   4.1331673
  10.2231673  70.1605993   8.8031673  10.2971673  70.7285993   8.1451673
  10.3441673  70.6525993   9.5131673  10.2511673  70.3175993   8.8111673
   4.8311673  65.9835993   7.1511673   5.3671673  66.6715993   7.1411673
   4.8341673  65.7095993   6.3231673   4.9101673  66.0445993   7.0271673
  14.0151673  70.3305993  14.6911673  13.9201673  70.6495993  15.4971673
  13.4221673  69.6915993  14.6531673  13.9131673  70.2825993  14.8051673
  15.2711673  66.2745993   7.5271673  15.3201673  65.9565993   8.3381673
  15.5941673  65.6305993   7.0341673  15.3261673  66.1325993   7.5741673
  17.7351673  70.5105993  15.8351673  18.5071673  70.2855993  16.1721673
  17.2601673  70.7275993  16.5351673  17.7791673  70.5095993  15.9881673
   5.2791673  69.7935993   8.8051673   5.5511673  69.3635993   8.0971673
   5.1031673  69.1575993   9.3761673   5.2931673  69.6365993   8.7851673
   3.4201673  70.8955993  11.8871673   4.2631673  71.1155993  11.8441673
   3.0311673  71.4685993  11.3561673   3.4871673  71.0125993  11.8021673
  15.8621673  74.0255993   2.6081673  15.6421673  74.7565993   2.1861673
  15.4141673  74.0765993   3.3551673  15.7631673  74.1405993   2.6561673
  20.0491673  68.8865993   2.0611673  19.3871673  68.3185993   2.0841673
  19.8561673  69.3985993   1.3811673  19.9231673  68.8785993   1.9641673
   9.2741673  72.5805993  20.0051673   8.7901673  73.1575993  20.4471673
   9.2461673  72.8755993  19.1841673   9.1981673  72.7095993  19.9491673
  20.3721673  73.2645993  14.6171673  20.5871673  72.4645993  14.3411673
  19.5221673  73.3245993  14.4281673  20.2781673  73.1555993  14.5481673
  18.0511673  68.4445993   4.3401673  18.7971673  68.0375993   4.5391673
  18.3141673  69.1595993   3.9151673  18.2001673  68.4905993   4.3071673
  14.5051673  70.7325993   9.4131673  14.8491673  70.8845993  10.2001673
  14.0521673  69.9945993   9.5261673  14.4891673  70.6455993   9.5461673
   8.9811673  69.9525993   3.8701673   8.9791673  69.8355993   3.0051673
   8.8001673  70.8005993   3.9621673   8.9541673  70.0605993   3.7561673
   4.8491673  73.3875993  18.3641673   4.3131673  72.8815993  18.8321673
   4.8691673  72.9975993  17.5841673   4.7721673  73.2545993  18.3181673
   5.3341673  72.7845993   3.5041673   5.2061673  72.3365993   4.2421673
   4.7521673  72.4425993   2.9521673   5.2291673  72.6675993   3.5321673
   5.5011673  74.6145993  10.1031673   4.7201673  74.5555993   9.7201673
   5.5731673  73.8625993  10.5401673   5.3961673  74.4955993  10.1111673
   5.9311673  74.3515993  13.5711673   5.9561673  73.6765993  13.0201673
   5.2851673  74.8475993  13.2591673   5.8401673  74.3245993  13.4441673
  15.8261673  72.0645993  11.9671673  15.1641673  72.3925993  12.4301673
  16.0131673  72.6985993  11.3981673  15.7561673  72.2065993  11.9511673
  12.4711673  67.9705993  15.3961673  12.6201673  67.1455993  15.1531673
  12.8501673  68.0255993  16.1801673  12.5491673  67.8565993  15.4761673
  14.0191673  70.0335993   5.4781673  14.5091673  70.7505993   5.4011673
  13.2291673  70.2945993   5.2151673  13.9751673  70.1775993   5.4281673
  10.6011673  71.5035993  11.2031673  11.0811673  72.2025993  11.4111673
  10.9741673  70.8565993  11.6541673  10.7271673  71.5115993  11.3001673
  12.7901673  74.6725993   3.4771673  12.7821673  75.3945993   2.9871673
  12.1511673  74.8075993   4.0541673  12.6951673  74.7995993   3.4901673
   7.3831673  67.0145993   3.1381673   7.4801673  66.9075993   3.9991673
   6.6751673  67.5205993   3.0731673   7.2931673  67.0735993   3.2561673
  18.1121673  66.7555993  18.5351673  17.4751673  66.3555993  18.0931673
  18.1381673  66.3245993  19.2931673  18.0221673  66.6335993  18.5811673
  11.1951673  74.6635993   5.8061673  11.2541673  75.3135993   6.3851673
  11.0061673  73.9675993   6.2971673  11.1761673  74.6565993   5.9641673
   5.6911673  69.1805993   2.3181673   5.1801673  69.2335993   1.6121673
   6.4751673  69.4205993   2.0221673   5.7311673  69.2235993   2.1701673
   7.4961673  71.5745993   9.2881673   8.3421673  71.3845993   9.3861673
   7.1261673  70.7975993   9.1501673   7.5661673  71.4315993   9.2821673
   2.3171673  72.9125993   5.9431673   2.8061673  72.6205993   6.6041673
   2.4461673  72.3195993   5.3161673   2.4081673  72.7815993   5.9481673
   8.2971673  72.8075993   4.1391673   8.5691673  73.6335993   4.2061673
   7.4341673  72.8825993   4.0431673   8.2101673  72.9405993   4.1341673
  16.2701673  69.9295993  18.7711673  15.7451673  70.3885993  19.2951673
  15.9091673  69.1345993  18.7651673  16.1391673  69.8795993  18.8471673
   1.7771673  68.7775993  10.6751673   1.8211673  69.1215993   9.8741673
   2.5321673  69.0145993  11.0421673   1.8951673  68.8635993  10.6111673
  14.7621673  73.4985993  18.8471673  14.8351673  73.6025993  19.7101673
  14.1281673  74.0565993  18.6261673  14.6791673  73.5965993  18.9421673
  17.0301673  73.8175993  17.2121673  17.3491673  74.6035993  17.4151673
  16.6601673  73.5475993  17.9551673  17.0231673  73.8935993  17.3521673
  16.8261673  72.0755993   8.4011673  16.0811673  71.7525993   8.7191673
  16.8281673  72.9015993   8.6811673  16.7161673  72.1495993   8.4891673
  19.7281673  74.3595993  19.9471673  19.6761673  74.0185993  19.1461673
  20.4651673  74.8265993  19.9251673  19.8291673  74.3785993  19.8251673
  15.7381673  68.4055993  15.8621673  16.4821673  68.8575993  15.7991673
  15.1721673  68.8755993  15.3931673  15.7651673  68.5425993  15.7841673
   7.6261673  71.2925993  15.6811673   7.7871673  70.5485993  16.1081673
   7.5811673  71.0435993  14.8461673   7.6431673  71.1455993  15.6211673
  17.0231673  66.3855993  13.5321673  16.7431673  67.2105993  13.4881673
  17.7391673  66.4385993  14.0281673  17.0881673  66.5155993  13.5991673
   9.3781673  67.1005993  15.5611673  10.0831673  67.4205993  15.1591673
   9.6191673  66.2935993  15.7881673   9.5171673  67.0285993  15.5351673
  18.4441673  72.6405993   2.3891673  18.8221673  73.3175993   1.9891673
  17.6021673  72.8645993   2.4201673  18.3751673  72.7735993   2.3341673
   5.8871673  72.1535993  11.6221673   6.3271673  72.0505993  10.8761673
   6.4321673  71.8405993  12.2271673   6.0321673  72.0925993  11.6011673
  13.9031673  71.2555993  17.2141673  13.2551673  71.7255993  17.5621673
  14.4681673  71.1665993  17.8731673  13.8911673  71.3115993  17.3631673
  13.5911673  72.7925993  13.5121673  13.8931673  73.2125993  14.2151673
  13.6271673  71.9525993  13.7441673  13.6411673  72.7305993  13.6501673
  16.1391673  72.2395993   5.7641673  16.3461673  72.0385993   6.5881673
  16.8951673  72.5075993   5.4221673  16.2811673  72.2495993   5.8351673
   9.4341673  67.1385993  11.6691673   8.6081673  66.9895993  11.9061673
   9.3941673  67.1735993  10.7981673   9.3061673  67.1215993  11.5751673
  17.1611673  68.3225993   7.2381673  16.4471673  67.8515993   7.4091673
  16.9991673  68.6635993   6.4521673  17.0321673  68.3035993   7.1471673
   5.0631673  70.2805993   4.9291673   5.1891673  69.9515993   4.1311673
   4.2511673  70.0315993   5.1281673   4.9621673  70.1955993   4.8411673
  19.7401673  73.4345993  17.3761673  18.8851673  73.3125993  17.5021673
  19.8931673  73.0395993  16.6131673  19.6361673  73.3575993  17.2821673
  14.2531673  74.0995993  15.9521673  13.9981673  73.3805993  16.3741673
  15.0741673  74.2155993  16.2221673  14.3371673  74.0105993  16.0541673
   5.0401673  72.2915993  15.3451673   5.4151673  72.9105993  14.8581673
   5.7141673  71.8175993  15.6301673   5.1951673  72.3135993  15.3151673
   2.8151673  70.7395993  14.6201673   2.8921673  70.5705993  13.7671673
   3.5611673  71.1455993  14.8171673   2.9361673  70.7745993  14.5231673
  18.3741673  73.3795993   5.0601673  18.4771673  73.3215993   4.1961673
  19.1151673  73.0475993   5.3781673  18.4991673  73.3225993   4.9791673
   5.3691673  68.1495993  17.0311673   5.2881673  67.3055993  17.2371673
   5.0551673  68.1935993  16.2181673   5.3111673  68.0315993  16.9411673
  17.4761673  73.5255993  14.4161673  17.4741673  72.6625993  14.5401673
  17.5431673  73.8495993  15.2231673  17.4861673  73.4455993  14.5531673
  13.3551673  68.3255993  18.1981673  13.4471673  69.0375993  18.6921673
  12.7181673  67.8805993  18.5951673  13.2741673  68.3645993  18.3301673
  12.3491673  68.5155993   9.0521673  11.6491673  69.0335993   8.9961673
  12.3871673  68.1355993   8.2681673  12.2511673  68.5365993   8.9281673
  15.9471673  69.0315993  11.8521673  16.8021673  69.1305993  11.9971673
  15.5781673  69.5845993  12.4171673  16.0191673  69.1285993  11.9571673
  16.2511673  74.3115993  10.3431673  16.9171673  74.8525993  10.5031673
  15.9061673  74.6225993   9.6041673  16.2981673  74.4375993  10.2581673
   7.4041673  68.2345993  13.6791673   6.5401673  68.3185993  13.7591673
   7.6241673  67.7205993  14.3481673   7.3091673  68.1715993  13.7901673
  19.4221673  66.8695993  15.0081673  19.3701673  66.8255993  15.8781673
  20.1091673  66.3665993  14.8181673  19.5161673  66.7895993  15.1081673
  11.5071673  68.9825993  12.0531673  10.7701673  68.5285993  12.1661673
  12.0781673  68.5805993  12.5761673  11.4821673  68.8555993  12.1471673
   9.0101673  73.3115993  17.2571673   8.6881673  72.7355993  16.6871673
   8.6511673  74.0665993  17.0111673   8.9101673  73.3375993  17.1371673
   4.6241673  68.3175993  14.3271673   4.2811673  67.5505993  14.0931673
   3.9291673  68.8415993  14.3911673   4.4711673  68.2815993  14.3021673
  13.6701673  67.1735993  11.3041673  14.3401673  67.7175993  11.4311673
  13.1671673  67.5975993  10.7311673  13.6951673  67.3165993  11.2381673
  13.0291673  72.9815993   8.7971673  13.5801673  72.3745993   9.0971673
  12.6041673  73.2445993   9.5121673  13.0481673  72.9305993   8.9461673
   3.2771673  71.6315993   8.2831673   2.9091673  71.9335993   9.0141673
   3.8111673  71.0025993   8.5671673   3.3011673  71.5835993   8.4331673
  14.9991673  74.8125993   5.3591673  15.0671673  73.9625993   5.5401673
  14.1761673  74.8985993   5.0811673  14.8871673  74.6995993   5.3451673
  18.8981673  70.7495993  19.2481673  18.7021673  71.3935993  19.8031673
  18.1761673  70.2595993  19.2401673  18.7631673  70.7725993  19.3291673
  18.7971673  71.6905993  12.2191673  17.9641673  71.9405993  12.1471673
  18.7411673  70.8505993  12.4481673  18.6661673  71.6035993  12.2421673
   8.0571673  68.6785993  17.4131673   8.2911673  68.1025993  16.8001673
   7.2151673  68.4975993  17.5541673   7.9671673  68.5665993  17.3431673
  12.4481673  48.4034913  63.7928903  12.2031673  48.8914913  63.1128903
  13.3111673  48.3304913  63.6928903  12.5391673  48.4644913  63.6778903
  12.2571673  55.3194913  68.4638903  11.7331673  55.9154913  68.8268903
  12.6541673  54.9514913  69.1478903  12.2381673  55.3534913  68.6188903
  18.4011673  62.7604913  61.4348903  19.1021673  62.2414913  61.4308903
  17.8141673  62.3154913  60.9658903  18.4181673  62.6174913  61.3648903
   5.0081673  58.5144913  59.0988903   4.6161673  58.1434913  58.4128903
   4.9281673  57.9164913  59.7278903   4.9381673  58.3714913  59.0898903
  14.9281673  56.3864913  65.1398903  15.0081673  56.3904913  64.2708903
  14.3441673  55.7544913  65.2888903  14.8531673  56.2934913  65.0338903
   4.6351673  60.1554913  62.9988903   5.2431673  59.9854913  63.6018903
   3.8841673  60.0154913  63.4198903   4.6141673  60.1094913  63.1498903
   8.9171673  49.4904913  62.9478903   8.8471673  50.1674913  62.4018903
   9.6581673  49.1024913  62.6988903   9.0161673  49.5334913  62.8298903
   3.5261673  63.2464913  59.0758903   3.9931673  63.3304913  58.3438903
   3.9811673  62.6684913  59.5448903   3.6621673  63.1734913  59.0368903
   8.6401673  59.7194913  75.2418903   8.4041673  59.7164913  76.0818903
   7.8921673  59.5714913  74.8178903   8.4941673  59.6964913  75.3028903
   3.5121673  56.7154913  64.3768903   3.0501673  56.3234913  63.7498903
   4.2121673  56.2024913  64.4688903   3.5471673  56.5824913  64.2978903
   8.0201673  52.3254913  69.7238903   8.6981673  52.3434913  69.1748903
   7.9751673  51.4894913  69.9688903   8.1131673  52.2044913  69.6788903
   8.6221673  62.9114913  72.5048903   8.7601673  63.6714913  72.0978903
   9.4131673  62.5464913  72.5318903   8.7591673  62.9704913  72.4488903
   5.5131673  54.8154913  64.3998903   6.3301673  54.6284913  64.6428903
   5.0361673  54.2014913  64.7958903   5.5631673  54.6974913  64.4948903
   9.7171673  60.7964913  67.0098903  10.0651673  59.9974913  67.0398903
  10.3821673  61.3004913  66.7548903   9.8671673  60.7524913  66.9768903
   9.7741673  60.2454913  63.2208903  10.1051673  59.6014913  63.7068903
  10.0141673  60.0344913  62.4098903   9.8581673  60.1194913  63.1728903
  11.7421673  54.3764913  74.5598903  10.8941673  54.2774913  74.3818903
  11.7711673  55.1214913  75.0138903  11.6211673  54.4724913  74.6008903
   6.1101673  49.9094913  63.6658903   5.8141673  50.4104913  63.0158903
   6.9771673  49.9874913  63.6088903   6.1941673  49.9954913  63.5618903
  16.3001673  47.3364913  73.6738903  16.1421673  48.1054913  73.2918903
  15.5281673  47.1164913  74.0178903  16.1621673  47.4174913  73.6688903
   9.0891673  49.0514913  65.8888903   9.1621673  49.9114913  66.0178903
   9.0511673  48.9764913  65.0208903   9.0941673  49.1674913  65.7798903
  13.7621673  51.9774913  58.1878903  13.3121673  52.6584913  58.4948903
  13.8761673  51.4734913  58.8908903  13.7131673  52.0034913  58.3368903
   7.7181673  62.0304913  62.7698903   7.1391673  61.7554913  63.3618903
   8.3421673  61.4214913  62.7948903   7.7251673  61.9004913  62.8608903
  13.8611673  64.3184913  60.2918903  14.5881673  64.7904913  60.3938903
  14.0901673  63.5244913  60.5718903  14.0031673  64.2714913  60.3488903
  12.0291673  64.7104913  62.2818903  12.2431673  65.2374913  62.9438903
  12.7961673  64.5364913  61.9028903  12.1741673  64.7624913  62.3238903
   4.9971673  49.2934913  67.8808903   4.4761673  48.6654913  67.5728903
   5.5881673  48.8564913  68.3518903   5.0081673  49.1354913  67.9048903
   3.4231673  62.8564913  63.2208903   4.0791673  62.2814913  63.2358903
   3.8121673  63.6054913  62.9998903   3.5781673  62.8814913  63.1908903
  19.1561673  51.9504913  64.4828903  18.8101673  52.6284913  64.9088903
  18.5201673  51.3524913  64.4988903  19.0111673  51.9624913  64.5478903
  14.4681673  64.7204913  70.5868903  15.2121673  65.1764913  70.5768903
  14.3471673  64.5064913  69.7498903  14.5601673  64.7564913  70.4618903
   4.0361673  51.0234913  76.1628903   3.2581673  50.6334913  76.0908903
   4.5271673  50.6114913  75.5718903   3.9931673  50.9044913  76.0648903
   4.2411673  61.3434913  66.7208903   4.6641673  60.9874913  66.0468903
   4.5651673  60.9214913  67.4128903   4.3511673  61.2284913  66.7238903
   7.4721673  64.1954913  66.0168903   8.3161673  64.2994913  65.8218903
   7.1751673  65.0134913  66.0848903   7.5531673  64.3314913  65.9978903
  10.6851673  48.6664913  75.3308903  10.8631673  47.8574913  75.0558903
  10.5421673  49.1074913  74.5918903  10.6901673  48.6124913  75.1808903
  11.2791673  53.5924913  64.1038903  11.5661673  53.3604913  63.3138903
  12.0111673  53.6714913  64.5728903  11.4291673  53.5694913  64.0568903
  12.0011673  53.9314913  59.2248903  12.2821673  54.7194913  59.4738903
  11.2251673  54.0964913  58.8618903  11.9281673  54.0724913  59.2078903
  16.0421673  65.9054913  60.6918903  16.7071673  65.7574913  60.1468903
  16.4021673  65.8224913  61.4818903  16.1941673  65.8714913  60.7278903
   6.4701673  65.4144913  71.7568903   6.7621673  65.3474913  72.5768903
   5.8441673  64.8094913  71.7118903   6.4211673  65.3154913  71.8718903
  18.8311673  50.2734913  69.8518903  19.5881673  50.3454913  69.4238903
  18.8941673  49.5004913  70.2508903  18.9521673  50.1704913  69.8468903
  13.7221673  61.9054913  74.2908903  13.6881673  62.2874913  75.0748903
  14.5761673  61.8634913  74.1198903  13.8431673  61.9554913  74.3818903
  10.8601673  62.1024913  59.0408903  10.6791673  62.6474913  59.6978903
  11.6261673  62.3924913  58.7398903  10.9461673  62.2264913  59.0938903
  14.3671673  49.9984913  60.0948903  14.9071673  49.3164913  60.1708903
  14.4291673  50.3964913  60.8688903  14.4561673  49.9564913  60.2208903
   2.3211673  51.1664913  62.6638903   2.2071673  50.3024913  62.6948903
   1.8461673  51.4604913  63.3338903   2.2341673  51.0824913  62.7668903
   4.4631673  63.5764913  70.8788903   3.7651673  63.0684913  71.0048903
   4.7231673  63.3714913  70.0708903   4.3981673  63.4714913  70.7778903
  11.6251673  52.3744913  61.4088903  11.1171673  51.7124913  61.1548903
  11.6771673  52.8784913  60.6988903  11.5581673  52.3514913  61.2668903
  12.1741673  65.0694913  71.7888903  12.9421673  64.9894913  71.3828903
  11.5911673  64.9484913  71.1508903  12.2011673  65.0394913  71.6348903
  11.6251673  49.3154913  61.2998903  11.1701673  48.9134913  60.6738903
  12.3981673  49.4704913  60.9248903  11.6721673  49.2794913  61.1518903
  18.4511673  65.6724913  64.6898903  17.9961673  66.3894913  64.8908903
  17.8371673  65.1014913  64.4478903  18.2931673  65.6944913  64.6838903
  10.2231673  51.6824913  65.8218903  10.2971673  52.2504913  65.1638903
  10.3441673  52.1744913  66.5318903  10.2511673  51.8394913  65.8298903
  15.4481673  61.5174913  64.2338903  16.1491673  61.0354913  64.4228903
  14.7881673  60.9484913  64.2788903  15.4541673  61.3624913  64.2678903
   5.8241673  62.4274913  73.4458903   6.6651673  62.4904913  73.2238903
   5.7871673  62.8244913  74.2218903   5.9431673  62.4954913  73.5278903
   4.8311673  47.5054913  64.1698903   5.3671673  48.1934913  64.1598903
   4.8341673  47.2314913  63.3418903   4.9101673  47.5664913  64.0458903
   7.7871673  57.9384913  68.1948903   7.9591673  57.7284913  69.0238903
   7.1321673  57.4044913  67.9788903   7.7161673  57.8284913  68.2858903
  14.0151673  51.8524913  71.7098903  13.9201673  52.1714913  72.5158903
  13.4221673  51.2134913  71.6718903  13.9131673  51.8044913  71.8238903
   8.5371673  57.8764913  70.7848903   8.5901673  58.7234913  70.9868903
   8.2521673  57.5064913  71.5218903   8.5031673  57.9464913  70.9228903
  14.7141673  58.5714913  69.9148903  14.2001673  58.1594913  70.4858903
  14.5881673  59.4154913  70.0958903  14.6201673  58.6354913  70.0258903
  15.2711673  47.7964913  64.5458903  15.3201673  47.4784913  65.3568903
  15.5941673  47.1524913  64.0528903  15.3261673  47.6544913  64.5928903
  17.7351673  52.0324913  72.8538903  18.5071673  51.8074913  73.1908903
  17.2601673  52.2494913  73.5538903  17.7791673  52.0314913  73.0068903
   5.2791673  51.3154913  65.8238903   5.5511673  50.8854913  65.1158903
   5.1031673  50.6794913  66.3948903   5.2931673  51.1584913  65.8038903
  17.9671673  59.0104913  60.0418903  18.0861673  58.7234913  60.8568903
  18.7741673  59.0314913  59.7118903  18.1031673  58.9714913  60.1138903
   5.1031673  58.7424913  65.3728903   5.9541673  58.6624913  65.1998903
   4.7461673  58.0604913  64.9608903   5.1761673  58.6294913  65.2858903
   3.8701673  65.4674913  66.6098903   3.1971673  64.9694913  66.3648903
   4.2731673  65.6524913  65.8588903   3.8301673  65.4214913  66.4628903
   3.4201673  52.4174913  68.9058903   4.2631673  52.6374913  68.8628903
   3.0311673  52.9904913  68.3748903   3.4871673  52.5344913  68.8208903
  20.2011673  63.5194913  74.2958903  19.5191673  63.8294913  73.8488903
  19.8321673  63.0614913  74.9408903  20.0451673  63.4974913  74.3248903
  15.8621673  55.5474913  59.6268903  15.6421673  56.2784913  59.2048903
  15.4141673  55.5984913  60.3738903  15.7631673  55.6624913  59.6748903
   7.4711673  58.7494913  63.6078903   8.1841673  59.2444913  63.6978903
   7.6931673  58.1824913  62.9818903   7.6091673  58.7384913  63.5288903
  20.0491673  50.4084913  59.0798903  19.3871673  49.8404913  59.1028903
  19.8561673  50.9204913  58.3998903  19.9231673  50.4004913  58.9828903
  20.3721673  54.7864913  71.6358903  20.5871673  53.9864913  71.3598903
  19.5221673  54.8464913  71.4468903  20.2781673  54.6774913  71.5668903
  18.0511673  49.9664913  61.3588903  18.7971673  49.5594913  61.5578903
  18.3141673  50.6814913  60.9338903  18.2001673  50.0124913  61.3258903
  11.9941673  62.4524913  65.9348903  11.4711673  63.0864913  65.6418903
  12.3041673  62.0884913  65.2058903  11.9621673  62.4924913  65.7838903
   6.0691673  60.2404913  68.6948903   6.5361673  60.5294913  69.3728903
   6.6411673  59.7624913  68.2408903   6.2231673  60.2124913  68.7278903
  14.5051673  52.2544913  66.4318903  14.8491673  52.4064913  67.2188903
  14.0521673  51.5164913  66.5448903  14.4891673  52.1674913  66.5648903
   2.6351673  57.9104913  67.2388903   3.0661673  57.7814913  66.4918903
   2.4301673  58.7584913  67.2128903   2.6681673  58.0164913  67.1248903
   8.9811673  51.4744913  60.8888903   8.9791673  51.3574913  60.0238903
   8.8001673  52.3224913  60.9808903   8.9541673  51.5824913  60.7748903
  18.0351673  63.9014913  72.3858903  17.3641673  64.4154913  72.6038903
  18.0981673  64.0014913  71.5218903  17.9451673  63.9924913  72.2908903
   6.7191673  61.4264913  65.5208903   6.8451673  62.2694913  65.7078903
   7.3871673  61.0274913  65.9168903   6.8371673  61.4924913  65.6068903
   4.8491673  54.9094913  75.3828903   4.3131673  54.4034913  75.8508903
   4.8691673  54.5194913  74.6028903   4.7721673  54.7764913  75.3368903
   5.3341673  54.3064913  60.5228903   5.2061673  53.8584913  61.2608903
   4.7521673  53.9644913  59.9708903   5.2291673  54.1894913  60.5508903
   5.5011673  56.1364913  67.1218903   4.7201673  56.0774913  66.7388903
   5.5731673  55.3844913  67.5588903   5.3961673  56.0174913  67.1298903
   5.9311673  55.8734913  70.5898903   5.9561673  55.1984913  70.0388903
   5.2851673  56.3694913  70.2778903   5.8401673  55.8464913  70.4628903
  15.8261673  53.5864913  68.9858903  15.1641673  53.9144913  69.4488903
  16.0131673  54.2204913  68.4168903  15.7561673  53.7284913  68.9698903
  10.0311673  64.6504913  69.9818903   9.7541673  64.0094913  69.4588903
   9.8231673  65.3764913  69.5438903   9.9601673  64.6634913  69.8398903
  12.4711673  49.4924913  72.4148903  12.6201673  48.6674913  72.1718903
  12.8501673  49.5474913  73.1988903  12.5491673  49.3784913  72.4948903
  14.0191673  51.5554913  62.4968903  14.5091673  52.2724913  62.4198903
  13.2291673  51.8164913  62.2338903  13.9751673  51.6994913  62.4468903
   3.7301673  57.2284913  76.1488903   3.6931673  57.7294913  75.4348903
   4.0611673  56.4764913  75.8538903   3.7731673  57.1904913  75.9998903
  15.3331673  59.4334913  74.4068903  15.8171673  60.1514913  74.5048903
  15.7271673  59.0064913  73.7558903  15.4631673  59.4764913  74.3248903
   9.6291673  62.2784913  75.5838903   9.9831673  62.1004913  76.3608903
   9.1931673  61.5494913  75.3848903   9.6171673  62.1444913  75.6698903
  10.6011673  53.0254913  68.2218903  11.0811673  53.7244913  68.4298903
  10.9741673  52.3784913  68.6728903  10.7271673  53.0334913  68.3188903
  12.7901673  56.1944913  60.4958903  12.7821673  56.9164913  60.0058903
  12.1511673  56.3294913  61.0728903  12.6951673  56.3214913  60.5088903
  17.7621673  60.0644913  64.4768903  18.1181673  59.7144913  65.1918903
  17.7541673  59.4034913  63.9068903  17.8141673  59.9144913  64.4978903
  13.8071673  63.1304913  68.3208903  13.2041673  62.8344913  67.7638903
  14.3521673  63.5824913  67.8118903  13.7981673  63.1534913  68.1628903
  13.8201673  59.9814913  67.7208903  13.0231673  60.2054913  67.9948903
  14.0781673  59.3874913  68.3058903  13.7401673  59.9264913  67.8478903
   7.7121673  64.7934913  62.1688903   7.5651673  64.0174913  62.5398903
   8.4011673  64.6464913  61.6538903   7.7921673  64.6564913  62.1478903
   7.3831673  48.5364913  60.1568903   7.4801673  48.4294913  61.0178903
   6.6751673  49.0424913  60.0918903   7.2931673  48.5954913  60.2748903
  10.0041673  64.3094913  60.5708903  10.6261673  64.4724913  61.1608903
  10.0401673  65.0004913  60.0388903  10.1011673  64.4354913  60.5798903
  17.0801673  57.9794913  72.5668903  17.1351673  58.1044913  71.7048903
  17.8331673  58.2994913  72.8688903  17.1991673  58.0444913  72.4838903
  18.1121673  48.2774913  75.5538903  17.4751673  47.8774913  75.1118903
  18.1381673  47.8464913  76.3118903  18.0221673  48.1554913  75.5998903
   4.5051673  56.8434913  61.3998903   4.8291673  56.0644913  61.1778903
   5.1511673  57.2114913  61.8548903   4.6481673  56.7824913  61.4338903
  12.8111673  57.7854913  72.1668903  12.6561673  58.3954913  72.7708903
  13.3451673  57.2274913  72.5728903  12.8671673  57.7934913  72.3158903
  11.1951673  56.1854913  62.8248903  11.2541673  56.8354913  63.4038903
  11.0061673  55.4894913  63.3158903  11.1761673  56.1784913  62.9828903
  16.4211673  60.5144913  68.6938903  15.9421673  60.8124913  68.0278903
  16.0651673  59.7384913  68.8718903  16.2981673  60.4434913  68.6218903
   5.6911673  50.7024913  59.3368903   5.1801673  50.7554913  58.6308903
   6.4751673  50.9424913  59.0408903   5.7311673  50.7454913  59.1888903
  10.4181673  58.2324913  67.2558903   9.5711673  58.0384913  67.3368903
  10.7421673  58.0674913  68.0488903  10.3401673  58.1794913  67.3848903
   7.1701673  64.9624913  58.1418903   7.6091673  64.2654913  58.4298903
   7.3771673  65.5864913  58.7148903   7.2661673  64.9514913  58.2688903
   4.2661673  57.9254913  69.5718903   4.9881673  58.4134913  69.5348903
   3.9961673  57.8954913  68.7428903   4.3331673  57.9934913  69.4438903
   7.4961673  53.0964913  66.3068903   8.3421673  52.9064913  66.4048903
   7.1261673  52.3194913  66.1688903   7.5661673  52.9534913  66.3008903
  20.1131673  64.6804913  60.6338903  20.8071673  64.2134913  60.3858903
  19.5741673  64.0824913  60.9708903  20.1361673  64.5224913  60.6468903
   2.3171673  54.4344913  62.9618903   2.8061673  54.1424913  63.6228903
   2.4461673  53.8414913  62.3348903   2.4081673  54.3034913  62.9668903
  17.3521673  57.4564913  69.8128903  17.3451673  56.6804913  70.2108903
  16.5111673  57.6904913  69.8058903  17.2271673  57.3764913  69.8708903
   6.8421673  55.8684913  58.4478903   6.2321673  55.4634913  58.9218903
   6.4561673  55.9864913  57.6748903   6.6951673  55.8254913  58.4038903
   3.6611673  58.9774913  73.8498903   3.2401673  58.4594913  73.2888903
   3.3091673  59.7634913  73.7068903   3.5471673  59.0174913  73.7458903
  18.6081673  57.5274913  67.2498903  18.3221673  57.9284913  67.9698903
  19.4681673  57.4654913  67.3768903  18.6931673  57.5774913  67.3748903
   8.2971673  54.3294913  61.1578903   8.5691673  55.1554913  61.2248903
   7.4341673  54.4044913  61.0618903   8.2101673  54.4624913  61.1528903
  16.2701673  51.4514913  75.7898903  15.7451673  51.9104913  76.3138903
  15.9091673  50.6564913  75.7838903  16.1391673  51.4014913  75.8658903
   1.7771673  50.2994913  67.6938903   1.8211673  50.6434913  66.8928903
   2.5321673  50.5364913  68.0608903   1.8951673  50.3854913  67.6298903
  19.7391673  63.1604913  67.7788903  20.0291673  63.4174913  66.9978903
  20.4341673  63.2564913  68.2978903  19.8851673  63.2124913  67.7398903
  14.7621673  55.0204913  75.8658903  14.8351673  55.1244913  76.7288903
  14.1281673  55.5784913  75.6448903  14.6791673  55.1184913  75.9608903
  17.0301673  55.3394913  74.2308903  17.3491673  56.1254913  74.4338903
  16.6601673  55.0694913  74.9738903  17.0231673  55.4154913  74.3708903
  16.3441673  61.7634913  59.7608903  16.6781673  60.9574913  59.7958903
  15.5891673  61.6914913  60.1908903  16.2821673  61.6334913  59.8298903
  16.8261673  53.5974913  65.4198903  16.0811673  53.2744913  65.7378903
  16.8281673  54.4234913  65.6998903  16.7161673  53.6714913  65.5078903
  19.2661673  59.5574913  73.1718903  19.8941673  59.0084913  72.9158903
  19.2051673  60.1224913  72.5098903  19.3501673  59.5604913  73.0358903
  13.7181673  59.6384913  59.1638903  14.4021673  59.1244913  58.9948903
  13.3011673  59.6844913  58.3988903  13.7571673  59.5694913  59.0258903
   8.4001673  60.7884913  70.4678903   8.1021673  61.3804913  71.0348903
   8.4551673  61.2304913  69.7188903   8.3641673  60.9414913  70.4408903
   6.3791673  59.7384913  73.8658903   5.5731673  59.4484913  74.0328903
   6.2901673  60.6064913  73.8718903   6.2471673  59.8234913  73.8908903
  15.7381673  49.9274913  72.8808903  16.4821673  50.3794913  72.8178903
  15.1721673  50.3974913  72.4118903  15.7651673  50.0644913  72.8028903
  10.9161673  57.2114913  69.9588903  11.3921673  57.5854913  70.5868903
  10.0931673  57.3454913  70.2178903  10.8651673  57.2864913  70.0898903
   7.6261673  52.8144913  72.6998903   7.7871673  52.0704913  73.1268903
   7.5811673  52.5654913  71.8648903   7.6431673  52.6674913  72.6398903
  10.1801673  64.6044913  65.1868903  10.7261673  65.2834913  65.2408903
   9.8301673  64.6864913  64.3918903  10.2091673  64.7174913  65.0768903
  17.0231673  47.9074913  70.5508903  16.7431673  48.7324913  70.5068903
  17.7391673  47.9604913  71.0468903  17.0881673  48.0374913  70.6178903
   9.3781673  48.6224913  72.5798903  10.0831673  48.9424913  72.1778903
   9.6191673  47.8154913  72.8068903   9.5171673  48.5504913  72.5538903
   8.3631673  62.8324913  68.5758903   7.7391673  63.4144913  68.3938903
   8.6111673  62.5464913  67.7898903   8.3071673  62.8764913  68.4328903
  12.6721673  59.4664913  75.5648903  13.4291673  59.7524913  75.2388903
  12.1251673  59.5184913  74.8868903  12.7031673  59.5164913  75.4158903
  16.5811673  62.0164913  74.0688903  16.9271673  62.2864913  74.8228903
  16.8751673  62.5984913  73.4888903  16.6761673  62.1424913  74.0948903
  18.4441673  54.1624913  59.4078903  18.8221673  54.8394913  59.0078903
  17.6021673  54.3864913  59.4388903  18.3751673  54.2954913  59.3528903
   9.9571673  57.6084913  58.4908903   9.1521673  57.4314913  58.2058903
   9.9241673  58.4594913  58.6828903   9.8331673  57.7074913  58.4778903
   5.8871673  53.6754913  68.6408903   6.3271673  53.5724913  67.8948903
   6.4321673  53.3624913  69.2458903   6.0321673  53.6144913  68.6198903
  13.9031673  52.7774913  74.2328903  13.2551673  53.2474913  74.5808903
  14.4681673  52.6884913  74.8918903  13.8911673  52.8334913  74.3818903
  13.5911673  54.3144913  70.5308903  13.8931673  54.7344913  71.2338903
  13.6271673  53.4744913  70.7628903  13.6411673  54.2524913  70.6688903
  11.0161673  64.4814913  74.4558903  11.4941673  63.8814913  74.0398903
  10.6651673  64.0384913  75.1208903  11.0351673  64.3274913  74.4928903
  16.1391673  53.7614913  62.7828903  16.3461673  53.5604913  63.6068903
  16.8951673  54.0294913  62.4408903  16.2811673  53.7714913  62.8538903
   9.4341673  48.6604913  68.6878903   8.6081673  48.5114913  68.9248903
   9.3941673  48.6954913  67.8168903   9.3061673  48.6434913  68.5938903
  17.1611673  49.8444913  64.2568903  16.4471673  49.3734913  64.4278903
  16.9991673  50.1854913  63.4708903  17.0321673  49.8254913  64.1658903
  17.6041673  57.7884913  62.6368903  18.0801673  57.0594913  62.5888903
  16.7831673  57.5024913  62.5608903  17.5531673  57.6384913  62.6178903
  11.0751673  59.7004913  73.4758903  10.2801673  59.6364913  73.8268903
  11.1461673  60.5474913  73.2808903  10.9681673  59.8154913  73.4988903
   6.9051673  65.9074913  68.7928903   6.9161673  65.9664913  69.6628903
   6.4801673  65.1604913  68.6428903   6.8441673  65.8054913  68.8988903
   5.0631673  51.8024913  61.9478903   5.1891673  51.4734913  61.1498903
   4.2511673  51.5534913  62.1468903   4.9621673  51.7174913  61.8598903
  13.8201673  58.9554913  64.9918903  13.8961673  59.2964913  65.7908903
  13.9891673  58.1084913  65.1128903  13.8561673  58.8804913  65.1278903
  11.3421673  58.2294913  64.5568903  11.0441673  57.9144913  65.3138903
  12.0371673  58.7024913  64.7918903  11.4011673  58.2524913  64.7038903
  11.5641673  62.3474913  72.5838903  12.2511673  62.2334913  73.1088903
  11.6981673  63.1384913  72.2398903  11.6851673  62.4474913  72.6108903
  19.7401673  54.9564913  74.3948903  18.8851673  54.8344913  74.5208903
  19.8931673  54.5614913  73.6318903  19.6361673  54.8794913  74.3008903
  14.2531673  55.6214913  72.9708903  13.9981673  54.9024913  73.3928903
  15.0741673  55.7374913  73.2408903  14.3371673  55.5324913  73.0728903
   3.6691673  65.4054913  74.2348903   3.0151673  64.8364913  74.3328903
   3.2941673  66.1784913  74.3858903   3.5171673  65.4354913  74.2718903
  12.1871673  56.8114913  76.1578903  12.5101673  57.4974913  75.7258903
  11.4831673  57.1344913  76.5598903  12.1301673  56.9604913  76.1528903
  15.2711673  65.1854913  67.0868903  14.8201673  65.8284913  67.4658903
  15.9791673  65.1064913  67.5918903  15.3091673  65.2684913  67.2178903
  11.9721673  60.2754913  70.0168903  11.2781673  60.6774913  70.3598903
  12.6491673  60.7084913  70.3558903  11.9691673  60.3984913  70.1178903
   5.0401673  53.8134913  72.3638903   5.4151673  54.4324913  71.8768903
   5.7141673  53.3394913  72.6488903   5.1951673  53.8354913  72.3338903
   2.8151673  52.2614913  71.6388903   2.8921673  52.0924913  70.7858903
   3.5611673  52.6674913  71.8358903   2.9361673  52.2964913  71.5418903
  18.3741673  54.9014913  62.0788903  18.4771673  54.8434913  61.2148903
  19.1151673  54.5694913  62.3968903  18.4991673  54.8444913  61.9978903
   5.3691673  49.6714913  74.0498903   5.2881673  48.8274913  74.2558903
   5.0551673  49.7154913  73.2368903   5.3111673  49.5534913  73.9598903
  12.2941673  61.8664913  63.1858903  12.0891673  62.6994913  63.0268903
  11.5191673  61.4844913  63.3078903  12.1491673  61.9334913  63.1808903
  17.4761673  55.0474913  71.4348903  17.4741673  54.1844913  71.5588903
  17.5431673  55.3714913  72.2418903  17.4861673  54.9674913  71.5718903
   2.2121673  57.4874913  71.8628903   2.5321673  57.7064913  71.0818903
   2.1121673  56.6224913  71.8078903   2.2441673  57.3924913  71.7398903
   3.6681673  53.4234913  58.4808903   2.9961673  53.4374913  59.0368903
   3.7631673  52.5754913  58.2968903   3.5831673  53.3004913  58.5358903
  13.3551673  49.8474913  75.2168903  13.4471673  50.5594913  75.7108903
  12.7181673  49.4024913  75.6138903  13.2741673  49.8864913  75.3488903
  12.3491673  50.0374913  66.0708903  11.6491673  50.5554913  66.0148903
  12.3871673  49.6574913  65.2868903  12.2511673  50.0584913  65.9468903
   7.6561673  62.1284913  59.5948903   8.0971673  62.2084913  60.3428903
   6.8511673  61.9124913  59.8528903   7.6021673  62.1084913  59.7438903
  15.9471673  50.5534913  68.8708903  16.8021673  50.6524913  69.0158903
  15.5781673  51.1064913  69.4358903  16.0191673  50.6504913  68.9758903
   6.9751673  56.7794913  73.2478903   6.5791673  57.5534913  73.3228903
   6.5691673  56.4064913  72.5718903   6.8571673  56.8384913  73.1588903
  16.2511673  55.8334913  67.3618903  16.9171673  56.3744913  67.5218903
  15.9061673  56.1444913  66.6228903  16.2981673  55.9594913  67.2768903
  16.5641673  63.8994913  63.1688903  16.3901673  63.2454913  63.7188903
  17.2771673  63.6284913  62.7458903  16.6441673  63.7624913  63.1878903
   4.9851673  61.1984913  60.1958903   4.7411673  60.8914913  60.9758903
   4.9521673  60.4954913  59.6798903   4.9441673  61.0494913  60.2348903
   7.8041673  59.4434913  58.9388903   6.9861673  59.1754913  59.0788903
   7.7761673  60.2954913  59.1238903   7.6791673  59.5304913  58.9868903
   7.4041673  49.7564913  70.6978903   6.5401673  49.8404913  70.7778903
   7.6241673  49.2424913  71.3668903   7.3091673  49.6934913  70.8088903
  19.4221673  48.3914913  72.0268903  19.3701673  48.3474913  72.8968903
  20.1091673  47.8884913  71.8368903  19.5161673  48.3114913  72.1268903
  11.5071673  50.5044913  69.0718903  10.7701673  50.0504913  69.1848903
  12.0781673  50.1024913  69.5948903  11.4821673  50.3774913  69.1658903
  14.2391673  61.3524913  70.8598903  14.4451673  61.6534913  71.6518903
  14.1781673  62.0744913  70.3748903  14.2601673  61.5034913  70.9048903
  13.7731673  65.5664913  75.1058903  13.0201673  65.5484913  74.6648903
  13.9411673  66.4184913  75.1898903  13.6871673  65.6894913  75.0528903
   9.0101673  54.8334913  74.2758903   8.6881673  54.2574913  73.7058903
   8.6511673  55.5884913  74.0298903   8.9101673  54.8594913  74.1558903
   9.8061673  48.0854913  58.9028903   9.8841673  48.3324913  58.0698903
   9.0631673  48.4624913  59.1608903   9.7081673  48.1774913  58.8178903
  19.0511673  59.9914913  70.3178903  19.0191673  59.1294913  70.1828903
  18.3581673  60.2934913  69.8838903  18.9441673  59.9084913  70.2338903
   7.4451673  65.1894913  74.5238903   7.4861673  65.3154913  75.3868903
   8.0961673  64.6294913  74.3678903   7.5471673  65.1254913  74.6288903
  17.1561673  63.2514913  69.1148903  17.6831673  63.1684913  68.4238903
  16.7651673  62.4734913  69.1688903  17.1761673  63.1244913  69.0208903
   4.6241673  49.8394913  71.3458903   4.2811673  49.0724913  71.1118903
   3.9291673  50.3634913  71.4098903   4.4711673  49.8034913  71.3208903
  13.6701673  48.6954913  68.3228903  14.3401673  49.2394913  68.4498903
  13.1671673  49.1194913  67.7498903  13.6951673  48.8384913  68.2568903
   5.0381673  63.5724913  75.8838903   5.6331673  64.0034913  76.3558903
   4.6741673  64.1964913  75.3948903   5.0721673  63.7284913  75.8808903
  13.0291673  54.5034913  65.8158903  13.5801673  53.8964913  66.1158903
  12.6041673  54.7664913  66.5308903  13.0481673  54.4524913  65.9648903
   3.2771673  53.1534913  65.3018903   2.9091673  53.4554913  66.0328903
   3.8111673  52.5244913  65.5858903   3.3011673  53.1054913  65.4518903
   2.9651673  61.5614913  72.8128903   2.3911673  61.9774913  73.3218903
   3.6981673  62.0264913  72.9078903   2.9891673  61.6914913  72.9018903
  14.9991673  56.3344913  62.3778903  15.0671673  55.4844913  62.5588903
  14.1761673  56.4204913  62.0998903  14.8871673  56.2214913  62.3638903
   4.7511673  64.8284913  61.5878903   4.6061673  64.9844913  60.7418903
   5.6171673  64.9074913  61.6658903   4.8581673  64.8634913  61.4748903
   8.9181673  57.2254913  61.3158903   9.0181673  57.3644913  60.4608903
   9.7361673  57.1654913  61.6118903   9.0531673  57.2364913  61.2328903
  18.0781673  65.2894913  58.7958903  18.7151673  65.1554913  59.3768903
  17.7371673  64.4954913  58.6788903  18.1221673  65.1524913  58.8638903
  18.2731673  57.7074913  75.5288903  18.9071673  57.5374913  76.1028903
  18.6901673  58.1104913  74.8768903  18.4281673  57.7424913  75.5178903
  14.1531673  61.5544913  61.1178903  13.9021673  61.4264913  61.9438903
  13.8361673  60.8594913  60.6968903  14.0691673  61.4334913  61.1778903
  18.8981673  52.2714913  76.2668903  18.7021673  52.9154913  76.8218903
  18.1761673  51.7814913  76.2588903  18.7631673  52.2944913  76.3478903
  18.7971673  53.2124913  69.2378903  17.9641673  53.4624913  69.1658903
  18.7411673  52.3724913  69.4668903  18.6661673  53.1254913  69.2608903
   8.0571673  50.2004913  74.4318903   8.2911673  49.6244913  73.8188903
   7.2151673  50.0194913  74.5728903   7.9671673  50.0884913  74.3618903
  15.6841673  57.8184913  76.8838903  16.5551673  57.7824913  76.8478903
  15.4651673  58.2384913  76.1518903  15.7811673  57.8744913  76.7708903
   5.4381673  63.6434913  68.0648903   5.3591673  62.8334913  67.7488903
   4.9941673  64.1304913  67.4928903   5.3611673  63.5954913  67.9338903
  11.0391673  59.7624913  60.5478903  11.7561673  59.4154913  60.1918903
  11.0051673  60.5624913  60.1998903  11.1401673  59.8294913  60.4438903
   3.0101673  65.8874913  71.6458903   3.5031673  65.8314913  72.3638903
   3.1981673  65.1544913  71.2108903   3.1111673  65.7704913  71.6878903
  12.4481673  48.4034913  44.7866493  12.2031673  48.8914913  44.1066493
  13.3111673  48.3304913  44.6866493  12.5391673  48.4644913  44.6716493
  12.2571673  55.3194913  49.4576493  11.7331673  55.9154913  49.8206493
  12.6541673  54.9514913  50.1416493  12.2381673  55.3534913  49.6126493
  18.4011673  62.7604913  42.4286493  19.1021673  62.2414913  42.4246493
  17.8141673  62.3154913  41.9596493  18.4181673  62.6174913  42.3586493
   5.0081673  58.5144913  40.0926493   4.6161673  58.1434913  39.4066493
   4.9281673  57.9164913  40.7216493   4.9381673  58.3714913  40.0836493
  14.9281673  56.3864913  46.1336493  15.0081673  56.3904913  45.2646493
  14.3441673  55.7544913  46.2826493  14.8531673  56.2934913  46.0276493
   4.6351673  60.1554913  43.9926493   5.2431673  59.9854913  44.5956493
   3.8841673  60.0154913  44.4136493   4.6141673  60.1094913  44.1436493
   8.9171673  49.4904913  43.9416493   8.8471673  50.1674913  43.3956493
   9.6581673  49.1024913  43.6926493   9.0161673  49.5334913  43.8236493
   3.5261673  63.2464913  40.0696493   3.9931673  63.3304913  39.3376493
   3.9811673  62.6684913  40.5386493   3.6621673  63.1734913  40.0306493
   8.6401673  59.7194913  56.2356493   8.4041673  59.7164913  57.0756493
   7.8921673  59.5714913  55.8116493   8.4941673  59.6964913  56.2966493
   3.5121673  56.7154913  45.3706493   3.0501673  56.3234913  44.7436493
   4.2121673  56.2024913  45.4626493   3.5471673  56.5824913  45.2916493
   8.0201673  52.3254913  50.7176493   8.6981673  52.3434913  50.1686493
   7.9751673  51.4894913  50.9626493   8.1131673  52.2044913  50.6726493
   8.6221673  62.9114913  53.4986493   8.7601673  63.6714913  53.0916493
   9.4131673  62.5464913  53.5256493   8.7591673  62.9704913  53.4426493
   5.5131673  54.8154913  45.3936493   6.3301673  54.6284913  45.6366493
   5.0361673  54.2014913  45.7896493   5.5631673  54.6974913  45.4886493
   9.7171673  60.7964913  48.0036493  10.0651673  59.9974913  48.0336493
  10.3821673  61.3004913  47.7486493   9.8671673  60.7524913  47.9706493
   9.7741673  60.2454913  44.2146493  10.1051673  59.6014913  44.7006493
  10.0141673  60.0344913  43.4036493   9.8581673  60.1194913  44.1666493
  11.7421673  54.3764913  55.5536493  10.8941673  54.2774913  55.3756493
  11.7711673  55.1214913  56.0076493  11.6211673  54.4724913  55.5946493
   6.1101673  49.9094913  44.6596493   5.8141673  50.4104913  44.0096493
   6.9771673  49.9874913  44.6026493   6.1941673  49.9954913  44.5556493
  16.3001673  47.3364913  54.6676493  16.1421673  48.1054913  54.2856493
  15.5281673  47.1164913  55.0116493  16.1621673  47.4174913  54.6626493
   9.0891673  49.0514913  46.8826493   9.1621673  49.9114913  47.0116493
   9.0511673  48.9764913  46.0146493   9.0941673  49.1674913  46.7736493
  13.7621673  51.9774913  39.1816493  13.3121673  52.6584913  39.4886493
  13.8761673  51.4734913  39.8846493  13.7131673  52.0034913  39.3306493
   7.7181673  62.0304913  43.7636493   7.1391673  61.7554913  44.3556493
   8.3421673  61.4214913  43.7886493   7.7251673  61.9004913  43.8546493
  13.8611673  64.3184913  41.2856493  14.5881673  64.7904913  41.3876493
  14.0901673  63.5244913  41.5656493  14.0031673  64.2714913  41.3426493
  12.0291673  64.7104913  43.2756493  12.2431673  65.2374913  43.9376493
  12.7961673  64.5364913  42.8966493  12.1741673  64.7624913  43.3176493
   4.9971673  49.2934913  48.8746493   4.4761673  48.6654913  48.5666493
   5.5881673  48.8564913  49.3456493   5.0081673  49.1354913  48.8986493
   8.3031673  51.4264913  58.1726493   8.4201673  50.9724913  57.4366493
   8.5911673  52.2244913  57.9696493   8.3631673  51.4774913  58.0336493
   3.4231673  62.8564913  44.2146493   4.0791673  62.2814913  44.2296493
   3.8121673  63.6054913  43.9936493   3.5781673  62.8814913  44.1846493
  19.1561673  51.9504913  45.4766493  18.8101673  52.6284913  45.9026493
  18.5201673  51.3524913  45.4926493  19.0111673  51.9624913  45.5416493
  14.4681673  64.7204913  51.5806493  15.2121673  65.1764913  51.5706493
  14.3471673  64.5064913  50.7436493  14.5601673  64.7564913  51.4556493
   4.0361673  51.0234913  57.1566493   3.2581673  50.6334913  57.0846493
   4.5271673  50.6114913  56.5656493   3.9931673  50.9044913  57.0586493
   4.2411673  61.3434913  47.7146493   4.6641673  60.9874913  47.0406493
   4.5651673  60.9214913  48.4066493   4.3511673  61.2284913  47.7176493
   7.4721673  64.1954913  47.0106493   8.3161673  64.2994913  46.8156493
   7.1751673  65.0134913  47.0786493   7.5531673  64.3314913  46.9916493
  10.6851673  48.6664913  56.3246493  10.8631673  47.8574913  56.0496493
  10.5421673  49.1074913  55.5856493  10.6901673  48.6124913  56.1746493
  11.2791673  53.5924913  45.0976493  11.5661673  53.3604913  44.3076493
  12.0111673  53.6714913  45.5666493  11.4291673  53.5694913  45.0506493
  12.0011673  53.9314913  40.2186493  12.2821673  54.7194913  40.4676493
  11.2251673  54.0964913  39.8556493  11.9281673  54.0724913  40.2016493
  16.0421673  65.9054913  41.6856493  16.7071673  65.7574913  41.1406493
  16.4021673  65.8224913  42.4756493  16.1941673  65.8714913  41.7216493
   6.4701673  65.4144913  52.7506493   6.7621673  65.3474913  53.5706493
   5.8441673  64.8094913  52.7056493   6.4211673  65.3154913  52.8656493
  18.8311673  50.2734913  50.8456493  19.5881673  50.3454913  50.4176493
  18.8941673  49.5004913  51.2446493  18.9521673  50.1704913  50.8406493
  13.7221673  61.9054913  55.2846493  13.6881673  62.2874913  56.0686493
  14.5761673  61.8634913  55.1136493  13.8431673  61.9554913  55.3756493
  10.8601673  62.1024913  40.0346493  10.6791673  62.6474913  40.6916493
  11.6261673  62.3924913  39.7336493  10.9461673  62.2264913  40.0876493
  14.3671673  49.9984913  41.0886493  14.9071673  49.3164913  41.1646493
  14.4291673  50.3964913  41.8626493  14.4561673  49.9564913  41.2146493
   2.3211673  51.1664913  43.6576493   2.2071673  50.3024913  43.6886493
   1.8461673  51.4604913  44.3276493   2.2341673  51.0824913  43.7606493
   4.4631673  63.5764913  51.8726493   3.7651673  63.0684913  51.9986493
   4.7231673  63.3714913  51.0646493   4.3981673  63.4714913  51.7716493
  11.6251673  52.3744913  42.4026493  11.1171673  51.7124913  42.1486493
  11.6771673  52.8784913  41.6926493  11.5581673  52.3514913  42.2606493
  12.1741673  65.0694913  52.7826493  12.9421673  64.9894913  52.3766493
  11.5911673  64.9484913  52.1446493  12.2011673  65.0394913  52.6286493
  11.6251673  49.3154913  42.2936493  11.1701673  48.9134913  41.6676493
  12.3981673  49.4704913  41.9186493  11.6721673  49.2794913  42.1456493
  18.4511673  65.6724913  45.6836493  17.9961673  66.3894913  45.8846493
  17.8371673  65.1014913  45.4416493  18.2931673  65.6944913  45.6776493
  10.2231673  51.6824913  46.8156493  10.2971673  52.2504913  46.1576493
  10.3441673  52.1744913  47.5256493  10.2511673  51.8394913  46.8236493
  15.4481673  61.5174913  45.2276493  16.1491673  61.0354913  45.4166493
  14.7881673  60.9484913  45.2726493  15.4541673  61.3624913  45.2616493
   5.8241673  62.4274913  54.4396493   6.6651673  62.4904913  54.2176493
   5.7871673  62.8244913  55.2156493   5.9431673  62.4954913  54.5216493
   4.8311673  47.5054913  45.1636493   5.3671673  48.1934913  45.1536493
   4.8341673  47.2314913  44.3356493   4.9101673  47.5664913  45.0396493
   7.7871673  57.9384913  49.1886493   7.9591673  57.7284913  50.0176493
   7.1321673  57.4044913  48.9726493   7.7161673  57.8284913  49.2796493
  14.0151673  51.8524913  52.7036493  13.9201673  52.1714913  53.5096493
  13.4221673  51.2134913  52.6656493  13.9131673  51.8044913  52.8176493
   8.5371673  57.8764913  51.7786493   8.5901673  58.7234913  51.9806493
   8.2521673  57.5064913  52.5156493   8.5031673  57.9464913  51.9166493
  14.7141673  58.5714913  50.9086493  14.2001673  58.1594913  51.4796493
  14.5881673  59.4154913  51.0896493  14.6201673  58.6354913  51.0196493
  15.2711673  47.7964913  45.5396493  15.3201673  47.4784913  46.3506493
  15.5941673  47.1524913  45.0466493  15.3261673  47.6544913  45.5866493
  17.7351673  52.0324913  53.8476493  18.5071673  51.8074913  54.1846493
  17.2601673  52.2494913  54.5476493  17.7791673  52.0314913  54.0006493
   5.2791673  51.3154913  46.8176493   5.5511673  50.8854913  46.1096493
   5.1031673  50.6794913  47.3886493   5.2931673  51.1584913  46.7976493
  17.9671673  59.0104913  41.0356493  18.0861673  58.7234913  41.8506493
  18.7741673  59.0314913  40.7056493  18.1031673  58.9714913  41.1076493
   5.1031673  58.7424913  46.3666493   5.9541673  58.6624913  46.1936493
   4.7461673  58.0604913  45.9546493   5.1761673  58.6294913  46.2796493
   3.8701673  65.4674913  47.6036493   3.1971673  64.9694913  47.3586493
   4.2731673  65.6524913  46.8526493   3.8301673  65.4214913  47.4566493
   3.4201673  52.4174913  49.8996493   4.2631673  52.6374913  49.8566493
   3.0311673  52.9904913  49.3686493   3.4871673  52.5344913  49.8146493
  20.2011673  63.5194913  55.2896493  19.5191673  63.8294913  54.8426493
  19.8321673  63.0614913  55.9346493  20.0451673  63.4974913  55.3186493
  15.8621673  55.5474913  40.6206493  15.6421673  56.2784913  40.1986493
  15.4141673  55.5984913  41.3676493  15.7631673  55.6624913  40.6686493
   7.4711673  58.7494913  44.6016493   8.1841673  59.2444913  44.6916493
   7.6931673  58.1824913  43.9756493   7.6091673  58.7384913  44.5226493
  20.0491673  50.4084913  40.0736493  19.3871673  49.8404913  40.0966493
  19.8561673  50.9204913  39.3936493  19.9231673  50.4004913  39.9766493
   9.2741673  54.1024913  58.0176493   8.7901673  54.6794913  58.4596493
   9.2461673  54.3974913  57.1966493   9.1981673  54.2314913  57.9616493
  20.3721673  54.7864913  52.6296493  20.5871673  53.9864913  52.3536493
  19.5221673  54.8464913  52.4406493  20.2781673  54.6774913  52.5606493
  18.0511673  49.9664913  42.3526493  18.7971673  49.5594913  42.5516493
  18.3141673  50.6814913  41.9276493  18.2001673  50.0124913  42.3196493
  11.9941673  62.4524913  46.9286493  11.4711673  63.0864913  46.6356493
  12.3041673  62.0884913  46.1996493  11.9621673  62.4924913  46.7776493
   6.0691673  60.2404913  49.6886493   6.5361673  60.5294913  50.3666493
   6.6411673  59.7624913  49.2346493   6.2231673  60.2124913  49.7216493
  14.5051673  52.2544913  47.4256493  14.8491673  52.4064913  48.2126493
  14.0521673  51.5164913  47.5386493  14.4891673  52.1674913  47.5586493
   2.6351673  57.9104913  48.2326493   3.0661673  57.7814913  47.4856493
   2.4301673  58.7584913  48.2066493   2.6681673  58.0164913  48.1186493
   8.9811673  51.4744913  41.8826493   8.9791673  51.3574913  41.0176493
   8.8001673  52.3224913  41.9746493   8.9541673  51.5824913  41.7686493
  18.0351673  63.9014913  53.3796493  17.3641673  64.4154913  53.5976493
  18.0981673  64.0014913  52.5156493  17.9451673  63.9924913  53.2846493
   6.7191673  61.4264913  46.5146493   6.8451673  62.2694913  46.7016493
   7.3871673  61.0274913  46.9106493   6.8371673  61.4924913  46.6006493
   4.8491673  54.9094913  56.3766493   4.3131673  54.4034913  56.8446493
   4.8691673  54.5194913  55.5966493   4.7721673  54.7764913  56.3306493
   5.3341673  54.3064913  41.5166493   5.2061673  53.8584913  42.2546493
   4.7521673  53.9644913  40.9646493   5.2291673  54.1894913  41.5446493
   5.5011673  56.1364913  48.1156493   4.7201673  56.0774913  47.7326493
   5.5731673  55.3844913  48.5526493   5.3961673  56.0174913  48.1236493
   5.9311673  55.8734913  51.5836493   5.9561673  55.1984913  51.0326493
   5.2851673  56.3694913  51.2716493   5.8401673  55.8464913  51.4566493
  15.8261673  53.5864913  49.9796493  15.1641673  53.9144913  50.4426493
  16.0131673  54.2204913  49.4106493  15.7561673  53.7284913  49.9636493
  10.0311673  64.6504913  50.9756493   9.7541673  64.0094913  50.4526493
   9.8231673  65.3764913  50.5376493   9.9601673  64.6634913  50.8336493
  12.4711673  49.4924913  53.4086493  12.6201673  48.6674913  53.1656493
  12.8501673  49.5474913  54.1926493  12.5491673  49.3784913  53.4886493
  14.0191673  51.5554913  43.4906493  14.5091673  52.2724913  43.4136493
  13.2291673  51.8164913  43.2276493  13.9751673  51.6994913  43.4406493
   3.7301673  57.2284913  57.1426493   3.6931673  57.7294913  56.4286493
   4.0611673  56.4764913  56.8476493   3.7731673  57.1904913  56.9936493
  15.3331673  59.4334913  55.4006493  15.8171673  60.1514913  55.4986493
  15.7271673  59.0064913  54.7496493  15.4631673  59.4764913  55.3186493
   9.6291673  62.2784913  56.5776493   9.9831673  62.1004913  57.3546493
   9.1931673  61.5494913  56.3786493   9.6171673  62.1444913  56.6636493
  10.6011673  53.0254913  49.2156493  11.0811673  53.7244913  49.4236493
  10.9741673  52.3784913  49.6666493  10.7271673  53.0334913  49.3126493
  12.7901673  56.1944913  41.4896493  12.7821673  56.9164913  40.9996493
  12.1511673  56.3294913  42.0666493  12.6951673  56.3214913  41.5026493
  17.7621673  60.0644913  45.4706493  18.1181673  59.7144913  46.1856493
  17.7541673  59.4034913  44.9006493  17.8141673  59.9144913  45.4916493
  13.8071673  63.1304913  49.3146493  13.2041673  62.8344913  48.7576493
  14.3521673  63.5824913  48.8056493  13.7981673  63.1534913  49.1566493
  13.8201673  59.9814913  48.7146493  13.0231673  60.2054913  48.9886493
  14.0781673  59.3874913  49.2996493  13.7401673  59.9264913  48.8416493
   7.7121673  64.7934913  43.1626493   7.5651673  64.0174913  43.5336493
   8.4011673  64.6464913  42.6476493   7.7921673  64.6564913  43.1416493
   7.3831673  48.5364913  41.1506493   7.4801673  48.4294913  42.0116493
   6.6751673  49.0424913  41.0856493   7.2931673  48.5954913  41.2686493
  10.0041673  64.3094913  41.5646493  10.6261673  64.4724913  42.1546493
  10.0401673  65.0004913  41.0326493  10.1011673  64.4354913  41.5736493
  17.0801673  57.9794913  53.5606493  17.1351673  58.1044913  52.6986493
  17.8331673  58.2994913  53.8626493  17.1991673  58.0444913  53.4776493
  13.2711673  63.3284913  57.8376493  13.4351673  63.6114913  58.6466493
  13.5341673  63.9894913  57.3326493  13.3341673  63.4684913  57.8826493
  18.1121673  48.2774913  56.5476493  17.4751673  47.8774913  56.1056493
  18.1381673  47.8464913  57.3056493  18.0221673  48.1554913  56.5936493
   4.5051673  56.8434913  42.3936493   4.8291673  56.0644913  42.1716493
   5.1511673  57.2114913  42.8486493   4.6481673  56.7824913  42.4276493
  12.8111673  57.7854913  53.1606493  12.6561673  58.3954913  53.7646493
  13.3451673  57.2274913  53.5666493  12.8671673  57.7934913  53.3096493
  11.1951673  56.1854913  43.8186493  11.2541673  56.8354913  44.3976493
  11.0061673  55.4894913  44.3096493  11.1761673  56.1784913  43.9766493
  16.4211673  60.5144913  49.6876493  15.9421673  60.8124913  49.0216493
  16.0651673  59.7384913  49.8656493  16.2981673  60.4434913  49.6156493
   5.6911673  50.7024913  40.3306493   5.1801673  50.7554913  39.6246493
   6.4751673  50.9424913  40.0346493   5.7311673  50.7454913  40.1826493
  10.4181673  58.2324913  48.2496493   9.5711673  58.0384913  48.3306493
  10.7421673  58.0674913  49.0426493  10.3401673  58.1794913  48.3786493
   7.1701673  64.9624913  39.1356493   7.6091673  64.2654913  39.4236493
   7.3771673  65.5864913  39.7086493   7.2661673  64.9514913  39.2626493
   4.2661673  57.9254913  50.5656493   4.9881673  58.4134913  50.5286493
   3.9961673  57.8954913  49.7366493   4.3331673  57.9934913  50.4376493
   7.4961673  53.0964913  47.3006493   8.3421673  52.9064913  47.3986493
   7.1261673  52.3194913  47.1626493   7.5661673  52.9534913  47.2946493
  20.1131673  64.6804913  41.6276493  20.8071673  64.2134913  41.3796493
  19.5741673  64.0824913  41.9646493  20.1361673  64.5224913  41.6406493
   2.3171673  54.4344913  43.9556493   2.8061673  54.1424913  44.6166493
   2.4461673  53.8414913  43.3286493   2.4081673  54.3034913  43.9606493
  17.3521673  57.4564913  50.8066493  17.3451673  56.6804913  51.2046493
  16.5111673  57.6904913  50.7996493  17.2271673  57.3764913  50.8646493
   6.8421673  55.8684913  39.4416493   6.2321673  55.4634913  39.9156493
   6.4561673  55.9864913  38.6686493   6.6951673  55.8254913  39.3976493
   3.6611673  58.9774913  54.8436493   3.2401673  58.4594913  54.2826493
   3.3091673  59.7634913  54.7006493   3.5471673  59.0174913  54.7396493
  18.6081673  57.5274913  48.2436493  18.3221673  57.9284913  48.9636493
  19.4681673  57.4654913  48.3706493  18.6931673  57.5774913  48.3686493
   8.2971673  54.3294913  42.1516493   8.5691673  55.1554913  42.2186493
   7.4341673  54.4044913  42.0556493   8.2101673  54.4624913  42.1466493
  16.2701673  51.4514913  56.7836493  15.7451673  51.9104913  57.3076493
  15.9091673  50.6564913  56.7776493  16.1391673  51.4014913  56.8596493
   1.7771673  50.2994913  48.6876493   1.8211673  50.6434913  47.8866493
   2.5321673  50.5364913  49.0546493   1.8951673  50.3854913  48.6236493
  19.7391673  63.1604913  48.7726493  20.0291673  63.4174913  47.9916493
  20.4341673  63.2564913  49.2916493  19.8851673  63.2124913  48.7336493
  14.7621673  55.0204913  56.8596493  14.8351673  55.1244913  57.7226493
  14.1281673  55.5784913  56.6386493  14.6791673  55.1184913  56.9546493
  17.0301673  55.3394913  55.2246493  17.3491673  56.1254913  55.4276493
  16.6601673  55.0694913  55.9676493  17.0231673  55.4154913  55.3646493
  16.3441673  61.7634913  40.7546493  16.6781673  60.9574913  40.7896493
  15.5891673  61.6914913  41.1846493  16.2821673  61.6334913  40.8236493
  16.8261673  53.5974913  46.4136493  16.0811673  53.2744913  46.7316493
  16.8281673  54.4234913  46.6936493  16.7161673  53.6714913  46.5016493
  19.7281673  55.8814913  57.9596493  19.6761673  55.5404913  57.1586493
  20.4651673  56.3484913  57.9376493  19.8291673  55.9004913  57.8376493
  19.2661673  59.5574913  54.1656493  19.8941673  59.0084913  53.9096493
  19.2051673  60.1224913  53.5036493  19.3501673  59.5604913  54.0296493
  13.7181673  59.6384913  40.1576493  14.4021673  59.1244913  39.9886493
  13.3011673  59.6844913  39.3926493  13.7571673  59.5694913  40.0196493
   8.4001673  60.7884913  51.4616493   8.1021673  61.3804913  52.0286493
   8.4551673  61.2304913  50.7126493   8.3641673  60.9414913  51.4346493
   6.3791673  59.7384913  54.8596493   5.5731673  59.4484913  55.0266493
   6.2901673  60.6064913  54.8656493   6.2471673  59.8234913  54.8846493
  15.7381673  49.9274913  53.8746493  16.4821673  50.3794913  53.8116493
  15.1721673  50.3974913  53.4056493  15.7651673  50.0644913  53.7966493
  10.9161673  57.2114913  50.9526493  11.3921673  57.5854913  51.5806493
  10.0931673  57.3454913  51.2116493  10.8651673  57.2864913  51.0836493
   7.6261673  52.8144913  53.6936493   7.7871673  52.0704913  54.1206493
   7.5811673  52.5654913  52.8586493   7.6431673  52.6674913  53.6336493
  10.1801673  64.6044913  46.1806493  10.7261673  65.2834913  46.2346493
   9.8301673  64.6864913  45.3856493  10.2091673  64.7174913  46.0706493
  17.0231673  47.9074913  51.5446493  16.7431673  48.7324913  51.5006493
  17.7391673  47.9604913  52.0406493  17.0881673  48.0374913  51.6116493
   9.3781673  48.6224913  53.5736493  10.0831673  48.9424913  53.1716493
   9.6191673  47.8154913  53.8006493   9.5171673  48.5504913  53.5476493
   8.3631673  62.8324913  49.5696493   7.7391673  63.4144913  49.3876493
   8.6111673  62.5464913  48.7836493   8.3071673  62.8764913  49.4266493
  12.6721673  59.4664913  56.5586493  13.4291673  59.7524913  56.2326493
  12.1251673  59.5184913  55.8806493  12.7031673  59.5164913  56.4096493
  16.5811673  62.0164913  55.0626493  16.9271673  62.2864913  55.8166493
  16.8751673  62.5984913  54.4826493  16.6761673  62.1424913  55.0886493
  18.4441673  54.1624913  40.4016493  18.8221673  54.8394913  40.0016493
  17.6021673  54.3864913  40.4326493  18.3751673  54.2954913  40.3466493
   9.9571673  57.6084913  39.4846493   9.1521673  57.4314913  39.1996493
   9.9241673  58.4594913  39.6766493   9.8331673  57.7074913  39.4716493
   5.8871673  53.6754913  49.6346493   6.3271673  53.5724913  48.8886493
   6.4321673  53.3624913  50.2396493   6.0321673  53.6144913  49.6136493
  13.9031673  52.7774913  55.2266493  13.2551673  53.2474913  55.5746493
  14.4681673  52.6884913  55.8856493  13.8911673  52.8334913  55.3756493
  13.5911673  54.3144913  51.5246493  13.8931673  54.7344913  52.2276493
  13.6271673  53.4744913  51.7566493  13.6411673  54.2524913  51.6626493
  11.0161673  64.4814913  55.4496493  11.4941673  63.8814913  55.0336493
  10.6651673  64.0384913  56.1146493  11.0351673  64.3274913  55.4866493
  16.1391673  53.7614913  43.7766493  16.3461673  53.5604913  44.6006493
  16.8951673  54.0294913  43.4346493  16.2811673  53.7714913  43.8476493
   9.4341673  48.6604913  49.6816493   8.6081673  48.5114913  49.9186493
   9.3941673  48.6954913  48.8106493   9.3061673  48.6434913  49.5876493
  17.1611673  49.8444913  45.2506493  16.4471673  49.3734913  45.4216493
  16.9991673  50.1854913  44.4646493  17.0321673  49.8254913  45.1596493
  17.6041673  57.7884913  43.6306493  18.0801673  57.0594913  43.5826493
  16.7831673  57.5024913  43.5546493  17.5531673  57.6384913  43.6116493
  11.0751673  59.7004913  54.4696493  10.2801673  59.6364913  54.8206493
  11.1461673  60.5474913  54.2746493  10.9681673  59.8154913  54.4926493
   6.9051673  65.9074913  49.7866493   6.9161673  65.9664913  50.6566493
   6.4801673  65.1604913  49.6366493   6.8441673  65.8054913  49.8926493
   5.0631673  51.8024913  42.9416493   5.1891673  51.4734913  42.1436493
   4.2511673  51.5534913  43.1406493   4.9621673  51.7174913  42.8536493
  13.8201673  58.9554913  45.9856493  13.8961673  59.2964913  46.7846493
  13.9891673  58.1084913  46.1066493  13.8561673  58.8804913  46.1216493
  11.3421673  58.2294913  45.5506493  11.0441673  57.9144913  46.3076493
  12.0371673  58.7024913  45.7856493  11.4011673  58.2524913  45.6976493
  11.5641673  62.3474913  53.5776493  12.2511673  62.2334913  54.1026493
  11.6981673  63.1384913  53.2336493  11.6851673  62.4474913  53.6046493
  19.7401673  54.9564913  55.3886493  18.8851673  54.8344913  55.5146493
  19.8931673  54.5614913  54.6256493  19.6361673  54.8794913  55.2946493
  14.2531673  55.6214913  53.9646493  13.9981673  54.9024913  54.3866493
  15.0741673  55.7374913  54.2346493  14.3371673  55.5324913  54.0666493
   3.6691673  65.4054913  55.2286493   3.0151673  64.8364913  55.3266493
   3.2941673  66.1784913  55.3796493   3.5171673  65.4354913  55.2656493
  12.1871673  56.8114913  57.1516493  12.5101673  57.4974913  56.7196493
  11.4831673  57.1344913  57.5536493  12.1301673  56.9604913  57.1466493
  15.2711673  65.1854913  48.0806493  14.8201673  65.8284913  48.4596493
  15.9791673  65.1064913  48.5856493  15.3091673  65.2684913  48.2116493
  11.9721673  60.2754913  51.0106493  11.2781673  60.6774913  51.3536493
  12.6491673  60.7084913  51.3496493  11.9691673  60.3984913  51.1116493
  17.3491673  62.8684913  57.5906493  18.1251673  62.4784913  57.6736493
  16.8801673  62.5324913  58.2456493  17.3941673  62.7614913  57.6996493
   5.0401673  53.8134913  53.3576493   5.4151673  54.4324913  52.8706493
   5.7141673  53.3394913  53.6426493   5.1951673  53.8354913  53.3276493
   2.8151673  52.2614913  52.6326493   2.8921673  52.0924913  51.7796493
   3.5611673  52.6674913  52.8296493   2.9361673  52.2964913  52.5356493
  18.3741673  54.9014913  43.0726493  18.4771673  54.8434913  42.2086493
  19.1151673  54.5694913  43.3906493  18.4991673  54.8444913  42.9916493
   5.3691673  49.6714913  55.0436493   5.2881673  48.8274913  55.2496493
   5.0551673  49.7154913  54.2306493   5.3111673  49.5534913  54.9536493
  12.2941673  61.8664913  44.1796493  12.0891673  62.6994913  44.0206493
  11.5191673  61.4844913  44.3016493  12.1491673  61.9334913  44.1746493
  17.4761673  55.0474913  52.4286493  17.4741673  54.1844913  52.5526493
  17.5431673  55.3714913  53.2356493  17.4861673  54.9674913  52.5656493
   2.2121673  57.4874913  52.8566493   2.5321673  57.7064913  52.0756493
   2.1121673  56.6224913  52.8016493   2.2441673  57.3924913  52.7336493
   3.6681673  53.4234913  39.4746493   2.9961673  53.4374913  40.0306493
   3.7631673  52.5754913  39.2906493   3.5831673  53.3004913  39.5296493
  13.3551673  49.8474913  56.2106493  13.4471673  50.5594913  56.7046493
  12.7181673  49.4024913  56.6076493  13.2741673  49.8864913  56.3426493
  12.3491673  50.0374913  47.0646493  11.6491673  50.5554913  47.0086493
  12.3871673  49.6574913  46.2806493  12.2511673  50.0584913  46.9406493
   7.6561673  62.1284913  40.5886493   8.0971673  62.2084913  41.3366493
   6.8511673  61.9124913  40.8466493   7.6021673  62.1084913  40.7376493
  15.9471673  50.5534913  49.8646493  16.8021673  50.6524913  50.0096493
  15.5781673  51.1064913  50.4296493  16.0191673  50.6504913  49.9696493
   6.9751673  56.7794913  54.2416493   6.5791673  57.5534913  54.3166493
   6.5691673  56.4064913  53.5656493   6.8571673  56.8384913  54.1526493
  16.2511673  55.8334913  48.3556493  16.9171673  56.3744913  48.5156493
  15.9061673  56.1444913  47.6166493  16.2981673  55.9594913  48.2706493
  16.5641673  63.8994913  44.1626493  16.3901673  63.2454913  44.7126493
  17.2771673  63.6284913  43.7396493  16.6441673  63.7624913  44.1816493
   4.9851673  61.1984913  41.1896493   4.7411673  60.8914913  41.9696493
   4.9521673  60.4954913  40.6736493   4.9441673  61.0494913  41.2286493
   7.8041673  59.4434913  39.9326493   6.9861673  59.1754913  40.0726493
   7.7761673  60.2954913  40.1176493   7.6791673  59.5304913  39.9806493
   7.4041673  49.7564913  51.6916493   6.5401673  49.8404913  51.7716493
   7.6241673  49.2424913  52.3606493   7.3091673  49.6934913  51.8026493
  19.4221673  48.3914913  53.0206493  19.3701673  48.3474913  53.8906493
  20.1091673  47.8884913  52.8306493  19.5161673  48.3114913  53.1206493
  11.5071673  50.5044913  50.0656493  10.7701673  50.0504913  50.1786493
  12.0781673  50.1024913  50.5886493  11.4821673  50.3774913  50.1596493
  14.2391673  61.3524913  51.8536493  14.4451673  61.6534913  52.6456493
  14.1781673  62.0744913  51.3686493  14.2601673  61.5034913  51.8986493
  13.7731673  65.5664913  56.0996493  13.0201673  65.5484913  55.6586493
  13.9411673  66.4184913  56.1836493  13.6871673  65.6894913  56.0466493
   9.0101673  54.8334913  55.2696493   8.6881673  54.2574913  54.6996493
   8.6511673  55.5884913  55.0236493   8.9101673  54.8594913  55.1496493
   9.8061673  48.0854913  39.8966493   9.8841673  48.3324913  39.0636493
   9.0631673  48.4624913  40.1546493   9.7081673  48.1774913  39.8116493
  19.0511673  59.9914913  51.3116493  19.0191673  59.1294913  51.1766493
  18.3581673  60.2934913  50.8776493  18.9441673  59.9084913  51.2276493
   7.4451673  65.1894913  55.5176493   7.4861673  65.3154913  56.3806493
   8.0961673  64.6294913  55.3616493   7.5471673  65.1254913  55.6226493
  17.1561673  63.2514913  50.1086493  17.6831673  63.1684913  49.4176493
  16.7651673  62.4734913  50.1626493  17.1761673  63.1244913  50.0146493
   4.6241673  49.8394913  52.3396493   4.2811673  49.0724913  52.1056493
   3.9291673  50.3634913  52.4036493   4.4711673  49.8034913  52.3146493
  13.6701673  48.6954913  49.3166493  14.3401673  49.2394913  49.4436493
  13.1671673  49.1194913  48.7436493  13.6951673  48.8384913  49.2506493
   5.0381673  63.5724913  56.8776493   5.6331673  64.0034913  57.3496493
   4.6741673  64.1964913  56.3886493   5.0721673  63.7284913  56.8746493
  13.0291673  54.5034913  46.8096493  13.5801673  53.8964913  47.1096493
  12.6041673  54.7664913  47.5246493  13.0481673  54.4524913  46.9586493
   3.2771673  53.1534913  46.2956493   2.9091673  53.4554913  47.0266493
   3.8111673  52.5244913  46.5796493   3.3011673  53.1054913  46.4456493
   2.9651673  61.5614913  53.8066493   2.3911673  61.9774913  54.3156493
   3.6981673  62.0264913  53.9016493   2.9891673  61.6914913  53.8956493
  14.9991673  56.3344913  43.3716493  15.0671673  55.4844913  43.5526493
  14.1761673  56.4204913  43.0936493  14.8871673  56.2214913  43.3576493
   4.7511673  64.8284913  42.5816493   4.6061673  64.9844913  41.7356493
   5.6171673  64.9074913  42.6596493   4.8581673  64.8634913  42.4686493
   8.9181673  57.2254913  42.3096493   9.0181673  57.3644913  41.4546493
   9.7361673  57.1654913  42.6056493   9.0531673  57.2364913  42.2266493
  18.0781673  65.2894913  39.7896493  18.7151673  65.1554913  40.3706493
  17.7371673  64.4954913  39.6726493  18.1221673  65.1524913  39.8576493
  18.2731673  57.7074913  56.5226493  18.9071673  57.5374913  57.0966493
  18.6901673  58.1104913  55.8706493  18.4281673  57.7424913  56.5116493
  14.1531673  61.5544913  42.1116493  13.9021673  61.4264913  42.9376493
  13.8361673  60.8594913  41.6906493  14.0691673  61.4334913  42.1716493
  18.8981673  52.2714913  57.2606493  18.7021673  52.9154913  57.8156493
  18.1761673  51.7814913  57.2526493  18.7631673  52.2944913  57.3416493
  18.7971673  53.2124913  50.2316493  17.9641673  53.4624913  50.1596493
  18.7411673  52.3724913  50.4606493  18.6661673  53.1254913  50.2546493
   8.0571673  50.2004913  55.4256493   8.2911673  49.6244913  54.8126493
   7.2151673  50.0194913  55.5666493   7.9671673  50.0884913  55.3556493
  15.6841673  57.8184913  57.8776493  16.5551673  57.7824913  57.8416493
  15.4651673  58.2384913  57.1456493  15.7811673  57.8744913  57.7646493
   5.4381673  63.6434913  49.0586493   5.3591673  62.8334913  48.7426493
   4.9941673  64.1304913  48.4866493   5.3611673  63.5954913  48.9276493
  11.0391673  59.7624913  41.5416493  11.7561673  59.4154913  41.1856493
  11.0051673  60.5624913  41.1936493  11.1401673  59.8294913  41.4376493
   3.0101673  65.8874913  52.6396493   3.5031673  65.8314913  53.3576493
   3.1981673  65.1544913  52.2046493   3.1111673  65.7704913  52.6816493
  12.4481673  48.4034913  25.7804083  12.2031673  48.8914913  25.1004083
  13.3111673  48.3304913  25.6804083  12.5391673  48.4644913  25.6654083
  12.2571673  55.3194913  30.4514083  11.7331673  55.9154913  30.8144083
  12.6541673  54.9514913  31.1354083  12.2381673  55.3534913  30.6064083
  18.4011673  62.7604913  23.4224083  19.1021673  62.2414913  23.4184083
  17.8141673  62.3154913  22.9534083  18.4181673  62.6174913  23.3524083
   5.0081673  58.5144913  21.0864083   4.6161673  58.1434913  20.4004083
   4.9281673  57.9164913  21.7154083   4.9381673  58.3714913  21.0774083
  14.9281673  56.3864913  27.1274083  15.0081673  56.3904913  26.2584083
  14.3441673  55.7544913  27.2764083  14.8531673  56.2934913  27.0214083
   4.6351673  60.1554913  24.9864083   5.2431673  59.9854913  25.5894083
   3.8841673  60.0154913  25.4074083   4.6141673  60.1094913  25.1374083
   8.9171673  49.4904913  24.9354083   8.8471673  50.1674913  24.3894083
   9.6581673  49.1024913  24.6864083   9.0161673  49.5334913  24.8174083
   3.5261673  63.2464913  21.0634083   3.9931673  63.3304913  20.3314083
   3.9811673  62.6684913  21.5324083   3.6621673  63.1734913  21.0244083
   8.6401673  59.7194913  37.2294083   8.4041673  59.7164913  38.0694083
   7.8921673  59.5714913  36.8054083   8.4941673  59.6964913  37.2904083
   3.5121673  56.7154913  26.3644083   3.0501673  56.3234913  25.7374083
   4.2121673  56.2024913  26.4564083   3.5471673  56.5824913  26.2854083
   8.0201673  52.3254913  31.7114083   8.6981673  52.3434913  31.1624083
   7.9751673  51.4894913  31.9564083   8.1131673  52.2044913  31.6664083
   8.6221673  62.9114913  34.4924083   8.7601673  63.6714913  34.0854083
   9.4131673  62.5464913  34.5194083   8.7591673  62.9704913  34.4364083
   5.5131673  54.8154913  26.3874083   6.3301673  54.6284913  26.6304083
   5.0361673  54.2014913  26.7834083   5.5631673  54.6974913  26.4824083
   9.7171673  60.7964913  28.9974083  10.0651673  59.9974913  29.0274083
  10.3821673  61.3004913  28.7424083   9.8671673  60.7524913  28.9644083
   9.7741673  60.2454913  25.2084083  10.1051673  59.6014913  25.6944083
  10.0141673  60.0344913  24.3974083   9.8581673  60.1194913  25.1604083
  11.7421673  54.3764913  36.5474083  10.8941673  54.2774913  36.3694083
  11.7711673  55.1214913  37.0014083  11.6211673  54.4724913  36.5884083
   6.1101673  49.9094913  25.6534083   5.8141673  50.4104913  25.0034083
   6.9771673  49.9874913  25.5964083   6.1941673  49.9954913  25.5494083
  16.3001673  47.3364913  35.6614083  16.1421673  48.1054913  35.2794083
  15.5281673  47.1164913  36.0054083  16.1621673  47.4174913  35.6564083
   9.0891673  49.0514913  27.8764083   9.1621673  49.9114913  28.0054083
   9.0511673  48.9764913  27.0084083   9.0941673  49.1674913  27.7674083
  13.7621673  51.9774913  20.1754083  13.3121673  52.6584913  20.4824083
  13.8761673  51.4734913  20.8784083  13.7131673  52.0034913  20.3244083
   7.7181673  62.0304913  24.7574083   7.1391673  61.7554913  25.3494083
   8.3421673  61.4214913  24.7824083   7.7251673  61.9004913  24.8484083
  13.8611673  64.3184913  22.2794083  14.5881673  64.7904913  22.3814083
  14.0901673  63.5244913  22.5594083  14.0031673  64.2714913  22.3364083
  12.0291673  64.7104913  24.2694083  12.2431673  65.2374913  24.9314083
  12.7961673  64.5364913  23.8904083  12.1741673  64.7624913  24.3114083
   4.9971673  49.2934913  29.8684083   4.4761673  48.6654913  29.5604083
   5.5881673  48.8564913  30.3394083   5.0081673  49.1354913  29.8924083
   8.3031673  51.4264913  39.1664083   8.4201673  50.9724913  38.4304083
   8.5911673  52.2244913  38.9634083   8.3631673  51.4774913  39.0274083
   3.4231673  62.8564913  25.2084083   4.0791673  62.2814913  25.2234083
   3.8121673  63.6054913  24.9874083   3.5781673  62.8814913  25.1784083
  19.1561673  51.9504913  26.4704083  18.8101673  52.6284913  26.8964083
  18.5201673  51.3524913  26.4864083  19.0111673  51.9624913  26.5354083
  14.4681673  64.7204913  32.5744083  15.2121673  65.1764913  32.5644083
  14.3471673  64.5064913  31.7374083  14.5601673  64.7564913  32.4494083
   4.0361673  51.0234913  38.1504083   3.2581673  50.6334913  38.0784083
   4.5271673  50.6114913  37.5594083   3.9931673  50.9044913  38.0524083
   4.2411673  61.3434913  28.7084083   4.6641673  60.9874913  28.0344083
   4.5651673  60.9214913  29.4004083   4.3511673  61.2284913  28.7114083
   7.4721673  64.1954913  28.0044083   8.3161673  64.2994913  27.8094083
   7.1751673  65.0134913  28.0724083   7.5531673  64.3314913  27.9854083
  10.6851673  48.6664913  37.3184083  10.8631673  47.8574913  37.0434083
  10.5421673  49.1074913  36.5794083  10.6901673  48.6124913  37.1684083
  11.2791673  53.5924913  26.0914083  11.5661673  53.3604913  25.3014083
  12.0111673  53.6714913  26.5604083  11.4291673  53.5694913  26.0444083
  12.0011673  53.9314913  21.2124083  12.2821673  54.7194913  21.4614083
  11.2251673  54.0964913  20.8494083  11.9281673  54.0724913  21.1954083
  16.0421673  65.9054913  22.6794083  16.7071673  65.7574913  22.1344083
  16.4021673  65.8224913  23.4694083  16.1941673  65.8714913  22.7154083
   6.4701673  65.4144913  33.7444083   6.7621673  65.3474913  34.5644083
   5.8441673  64.8094913  33.6994083   6.4211673  65.3154913  33.8594083
  18.8311673  50.2734913  31.8394083  19.5881673  50.3454913  31.4114083
  18.8941673  49.5004913  32.2384083  18.9521673  50.1704913  31.8344083
  13.7221673  61.9054913  36.2784083  13.6881673  62.2874913  37.0624083
  14.5761673  61.8634913  36.1074083  13.8431673  61.9554913  36.3694083
  10.8601673  62.1024913  21.0284083  10.6791673  62.6474913  21.6854083
  11.6261673  62.3924913  20.7274083  10.9461673  62.2264913  21.0814083
  14.3671673  49.9984913  22.0824083  14.9071673  49.3164913  22.1584083
  14.4291673  50.3964913  22.8564083  14.4561673  49.9564913  22.2084083
   2.3211673  51.1664913  24.6514083   2.2071673  50.3024913  24.6824083
   1.8461673  51.4604913  25.3214083   2.2341673  51.0824913  24.7544083
   4.4631673  63.5764913  32.8664083   3.7651673  63.0684913  32.9924083
   4.7231673  63.3714913  32.0584083   4.3981673  63.4714913  32.7654083
  11.6251673  52.3744913  23.3964083  11.1171673  51.7124913  23.1424083
  11.6771673  52.8784913  22.6864083  11.5581673  52.3514913  23.2544083
  12.1741673  65.0694913  33.7764083  12.9421673  64.9894913  33.3704083
  11.5911673  64.9484913  33.1384083  12.2011673  65.0394913  33.6224083
  11.6251673  49.3154913  23.2874083  11.1701673  48.9134913  22.6614083
  12.3981673  49.4704913  22.9124083  11.6721673  49.2794913  23.1394083
  18.4511673  65.6724913  26.6774083  17.9961673  66.3894913  26.8784083
  17.8371673  65.1014913  26.4354083  18.2931673  65.6944913  26.6714083
  10.2231673  51.6824913  27.8094083  10.2971673  52.2504913  27.1514083
  10.3441673  52.1744913  28.5194083  10.2511673  51.8394913  27.8174083
  15.4481673  61.5174913  26.2214083  16.1491673  61.0354913  26.4104083
  14.7881673  60.9484913  26.2664083  15.4541673  61.3624913  26.2554083
   5.8241673  62.4274913  35.4334083   6.6651673  62.4904913  35.2114083
   5.7871673  62.8244913  36.2094083   5.9431673  62.4954913  35.5154083
   4.8311673  47.5054913  26.1574083   5.3671673  48.1934913  26.1474083
   4.8341673  47.2314913  25.3294083   4.9101673  47.5664913  26.0334083
   7.7871673  57.9384913  30.1824083   7.9591673  57.7284913  31.0114083
   7.1321673  57.4044913  29.9664083   7.7161673  57.8284913  30.2734083
  14.0151673  51.8524913  33.6974083  13.9201673  52.1714913  34.5034083
  13.4221673  51.2134913  33.6594083  13.9131673  51.8044913  33.8114083
   8.5371673  57.8764913  32.7724083   8.5901673  58.7234913  32.9744083
   8.2521673  57.5064913  33.5094083   8.5031673  57.9464913  32.9104083
  14.7141673  58.5714913  31.9024083  14.2001673  58.1594913  32.4734083
  14.5881673  59.4154913  32.0834083  14.6201673  58.6354913  32.0134083
  15.2711673  47.7964913  26.5334083  15.3201673  47.4784913  27.3444083
  15.5941673  47.1524913  26.0404083  15.3261673  47.6544913  26.5804083
  17.7351673  52.0324913  34.8414083  18.5071673  51.8074913  35.1784083
  17.2601673  52.2494913  35.5414083  17.7791673  52.0314913  34.9944083
   5.2791673  51.3154913  27.8114083   5.5511673  50.8854913  27.1034083
   5.1031673  50.6794913  28.3824083   5.2931673  51.1584913  27.7914083
  17.9671673  59.0104913  22.0294083  18.0861673  58.7234913  22.8444083
  18.7741673  59.0314913  21.6994083  18.1031673  58.9714913  22.1014083
   5.1031673  58.7424913  27.3604083   5.9541673  58.6624913  27.1874083
   4.7461673  58.0604913  26.9484083   5.1761673  58.6294913  27.2734083
   3.8701673  65.4674913  28.5974083   3.1971673  64.9694913  28.3524083
   4.2731673  65.6524913  27.8464083   3.8301673  65.4214913  28.4504083
   3.4201673  52.4174913  30.8934083   4.2631673  52.6374913  30.8504083
   3.0311673  52.9904913  30.3624083   3.4871673  52.5344913  30.8084083
  20.2011673  63.5194913  36.2834083  19.5191673  63.8294913  35.8364083
  19.8321673  63.0614913  36.9284083  20.0451673  63.4974913  36.3124083
  15.8621673  55.5474913  21.6144083  15.6421673  56.2784913  21.1924083
  15.4141673  55.5984913  22.3614083  15.7631673  55.6624913  21.6624083
   7.4711673  58.7494913  25.5954083   8.1841673  59.2444913  25.6854083
   7.6931673  58.1824913  24.9694083   7.6091673  58.7384913  25.5164083
  20.0491673  50.4084913  21.0674083  19.3871673  49.8404913  21.0904083
  19.8561673  50.9204913  20.3874083  19.9231673  50.4004913  20.9704083
   9.2741673  54.1024913  39.0114083   8.7901673  54.6794913  39.4534083
   9.2461673  54.3974913  38.1904083   9.1981673  54.2314913  38.9554083
  20.3721673  54.7864913  33.6234083  20.5871673  53.9864913  33.3474083
  19.5221673  54.8464913  33.4344083  20.2781673  54.6774913  33.5544083
  18.0511673  49.9664913  23.3464083  18.7971673  49.5594913  23.5454083
  18.3141673  50.6814913  22.9214083  18.2001673  50.0124913  23.3134083
  11.9941673  62.4524913  27.9224083  11.4711673  63.0864913  27.6294083
  12.3041673  62.0884913  27.1934083  11.9621673  62.4924913  27.7714083
   6.0691673  60.2404913  30.6824083   6.5361673  60.5294913  31.3604083
   6.6411673  59.7624913  30.2284083   6.2231673  60.2124913  30.7154083
  14.5051673  52.2544913  28.4194083  14.8491673  52.4064913  29.2064083
  14.0521673  51.5164913  28.5324083  14.4891673  52.1674913  28.5524083
   2.6351673  57.9104913  29.2264083   3.0661673  57.7814913  28.4794083
   2.4301673  58.7584913  29.2004083   2.6681673  58.0164913  29.1124083
   8.9811673  51.4744913  22.8764083   8.9791673  51.3574913  22.0114083
   8.8001673  52.3224913  22.9684083   8.9541673  51.5824913  22.7624083
  18.0351673  63.9014913  34.3734083  17.3641673  64.4154913  34.5914083
  18.0981673  64.0014913  33.5094083  17.9451673  63.9924913  34.2784083
   6.7191673  61.4264913  27.5084083   6.8451673  62.2694913  27.6954083
   7.3871673  61.0274913  27.9044083   6.8371673  61.4924913  27.5944083
   4.8491673  54.9094913  37.3704083   4.3131673  54.4034913  37.8384083
   4.8691673  54.5194913  36.5904083   4.7721673  54.7764913  37.3244083
   5.3341673  54.3064913  22.5104083   5.2061673  53.8584913  23.2484083
   4.7521673  53.9644913  21.9584083   5.2291673  54.1894913  22.5384083
   5.5011673  56.1364913  29.1094083   4.7201673  56.0774913  28.7264083
   5.5731673  55.3844913  29.5464083   5.3961673  56.0174913  29.1174083
   5.9311673  55.8734913  32.5774083   5.9561673  55.1984913  32.0264083
   5.2851673  56.3694913  32.2654083   5.8401673  55.8464913  32.4504083
  15.8261673  53.5864913  30.9734083  15.1641673  53.9144913  31.4364083
  16.0131673  54.2204913  30.4044083  15.7561673  53.7284913  30.9574083
  10.0311673  64.6504913  31.9694083   9.7541673  64.0094913  31.4464083
   9.8231673  65.3764913  31.5314083   9.9601673  64.6634913  31.8274083
  12.4711673  49.4924913  34.4024083  12.6201673  48.6674913  34.1594083
  12.8501673  49.5474913  35.1864083  12.5491673  49.3784913  34.4824083
  14.0191673  51.5554913  24.4844083  14.5091673  52.2724913  24.4074083
  13.2291673  51.8164913  24.2214083  13.9751673  51.6994913  24.4344083
   3.7301673  57.2284913  38.1364083   3.6931673  57.7294913  37.4224083
   4.0611673  56.4764913  37.8414083   3.7731673  57.1904913  37.9874083
  15.3331673  59.4334913  36.3944083  15.8171673  60.1514913  36.4924083
  15.7271673  59.0064913  35.7434083  15.4631673  59.4764913  36.3124083
   9.6291673  62.2784913  37.5714083   9.9831673  62.1004913  38.3484083
   9.1931673  61.5494913  37.3724083   9.6171673  62.1444913  37.6574083
  10.6011673  53.0254913  30.2094083  11.0811673  53.7244913  30.4174083
  10.9741673  52.3784913  30.6604083  10.7271673  53.0334913  30.3064083
  12.7901673  56.1944913  22.4834083  12.7821673  56.9164913  21.9934083
  12.1511673  56.3294913  23.0604083  12.6951673  56.3214913  22.4964083
  17.7621673  60.0644913  26.4644083  18.1181673  59.7144913  27.1794083
  17.7541673  59.4034913  25.8944083  17.8141673  59.9144913  26.4854083
  13.8071673  63.1304913  30.3084083  13.2041673  62.8344913  29.7514083
  14.3521673  63.5824913  29.7994083  13.7981673  63.1534913  30.1504083
  13.8201673  59.9814913  29.7084083  13.0231673  60.2054913  29.9824083
  14.0781673  59.3874913  30.2934083  13.7401673  59.9264913  29.8354083
   7.7121673  64.7934913  24.1564083   7.5651673  64.0174913  24.5274083
   8.4011673  64.6464913  23.6414083   7.7921673  64.6564913  24.1354083
   7.3831673  48.5364913  22.1444083   7.4801673  48.4294913  23.0054083
   6.6751673  49.0424913  22.0794083   7.2931673  48.5954913  22.2624083
  10.0041673  64.3094913  22.5584083  10.6261673  64.4724913  23.1484083
  10.0401673  65.0004913  22.0264083  10.1011673  64.4354913  22.5674083
  17.0801673  57.9794913  34.5544083  17.1351673  58.1044913  33.6924083
  17.8331673  58.2994913  34.8564083  17.1991673  58.0444913  34.4714083
  13.2711673  63.3284913  38.8314083  13.4351673  63.6114913  39.6404083
  13.5341673  63.9894913  38.3264083  13.3341673  63.4684913  38.8764083
  18.1121673  48.2774913  37.5414083  17.4751673  47.8774913  37.0994083
  18.1381673  47.8464913  38.2994083  18.0221673  48.1554913  37.5874083
   4.5051673  56.8434913  23.3874083   4.8291673  56.0644913  23.1654083
   5.1511673  57.2114913  23.8424083   4.6481673  56.7824913  23.4214083
  12.8111673  57.7854913  34.1544083  12.6561673  58.3954913  34.7584083
  13.3451673  57.2274913  34.5604083  12.8671673  57.7934913  34.3034083
  11.1951673  56.1854913  24.8124083  11.2541673  56.8354913  25.3914083
  11.0061673  55.4894913  25.3034083  11.1761673  56.1784913  24.9704083
  16.4211673  60.5144913  30.6814083  15.9421673  60.8124913  30.0154083
  16.0651673  59.7384913  30.8594083  16.2981673  60.4434913  30.6094083
   5.6911673  50.7024913  21.3244083   5.1801673  50.7554913  20.6184083
   6.4751673  50.9424913  21.0284083   5.7311673  50.7454913  21.1764083
  10.4181673  58.2324913  29.2434083   9.5711673  58.0384913  29.3244083
  10.7421673  58.0674913  30.0364083  10.3401673  58.1794913  29.3724083
   7.1701673  64.9624913  20.1294083   7.6091673  64.2654913  20.4174083
   7.3771673  65.5864913  20.7024083   7.2661673  64.9514913  20.2564083
   4.2661673  57.9254913  31.5594083   4.9881673  58.4134913  31.5224083
   3.9961673  57.8954913  30.7304083   4.3331673  57.9934913  31.4314083
   7.4961673  53.0964913  28.2944083   8.3421673  52.9064913  28.3924083
   7.1261673  52.3194913  28.1564083   7.5661673  52.9534913  28.2884083
  20.1131673  64.6804913  22.6214083  20.8071673  64.2134913  22.3734083
  19.5741673  64.0824913  22.9584083  20.1361673  64.5224913  22.6344083
   2.3171673  54.4344913  24.9494083   2.8061673  54.1424913  25.6104083
   2.4461673  53.8414913  24.3224083   2.4081673  54.3034913  24.9544083
  17.3521673  57.4564913  31.8004083  17.3451673  56.6804913  32.1984083
  16.5111673  57.6904913  31.7934083  17.2271673  57.3764913  31.8584083
   6.8421673  55.8684913  20.4354083   6.2321673  55.4634913  20.9094083
   6.4561673  55.9864913  19.6624083   6.6951673  55.8254913  20.3914083
   3.6611673  58.9774913  35.8374083   3.2401673  58.4594913  35.2764083
   3.3091673  59.7634913  35.6944083   3.5471673  59.0174913  35.7334083
  18.6081673  57.5274913  29.2374083  18.3221673  57.9284913  29.9574083
  19.4681673  57.4654913  29.3644083  18.6931673  57.5774913  29.3624083
   8.2971673  54.3294913  23.1454083   8.5691673  55.1554913  23.2124083
   7.4341673  54.4044913  23.0494083   8.2101673  54.4624913  23.1404083
  16.2701673  51.4514913  37.7774083  15.7451673  51.9104913  38.3014083
  15.9091673  50.6564913  37.7714083  16.1391673  51.4014913  37.8534083
   1.7771673  50.2994913  29.6814083   1.8211673  50.6434913  28.8804083
   2.5321673  50.5364913  30.0484083   1.8951673  50.3854913  29.6174083
  19.7391673  63.1604913  29.7664083  20.0291673  63.4174913  28.9854083
  20.4341673  63.2564913  30.2854083  19.8851673  63.2124913  29.7274083
  14.7621673  55.0204913  37.8534083  14.8351673  55.1244913  38.7164083
  14.1281673  55.5784913  37.6324083  14.6791673  55.1184913  37.9484083
  17.0301673  55.3394913  36.2184083  17.3491673  56.1254913  36.4214083
  16.6601673  55.0694913  36.9614083  17.0231673  55.4154913  36.3584083
  16.3441673  61.7634913  21.7484083  16.6781673  60.9574913  21.7834083
  15.5891673  61.6914913  22.1784083  16.2821673  61.6334913  21.8174083
  16.8261673  53.5974913  27.4074083  16.0811673  53.2744913  27.7254083
  16.8281673  54.4234913  27.6874083  16.7161673  53.6714913  27.4954083
  19.7281673  55.8814913  38.9534083  19.6761673  55.5404913  38.1524083
  20.4651673  56.3484913  38.9314083  19.8291673  55.9004913  38.8314083
  19.2661673  59.5574913  35.1594083  19.8941673  59.0084913  34.9034083
  19.2051673  60.1224913  34.4974083  19.3501673  59.5604913  35.0234083
  13.7181673  59.6384913  21.1514083  14.4021673  59.1244913  20.9824083
  13.3011673  59.6844913  20.3864083  13.7571673  59.5694913  21.0134083
   8.4001673  60.7884913  32.4554083   8.1021673  61.3804913  33.0224083
   8.4551673  61.2304913  31.7064083   8.3641673  60.9414913  32.4284083
   6.3791673  59.7384913  35.8534083   5.5731673  59.4484913  36.0204083
   6.2901673  60.6064913  35.8594083   6.2471673  59.8234913  35.8784083
  15.7381673  49.9274913  34.8684083  16.4821673  50.3794913  34.8054083
  15.1721673  50.3974913  34.3994083  15.7651673  50.0644913  34.7904083
  10.9161673  57.2114913  31.9464083  11.3921673  57.5854913  32.5744083
  10.0931673  57.3454913  32.2054083  10.8651673  57.2864913  32.0774083
   7.6261673  52.8144913  34.6874083   7.7871673  52.0704913  35.1144083
   7.5811673  52.5654913  33.8524083   7.6431673  52.6674913  34.6274083
  10.1801673  64.6044913  27.1744083  10.7261673  65.2834913  27.2284083
   9.8301673  64.6864913  26.3794083  10.2091673  64.7174913  27.0644083
  17.0231673  47.9074913  32.5384083  16.7431673  48.7324913  32.4944083
  17.7391673  47.9604913  33.0344083  17.0881673  48.0374913  32.6054083
   9.3781673  48.6224913  34.5674083  10.0831673  48.9424913  34.1654083
   9.6191673  47.8154913  34.7944083   9.5171673  48.5504913  34.5414083
   8.3631673  62.8324913  30.5634083   7.7391673  63.4144913  30.3814083
   8.6111673  62.5464913  29.7774083   8.3071673  62.8764913  30.4204083
  12.6721673  59.4664913  37.5524083  13.4291673  59.7524913  37.2264083
  12.1251673  59.5184913  36.8744083  12.7031673  59.5164913  37.4034083
  16.5811673  62.0164913  36.0564083  16.9271673  62.2864913  36.8104083
  16.8751673  62.5984913  35.4764083  16.6761673  62.1424913  36.0824083
  18.4441673  54.1624913  21.3954083  18.8221673  54.8394913  20.9954083
  17.6021673  54.3864913  21.4264083  18.3751673  54.2954913  21.3404083
   9.9571673  57.6084913  20.4784083   9.1521673  57.4314913  20.1934083
   9.9241673  58.4594913  20.6704083   9.8331673  57.7074913  20.4654083
   5.8871673  53.6754913  30.6284083   6.3271673  53.5724913  29.8824083
   6.4321673  53.3624913  31.2334083   6.0321673  53.6144913  30.6074083
  13.9031673  52.7774913  36.2204083  13.2551673  53.2474913  36.5684083
  14.4681673  52.6884913  36.8794083  13.8911673  52.8334913  36.3694083
  13.5911673  54.3144913  32.5184083  13.8931673  54.7344913  33.2214083
  13.6271673  53.4744913  32.7504083  13.6411673  54.2524913  32.6564083
  11.0161673  64.4814913  36.4434083  11.4941673  63.8814913  36.0274083
  10.6651673  64.0384913  37.1084083  11.0351673  64.3274913  36.4804083
  16.1391673  53.7614913  24.7704083  16.3461673  53.5604913  25.5944083
  16.8951673  54.0294913  24.4284083  16.2811673  53.7714913  24.8414083
   9.4341673  48.6604913  30.6754083   8.6081673  48.5114913  30.9124083
   9.3941673  48.6954913  29.8044083   9.3061673  48.6434913  30.5814083
  17.1611673  49.8444913  26.2444083  16.4471673  49.3734913  26.4154083
  16.9991673  50.1854913  25.4584083  17.0321673  49.8254913  26.1534083
  17.6041673  57.7884913  24.6244083  18.0801673  57.0594913  24.5764083
  16.7831673  57.5024913  24.5484083  17.5531673  57.6384913  24.6054083
  11.0751673  59.7004913  35.4634083  10.2801673  59.6364913  35.8144083
  11.1461673  60.5474913  35.2684083  10.9681673  59.8154913  35.4864083
   6.9051673  65.9074913  30.7804083   6.9161673  65.9664913  31.6504083
   6.4801673  65.1604913  30.6304083   6.8441673  65.8054913  30.8864083
   5.0631673  51.8024913  23.9354083   5.1891673  51.4734913  23.1374083
   4.2511673  51.5534913  24.1344083   4.9621673  51.7174913  23.8474083
  13.8201673  58.9554913  26.9794083  13.8961673  59.2964913  27.7784083
  13.9891673  58.1084913  27.1004083  13.8561673  58.8804913  27.1154083
  11.3421673  58.2294913  26.5444083  11.0441673  57.9144913  27.3014083
  12.0371673  58.7024913  26.7794083  11.4011673  58.2524913  26.6914083
  11.5641673  62.3474913  34.5714083  12.2511673  62.2334913  35.0964083
  11.6981673  63.1384913  34.2274083  11.6851673  62.4474913  34.5984083
  19.7401673  54.9564913  36.3824083  18.8851673  54.8344913  36.5084083
  19.8931673  54.5614913  35.6194083  19.6361673  54.8794913  36.2884083
  14.2531673  55.6214913  34.9584083  13.9981673  54.9024913  35.3804083
  15.0741673  55.7374913  35.2284083  14.3371673  55.5324913  35.0604083
   3.6691673  65.4054913  36.2224083   3.0151673  64.8364913  36.3204083
   3.2941673  66.1784913  36.3734083   3.5171673  65.4354913  36.2594083
  12.1871673  56.8114913  38.1454083  12.5101673  57.4974913  37.7134083
  11.4831673  57.1344913  38.5474083  12.1301673  56.9604913  38.1404083
  15.2711673  65.1854913  29.0744083  14.8201673  65.8284913  29.4534083
  15.9791673  65.1064913  29.5794083  15.3091673  65.2684913  29.2054083
  11.9721673  60.2754913  32.0044083  11.2781673  60.6774913  32.3474083
  12.6491673  60.7084913  32.3434083  11.9691673  60.3984913  32.1054083
  17.3491673  62.8684913  38.5844083  18.1251673  62.4784913  38.6674083
  16.8801673  62.5324913  39.2394083  17.3941673  62.7614913  38.6934083
   5.0401673  53.8134913  34.3514083   5.4151673  54.4324913  33.8644083
   5.7141673  53.3394913  34.6364083   5.1951673  53.8354913  34.3214083
   2.8151673  52.2614913  33.6264083   2.8921673  52.0924913  32.7734083
   3.5611673  52.6674913  33.8234083   2.9361673  52.2964913  33.5294083
  18.3741673  54.9014913  24.0664083  18.4771673  54.8434913  23.2024083
  19.1151673  54.5694913  24.3844083  18.4991673  54.8444913  23.9854083
   5.3691673  49.6714913  36.0374083   5.2881673  48.8274913  36.2434083
   5.0551673  49.7154913  35.2244083   5.3111673  49.5534913  35.9474083
  12.2941673  61.8664913  25.1734083  12.0891673  62.6994913  25.0144083
  11.5191673  61.4844913  25.2954083  12.1491673  61.9334913  25.1684083
  17.4761673  55.0474913  33.4224083  17.4741673  54.1844913  33.5464083
  17.5431673  55.3714913  34.2294083  17.4861673  54.9674913  33.5594083
   2.2121673  57.4874913  33.8504083   2.5321673  57.7064913  33.0694083
   2.1121673  56.6224913  33.7954083   2.2441673  57.3924913  33.7274083
   3.6681673  53.4234913  20.4684083   2.9961673  53.4374913  21.0244083
   3.7631673  52.5754913  20.2844083   3.5831673  53.3004913  20.5234083
  13.3551673  49.8474913  37.2044083  13.4471673  50.5594913  37.6984083
  12.7181673  49.4024913  37.6014083  13.2741673  49.8864913  37.3364083
  12.3491673  50.0374913  28.0584083  11.6491673  50.5554913  28.0024083
  12.3871673  49.6574913  27.2744083  12.2511673  50.0584913  27.9344083
   7.6561673  62.1284913  21.5824083   8.0971673  62.2084913  22.3304083
   6.8511673  61.9124913  21.8404083   7.6021673  62.1084913  21.7314083
  15.9471673  50.5534913  30.8584083  16.8021673  50.6524913  31.0034083
  15.5781673  51.1064913  31.4234083  16.0191673  50.6504913  30.9634083
   6.9751673  56.7794913  35.2354083   6.5791673  57.5534913  35.3104083
   6.5691673  56.4064913  34.5594083   6.8571673  56.8384913  35.1464083
  16.2511673  55.8334913  29.3494083  16.9171673  56.3744913  29.5094083
  15.9061673  56.1444913  28.6104083  16.2981673  55.9594913  29.2644083
  16.5641673  63.8994913  25.1564083  16.3901673  63.2454913  25.7064083
  17.2771673  63.6284913  24.7334083  16.6441673  63.7624913  25.1754083
   4.9851673  61.1984913  22.1834083   4.7411673  60.8914913  22.9634083
   4.9521673  60.4954913  21.6674083   4.9441673  61.0494913  22.2224083
   7.8041673  59.4434913  20.9264083   6.9861673  59.1754913  21.0664083
   7.7761673  60.2954913  21.1114083   7.6791673  59.5304913  20.9744083
   7.4041673  49.7564913  32.6854083   6.5401673  49.8404913  32.7654083
   7.6241673  49.2424913  33.3544083   7.3091673  49.6934913  32.7964083
  19.4221673  48.3914913  34.0144083  19.3701673  48.3474913  34.8844083
  20.1091673  47.8884913  33.8244083  19.5161673  48.3114913  34.1144083
  11.5071673  50.5044913  31.0594083  10.7701673  50.0504913  31.1724083
  12.0781673  50.1024913  31.5824083  11.4821673  50.3774913  31.1534083
  14.2391673  61.3524913  32.8474083  14.4451673  61.6534913  33.6394083
  14.1781673  62.0744913  32.3624083  14.2601673  61.5034913  32.8924083
  13.7731673  65.5664913  37.0934083  13.0201673  65.5484913  36.6524083
  13.9411673  66.4184913  37.1774083  13.6871673  65.6894913  37.0404083
   9.0101673  54.8334913  36.2634083   8.6881673  54.2574913  35.6934083
   8.6511673  55.5884913  36.0174083   8.9101673  54.8594913  36.1434083
   9.8061673  48.0854913  20.8904083   9.8841673  48.3324913  20.0574083
   9.0631673  48.4624913  21.1484083   9.7081673  48.1774913  20.8054083
  19.0511673  59.9914913  32.3054083  19.0191673  59.1294913  32.1704083
  18.3581673  60.2934913  31.8714083  18.9441673  59.9084913  32.2214083
   7.4451673  65.1894913  36.5114083   7.4861673  65.3154913  37.3744083
   8.0961673  64.6294913  36.3554083   7.5471673  65.1254913  36.6164083
  17.1561673  63.2514913  31.1024083  17.6831673  63.1684913  30.4114083
  16.7651673  62.4734913  31.1564083  17.1761673  63.1244913  31.0084083
   4.6241673  49.8394913  33.3334083   4.2811673  49.0724913  33.0994083
   3.9291673  50.3634913  33.3974083   4.4711673  49.8034913  33.3084083
  13.6701673  48.6954913  30.3104083  14.3401673  49.2394913  30.4374083
  13.1671673  49.1194913  29.7374083  13.6951673  48.8384913  30.2444083
   5.0381673  63.5724913  37.8714083   5.6331673  64.0034913  38.3434083
   4.6741673  64.1964913  37.3824083   5.0721673  63.7284913  37.8684083
  13.0291673  54.5034913  27.8034083  13.5801673  53.8964913  28.1034083
  12.6041673  54.7664913  28.5184083  13.0481673  54.4524913  27.9524083
   3.2771673  53.1534913  27.2894083   2.9091673  53.4554913  28.0204083
   3.8111673  52.5244913  27.5734083   3.3011673  53.1054913  27.4394083
   2.9651673  61.5614913  34.8004083   2.3911673  61.9774913  35.3094083
   3.6981673  62.0264913  34.8954083   2.9891673  61.6914913  34.8894083
  14.9991673  56.3344913  24.3654083  15.0671673  55.4844913  24.5464083
  14.1761673  56.4204913  24.0874083  14.8871673  56.2214913  24.3514083
   4.7511673  64.8284913  23.5754083   4.6061673  64.9844913  22.7294083
   5.6171673  64.9074913  23.6534083   4.8581673  64.8634913  23.4624083
   8.9181673  57.2254913  23.3034083   9.0181673  57.3644913  22.4484083
   9.7361673  57.1654913  23.5994083   9.0531673  57.2364913  23.2204083
  18.0781673  65.2894913  20.7834083  18.7151673  65.1554913  21.3644083
  17.7371673  64.4954913  20.6664083  18.1221673  65.1524913  20.8514083
  18.2731673  57.7074913  37.5164083  18.9071673  57.5374913  38.0904083
  18.6901673  58.1104913  36.8644083  18.4281673  57.7424913  37.5054083
  14.1531673  61.5544913  23.1054083  13.9021673  61.4264913  23.9314083
  13.8361673  60.8594913  22.6844083  14.0691673  61.4334913  23.1654083
  18.8981673  52.2714913  38.2544083  18.7021673  52.9154913  38.8094083
  18.1761673  51.7814913  38.2464083  18.7631673  52.2944913  38.3354083
  18.7971673  53.2124913  31.2254083  17.9641673  53.4624913  31.1534083
  18.7411673  52.3724913  31.4544083  18.6661673  53.1254913  31.2484083
   8.0571673  50.2004913  36.4194083   8.2911673  49.6244913  35.8064083
   7.2151673  50.0194913  36.5604083   7.9671673  50.0884913  36.3494083
  15.6841673  57.8184913  38.8714083  16.5551673  57.7824913  38.8354083
  15.4651673  58.2384913  38.1394083  15.7811673  57.8744913  38.7584083
   5.4381673  63.6434913  30.0524083   5.3591673  62.8334913  29.7364083
   4.9941673  64.1304913  29.4804083   5.3611673  63.5954913  29.9214083
  11.0391673  59.7624913  22.5354083  11.7561673  59.4154913  22.1794083
  11.0051673  60.5624913  22.1874083  11.1401673  59.8294913  22.4314083
   3.0101673  65.8874913  33.6334083   3.5031673  65.8314913  34.3514083
   3.1981673  65.1544913  33.1984083   3.1111673  65.7704913  33.6754083
  12.4481673  48.4034913   6.7741673  12.2031673  48.8914913   6.0941673
  13.3111673  48.3304913   6.6741673  12.5391673  48.4644913   6.6591673
  12.2571673  55.3194913  11.4451673  11.7331673  55.9154913  11.8081673
  12.6541673  54.9514913  12.1291673  12.2381673  55.3534913  11.6001673
  18.4011673  62.7604913   4.4161673  19.1021673  62.2414913   4.4121673
  17.8141673  62.3154913   3.9471673  18.4181673  62.6174913   4.3461673
   5.0081673  58.5144913   2.0801673   4.6161673  58.1434913   1.3941673
   4.9281673  57.9164913   2.7091673   4.9381673  58.3714913   2.0711673
  14.9281673  56.3864913   8.1211673  15.0081673  56.3904913   7.2521673
  14.3441673  55.7544913   8.2701673  14.8531673  56.2934913   8.0151673
   4.6351673  60.1554913   5.9801673   5.2431673  59.9854913   6.5831673
   3.8841673  60.0154913   6.4011673   4.6141673  60.1094913   6.1311673
   8.9171673  49.4904913   5.9291673   8.8471673  50.1674913   5.3831673
   9.6581673  49.1024913   5.6801673   9.0161673  49.5334913   5.8111673
   3.5261673  63.2464913   2.0571673   3.9931673  63.3304913   1.3251673
   3.9811673  62.6684913   2.5261673   3.6621673  63.1734913   2.0181673
   8.6401673  59.7194913  18.2231673   8.4041673  59.7164913  19.0631673
   7.8921673  59.5714913  17.7991673   8.4941673  59.6964913  18.2841673
   3.5121673  56.7154913   7.3581673   3.0501673  56.3234913   6.7311673
   4.2121673  56.2024913   7.4501673   3.5471673  56.5824913   7.2791673
   8.0201673  52.3254913  12.7051673   8.6981673  52.3434913  12.1561673
   7.9751673  51.4894913  12.9501673   8.1131673  52.2044913  12.6601673
   8.6221673  62.9114913  15.4861673   8.7601673  63.6714913  15.0791673
   9.4131673  62.5464913  15.5131673   8.7591673  62.9704913  15.4301673
   5.5131673  54.8154913   7.3811673   6.3301673  54.6284913   7.6241673
   5.0361673  54.2014913   7.7771673   5.5631673  54.6974913   7.4761673
   9.7171673  60.7964913   9.9911673  10.0651673  59.9974913  10.0211673
  10.3821673  61.3004913   9.7361673   9.8671673  60.7524913   9.9581673
   9.7741673  60.2454913   6.2021673  10.1051673  59.6014913   6.6881673
  10.0141673  60.0344913   5.3911673   9.8581673  60.1194913   6.1541673
  11.7421673  54.3764913  17.5411673  10.8941673  54.2774913  17.3631673
  11.7711673  55.1214913  17.9951673  11.6211673  54.4724913  17.5821673
   6.1101673  49.9094913   6.6471673   5.8141673  50.4104913   5.9971673
   6.9771673  49.9874913   6.5901673   6.1941673  49.9954913   6.5431673
  16.3001673  47.3364913  16.6551673  16.1421673  48.1054913  16.2731673
  15.5281673  47.1164913  16.9991673  16.1621673  47.4174913  16.6501673
   9.0891673  49.0514913   8.8701673   9.1621673  49.9114913   8.9991673
   9.0511673  48.9764913   8.0021673   9.0941673  49.1674913   8.7611673
   7.7181673  62.0304913   5.7511673   7.1391673  61.7554913   6.3431673
   8.3421673  61.4214913   5.7761673   7.7251673  61.9004913   5.8421673
  13.8611673  64.3184913   3.2731673  14.5881673  64.7904913   3.3751673
  14.0901673  63.5244913   3.5531673  14.0031673  64.2714913   3.3301673
  12.0291673  64.7104913   5.2631673  12.2431673  65.2374913   5.9251673
  12.7961673  64.5364913   4.8841673  12.1741673  64.7624913   5.3051673
   4.9971673  49.2934913  10.8621673   4.4761673  48.6654913  10.5541673
   5.5881673  48.8564913  11.3331673   5.0081673  49.1354913  10.8861673
   8.3031673  51.4264913  20.1601673   8.4201673  50.9724913  19.4241673
   8.5911673  52.2244913  19.9571673   8.3631673  51.4774913  20.0211673
   3.4231673  62.8564913   6.2021673   4.0791673  62.2814913   6.2171673
   3.8121673  63.6054913   5.9811673   3.5781673  62.8814913   6.1721673
  19.1561673  51.9504913   7.4641673  18.8101673  52.6284913   7.8901673
  18.5201673  51.3524913   7.4801673  19.0111673  51.9624913   7.5291673
  14.4681673  64.7204913  13.5681673  15.2121673  65.1764913  13.5581673
  14.3471673  64.5064913  12.7311673  14.5601673  64.7564913  13.4431673
   4.0361673  51.0234913  19.1441673   3.2581673  50.6334913  19.0721673
   4.5271673  50.6114913  18.5531673   3.9931673  50.9044913  19.0461673
   4.2411673  61.3434913   9.7021673   4.6641673  60.9874913   9.0281673
   4.5651673  60.9214913  10.3941673   4.3511673  61.2284913   9.7051673
   7.4721673  64.1954913   8.9981673   8.3161673  64.2994913   8.8031673
   7.1751673  65.0134913   9.0661673   7.5531673  64.3314913   8.9791673
  10.6851673  48.6664913  18.3121673  10.8631673  47.8574913  18.0371673
  10.5421673  49.1074913  17.5731673  10.6901673  48.6124913  18.1621673
  11.2791673  53.5924913   7.0851673  11.5661673  53.3604913   6.2951673
  12.0111673  53.6714913   7.5541673  11.4291673  53.5694913   7.0381673
  12.0011673  53.9314913   2.2061673  12.2821673  54.7194913   2.4551673
  11.2251673  54.0964913   1.8431673  11.9281673  54.0724913   2.1891673
  16.0421673  65.9054913   3.6731673  16.7071673  65.7574913   3.1281673
  16.4021673  65.8224913   4.4631673  16.1941673  65.8714913   3.7091673
   6.4701673  65.4144913  14.7381673   6.7621673  65.3474913  15.5581673
   5.8441673  64.8094913  14.6931673   6.4211673  65.3154913  14.8531673
  18.8311673  50.2734913  12.8331673  19.5881673  50.3454913  12.4051673
  18.8941673  49.5004913  13.2321673  18.9521673  50.1704913  12.8281673
  13.7221673  61.9054913  17.2721673  13.6881673  62.2874913  18.0561673
  14.5761673  61.8634913  17.1011673  13.8431673  61.9554913  17.3631673
  10.8601673  62.1024913   2.0221673  10.6791673  62.6474913   2.6791673
  11.6261673  62.3924913   1.7211673  10.9461673  62.2264913   2.0751673
  14.3671673  49.9984913   3.0761673  14.9071673  49.3164913   3.1521673
  14.4291673  50.3964913   3.8501673  14.4561673  49.9564913   3.2021673
   2.3211673  51.1664913   5.6451673   2.2071673  50.3024913   5.6761673
   1.8461673  51.4604913   6.3151673   2.2341673  51.0824913   5.7481673
   4.4631673  63.5764913  13.8601673   3.7651673  63.0684913  13.9861673
   4.7231673  63.3714913  13.0521673   4.3981673  63.4714913  13.7591673
  11.6251673  52.3744913   4.3901673  11.1171673  51.7124913   4.1361673
  11.6771673  52.8784913   3.6801673  11.5581673  52.3514913   4.2481673
  12.1741673  65.0694913  14.7701673  12.9421673  64.9894913  14.3641673
  11.5911673  64.9484913  14.1321673  12.2011673  65.0394913  14.6161673
  11.6251673  49.3154913   4.2811673  11.1701673  48.9134913   3.6551673
  12.3981673  49.4704913   3.9061673  11.6721673  49.2794913   4.1331673
  18.4511673  65.6724913   7.6711673  17.9961673  66.3894913   7.8721673
  17.8371673  65.1014913   7.4291673  18.2931673  65.6944913   7.6651673
  10.2231673  51.6824913   8.8031673  10.2971673  52.2504913   8.1451673
  10.3441673  52.1744913   9.5131673  10.2511673  51.8394913   8.8111673
  15.4481673  61.5174913   7.2151673  16.1491673  61.0354913   7.4041673
  14.7881673  60.9484913   7.2601673  15.4541673  61.3624913   7.2491673
   5.8241673  62.4274913  16.4271673   6.6651673  62.4904913  16.2051673
   5.7871673  62.8244913  17.2031673   5.9431673  62.4954913  16.5091673
   4.8311673  47.5054913   7.1511673   5.3671673  48.1934913   7.1411673
   4.8341673  47.2314913   6.3231673   4.9101673  47.5664913   7.0271673
   7.7871673  57.9384913  11.1761673   7.9591673  57.7284913  12.0051673
   7.1321673  57.4044913  10.9601673   7.7161673  57.8284913  11.2671673
  14.0151673  51.8524913  14.6911673  13.9201673  52.1714913  15.4971673
  13.4221673  51.2134913  14.6531673  13.9131673  51.8044913  14.8051673
   8.5371673  57.8764913  13.7661673   8.5901673  58.7234913  13.9681673
   8.2521673  57.5064913  14.5031673   8.5031673  57.9464913  13.9041673
  14.7141673  58.5714913  12.8961673  14.2001673  58.1594913  13.4671673
  14.5881673  59.4154913  13.0771673  14.6201673  58.6354913  13.0071673
  15.2711673  47.7964913   7.5271673  15.3201673  47.4784913   8.3381673
  15.5941673  47.1524913   7.0341673  15.3261673  47.6544913   7.5741673
  17.7351673  52.0324913  15.8351673  18.5071673  51.8074913  16.1721673
  17.2601673  52.2494913  16.5351673  17.7791673  52.0314913  15.9881673
   5.2791673  51.3154913   8.8051673   5.5511673  50.8854913   8.0971673
   5.1031673  50.6794913   9.3761673   5.2931673  51.1584913   8.7851673
  17.9671673  59.0104913   3.0231673  18.0861673  58.7234913   3.8381673
  18.7741673  59.0314913   2.6931673  18.1031673  58.9714913   3.0951673
   5.1031673  58.7424913   8.3541673   5.9541673  58.6624913   8.1811673
   4.7461673  58.0604913   7.9421673   5.1761673  58.6294913   8.2671673
   3.8701673  65.4674913   9.5911673   3.1971673  64.9694913   9.3461673
   4.2731673  65.6524913   8.8401673   3.8301673  65.4214913   9.4441673
   3.4201673  52.4174913  11.8871673   4.2631673  52.6374913  11.8441673
   3.0311673  52.9904913  11.3561673   3.4871673  52.5344913  11.8021673
  20.2011673  63.5194913  17.2771673  19.5191673  63.8294913  16.8301673
  19.8321673  63.0614913  17.9221673  20.0451673  63.4974913  17.3061673
  15.8621673  55.5474913   2.6081673  15.6421673  56.2784913   2.1861673
  15.4141673  55.5984913   3.3551673  15.7631673  55.6624913   2.6561673
   7.4711673  58.7494913   6.5891673   8.1841673  59.2444913   6.6791673
   7.6931673  58.1824913   5.9631673   7.6091673  58.7384913   6.5101673
  20.0491673  50.4084913   2.0611673  19.3871673  49.8404913   2.0841673
  19.8561673  50.9204913   1.3811673  19.9231673  50.4004913   1.9641673
   9.2741673  54.1024913  20.0051673   8.7901673  54.6794913  20.4471673
   9.2461673  54.3974913  19.1841673   9.1981673  54.2314913  19.9491673
  20.3721673  54.7864913  14.6171673  20.5871673  53.9864913  14.3411673
  19.5221673  54.8464913  14.4281673  20.2781673  54.6774913  14.5481673
  18.0511673  49.9664913   4.3401673  18.7971673  49.5594913   4.5391673
  18.3141673  50.6814913   3.9151673  18.2001673  50.0124913   4.3071673
  11.9941673  62.4524913   8.9161673  11.4711673  63.0864913   8.6231673
  12.3041673  62.0884913   8.1871673  11.9621673  62.4924913   8.7651673
   6.0691673  60.2404913  11.6761673   6.5361673  60.5294913  12.3541673
   6.6411673  59.7624913  11.2221673   6.2231673  60.2124913  11.7091673
  14.5051673  52.2544913   9.4131673  14.8491673  52.4064913  10.2001673
  14.0521673  51.5164913   9.5261673  14.4891673  52.1674913   9.5461673
   2.6351673  57.9104913  10.2201673   3.0661673  57.7814913   9.4731673
   2.4301673  58.7584913  10.1941673   2.6681673  58.0164913  10.1061673
   8.9811673  51.4744913   3.8701673   8.9791673  51.3574913   3.0051673
   8.8001673  52.3224913   3.9621673   8.9541673  51.5824913   3.7561673
  18.0351673  63.9014913  15.3671673  17.3641673  64.4154913  15.5851673
  18.0981673  64.0014913  14.5031673  17.9451673  63.9924913  15.2721673
   6.7191673  61.4264913   8.5021673   6.8451673  62.2694913   8.6891673
   7.3871673  61.0274913   8.8981673   6.8371673  61.4924913   8.5881673
   4.8491673  54.9094913  18.3641673   4.3131673  54.4034913  18.8321673
   4.8691673  54.5194913  17.5841673   4.7721673  54.7764913  18.3181673
   5.3341673  54.3064913   3.5041673   5.2061673  53.8584913   4.2421673
   4.7521673  53.9644913   2.9521673   5.2291673  54.1894913   3.5321673
   5.5011673  56.1364913  10.1031673   4.7201673  56.0774913   9.7201673
   5.5731673  55.3844913  10.5401673   5.3961673  56.0174913  10.1111673
   5.9311673  55.8734913  13.5711673   5.9561673  55.1984913  13.0201673
   5.2851673  56.3694913  13.2591673   5.8401673  55.8464913  13.4441673
  15.8261673  53.5864913  11.9671673  15.1641673  53.9144913  12.4301673
  16.0131673  54.2204913  11.3981673  15.7561673  53.7284913  11.9511673
  10.0311673  64.6504913  12.9631673   9.7541673  64.0094913  12.4401673
   9.8231673  65.3764913  12.5251673   9.9601673  64.6634913  12.8211673
  12.4711673  49.4924913  15.3961673  12.6201673  48.6674913  15.1531673
  12.8501673  49.5474913  16.1801673  12.5491673  49.3784913  15.4761673
  14.0191673  51.5554913   5.4781673  14.5091673  52.2724913   5.4011673
  13.2291673  51.8164913   5.2151673  13.9751673  51.6994913   5.4281673
   3.7301673  57.2284913  19.1301673   3.6931673  57.7294913  18.4161673
   4.0611673  56.4764913  18.8351673   3.7731673  57.1904913  18.9811673
  15.3331673  59.4334913  17.3881673  15.8171673  60.1514913  17.4861673
  15.7271673  59.0064913  16.7371673  15.4631673  59.4764913  17.3061673
   9.6291673  62.2784913  18.5651673   9.9831673  62.1004913  19.3421673
   9.1931673  61.5494913  18.3661673   9.6171673  62.1444913  18.6511673
  10.6011673  53.0254913  11.2031673  11.0811673  53.7244913  11.4111673
  10.9741673  52.3784913  11.6541673  10.7271673  53.0334913  11.3001673
  12.7901673  56.1944913   3.4771673  12.7821673  56.9164913   2.9871673
  12.1511673  56.3294913   4.0541673  12.6951673  56.3214913   3.4901673
  17.7621673  60.0644913   7.4581673  18.1181673  59.7144913   8.1731673
  17.7541673  59.4034913   6.8881673  17.8141673  59.9144913   7.4791673
  13.8071673  63.1304913  11.3021673  13.2041673  62.8344913  10.7451673
  14.3521673  63.5824913  10.7931673  13.7981673  63.1534913  11.1441673
  13.8201673  59.9814913  10.7021673  13.0231673  60.2054913  10.9761673
  14.0781673  59.3874913  11.2871673  13.7401673  59.9264913  10.8291673
   7.7121673  64.7934913   5.1501673   7.5651673  64.0174913   5.5211673
   8.4011673  64.6464913   4.6351673   7.7921673  64.6564913   5.1291673
   7.3831673  48.5364913   3.1381673   7.4801673  48.4294913   3.9991673
   6.6751673  49.0424913   3.0731673   7.2931673  48.5954913   3.2561673
  10.0041673  64.3094913   3.5521673  10.6261673  64.4724913   4.1421673
  10.0401673  65.0004913   3.0201673  10.1011673  64.4354913   3.5611673
  17.0801673  57.9794913  15.5481673  17.1351673  58.1044913  14.6861673
  17.8331673  58.2994913  15.8501673  17.1991673  58.0444913  15.4651673
  13.2711673  63.3284913  19.8251673  13.4351673  63.6114913  20.6341673
  13.5341673  63.9894913  19.3201673  13.3341673  63.4684913  19.8701673
  18.1121673  48.2774913  18.5351673  17.4751673  47.8774913  18.0931673
  18.1381673  47.8464913  19.2931673  18.0221673  48.1554913  18.5811673
   4.5051673  56.8434913   4.3811673   4.8291673  56.0644913   4.1591673
   5.1511673  57.2114913   4.8361673   4.6481673  56.7824913   4.4151673
  12.8111673  57.7854913  15.1481673  12.6561673  58.3954913  15.7521673
  13.3451673  57.2274913  15.5541673  12.8671673  57.7934913  15.2971673
  11.1951673  56.1854913   5.8061673  11.2541673  56.8354913   6.3851673
  11.0061673  55.4894913   6.2971673  11.1761673  56.1784913   5.9641673
  16.4211673  60.5144913  11.6751673  15.9421673  60.8124913  11.0091673
  16.0651673  59.7384913  11.8531673  16.2981673  60.4434913  11.6031673
   5.6911673  50.7024913   2.3181673   5.1801673  50.7554913   1.6121673
   6.4751673  50.9424913   2.0221673   5.7311673  50.7454913   2.1701673
  10.4181673  58.2324913  10.2371673   9.5711673  58.0384913  10.3181673
  10.7421673  58.0674913  11.0301673  10.3401673  58.1794913  10.3661673
   4.2661673  57.9254913  12.5531673   4.9881673  58.4134913  12.5161673
   3.9961673  57.8954913  11.7241673   4.3331673  57.9934913  12.4251673
   7.4961673  53.0964913   9.2881673   8.3421673  52.9064913   9.3861673
   7.1261673  52.3194913   9.1501673   7.5661673  52.9534913   9.2821673
  20.1131673  64.6804913   3.6151673  20.8071673  64.2134913   3.3671673
  19.5741673  64.0824913   3.9521673  20.1361673  64.5224913   3.6281673
   2.3171673  54.4344913   5.9431673   2.8061673  54.1424913   6.6041673
   2.4461673  53.8414913   5.3161673   2.4081673  54.3034913   5.9481673
  17.3521673  57.4564913  12.7941673  17.3451673  56.6804913  13.1921673
  16.5111673  57.6904913  12.7871673  17.2271673  57.3764913  12.8521673
   3.6611673  58.9774913  16.8311673   3.2401673  58.4594913  16.2701673
   3.3091673  59.7634913  16.6881673   3.5471673  59.0174913  16.7271673
  18.6081673  57.5274913  10.2311673  18.3221673  57.9284913  10.9511673
  19.4681673  57.4654913  10.3581673  18.6931673  57.5774913  10.3561673
   8.2971673  54.3294913   4.1391673   8.5691673  55.1554913   4.2061673
   7.4341673  54.4044913   4.0431673   8.2101673  54.4624913   4.1341673
  16.2701673  51.4514913  18.7711673  15.7451673  51.9104913  19.2951673
  15.9091673  50.6564913  18.7651673  16.1391673  51.4014913  18.8471673
   1.7771673  50.2994913  10.6751673   1.8211673  50.6434913   9.8741673
   2.5321673  50.5364913  11.0421673   1.8951673  50.3854913  10.6111673
  19.7391673  63.1604913  10.7601673  20.0291673  63.4174913   9.9791673
  20.4341673  63.2564913  11.2791673  19.8851673  63.2124913  10.7211673
  14.7621673  55.0204913  18.8471673  14.8351673  55.1244913  19.7101673
  14.1281673  55.5784913  18.6261673  14.6791673  55.1184913  18.9421673
  17.0301673  55.3394913  17.2121673  17.3491673  56.1254913  17.4151673
  16.6601673  55.0694913  17.9551673  17.0231673  55.4154913  17.3521673
  16.3441673  61.7634913   2.7421673  16.6781673  60.9574913   2.7771673
  15.5891673  61.6914913   3.1721673  16.2821673  61.6334913   2.8111673
  16.8261673  53.5974913   8.4011673  16.0811673  53.2744913   8.7191673
  16.8281673  54.4234913   8.6811673  16.7161673  53.6714913   8.4891673
  19.7281673  55.8814913  19.9471673  19.6761673  55.5404913  19.1461673
  20.4651673  56.3484913  19.9251673  19.8291673  55.9004913  19.8251673
  19.2661673  59.5574913  16.1531673  19.8941673  59.0084913  15.8971673
  19.2051673  60.1224913  15.4911673  19.3501673  59.5604913  16.0171673
  13.7181673  59.6384913   2.1451673  14.4021673  59.1244913   1.9761673
  13.3011673  59.6844913   1.3801673  13.7571673  59.5694913   2.0071673
   8.4001673  60.7884913  13.4491673   8.1021673  61.3804913  14.0161673
   8.4551673  61.2304913  12.7001673   8.3641673  60.9414913  13.4221673
   6.3791673  59.7384913  16.8471673   5.5731673  59.4484913  17.0141673
   6.2901673  60.6064913  16.8531673   6.2471673  59.8234913  16.8721673
  15.7381673  49.9274913  15.8621673  16.4821673  50.3794913  15.7991673
  15.1721673  50.3974913  15.3931673  15.7651673  50.0644913  15.7841673
  10.9161673  57.2114913  12.9401673  11.3921673  57.5854913  13.5681673
  10.0931673  57.3454913  13.1991673  10.8651673  57.2864913  13.0711673
   7.6261673  52.8144913  15.6811673   7.7871673  52.0704913  16.1081673
   7.5811673  52.5654913  14.8461673   7.6431673  52.6674913  15.6211673
  10.1801673  64.6044913   8.1681673  10.7261673  65.2834913   8.2221673
   9.8301673  64.6864913   7.3731673  10.2091673  64.7174913   8.0581673
  17.0231673  47.9074913  13.5321673  16.7431673  48.7324913  13.4881673
  17.7391673  47.9604913  14.0281673  17.0881673  48.0374913  13.5991673
   9.3781673  48.6224913  15.5611673  10.0831673  48.9424913  15.1591673
   9.6191673  47.8154913  15.7881673   9.5171673  48.5504913  15.5351673
   8.3631673  62.8324913  11.5571673   7.7391673  63.4144913  11.3751673
   8.6111673  62.5464913  10.7711673   8.3071673  62.8764913  11.4141673
  12.6721673  59.4664913  18.5461673  13.4291673  59.7524913  18.2201673
  12.1251673  59.5184913  17.8681673  12.7031673  59.5164913  18.3971673
  16.5811673  62.0164913  17.0501673  16.9271673  62.2864913  17.8041673
  16.8751673  62.5984913  16.4701673  16.6761673  62.1424913  17.0761673
  18.4441673  54.1624913   2.3891673  18.8221673  54.8394913   1.9891673
  17.6021673  54.3864913   2.4201673  18.3751673  54.2954913   2.3341673
   5.8871673  53.6754913  11.6221673   6.3271673  53.5724913  10.8761673
   6.4321673  53.3624913  12.2271673   6.0321673  53.6144913  11.6011673
  13.9031673  52.7774913  17.2141673  13.2551673  53.2474913  17.5621673
  14.4681673  52.6884913  17.8731673  13.8911673  52.8334913  17.3631673
  13.5911673  54.3144913  13.5121673  13.8931673  54.7344913  14.2151673
  13.6271673  53.4744913  13.7441673  13.6411673  54.2524913  13.6501673
  11.0161673  64.4814913  17.4371673  11.4941673  63.8814913  17.0211673
  10.6651673  64.0384913  18.1021673  11.0351673  64.3274913  17.4741673
  16.1391673  53.7614913   5.7641673  16.3461673  53.5604913   6.5881673
  16.8951673  54.0294913   5.4221673  16.2811673  53.7714913   5.8351673
   9.4341673  48.6604913  11.6691673   8.6081673  48.5114913  11.9061673
   9.3941673  48.6954913  10.7981673   9.3061673  48.6434913  11.5751673
  17.1611673  49.8444913   7.2381673  16.4471673  49.3734913   7.4091673
  16.9991673  50.1854913   6.4521673  17.0321673  49.8254913   7.1471673
  17.6041673  57.7884913   5.6181673  18.0801673  57.0594913   5.5701673
  16.7831673  57.5024913   5.5421673  17.5531673  57.6384913   5.5991673
  11.0751673  59.7004913  16.4571673  10.2801673  59.6364913  16.8081673
  11.1461673  60.5474913  16.2621673  10.9681673  59.8154913  16.4801673
   6.9051673  65.9074913  11.7741673   6.9161673  65.9664913  12.6441673
   6.4801673  65.1604913  11.6241673   6.8441673  65.8054913  11.8801673
   5.0631673  51.8024913   4.9291673   5.1891673  51.4734913   4.1311673
   4.2511673  51.5534913   5.1281673   4.9621673  51.7174913   4.8411673
  13.8201673  58.9554913   7.9731673  13.8961673  59.2964913   8.7721673
  13.9891673  58.1084913   8.0941673  13.8561673  58.8804913   8.1091673
  11.3421673  58.2294913   7.5381673  11.0441673  57.9144913   8.2951673
  12.0371673  58.7024913   7.7731673  11.4011673  58.2524913   7.6851673
  11.5641673  62.3474913  15.5651673  12.2511673  62.2334913  16.0901673
  11.6981673  63.1384913  15.2211673  11.6851673  62.4474913  15.5921673
  19.7401673  54.9564913  17.3761673  18.8851673  54.8344913  17.5021673
  19.8931673  54.5614913  16.6131673  19.6361673  54.8794913  17.2821673
  14.2531673  55.6214913  15.9521673  13.9981673  54.9024913  16.3741673
  15.0741673  55.7374913  16.2221673  14.3371673  55.5324913  16.0541673
   3.6691673  65.4054913  17.2161673   3.0151673  64.8364913  17.3141673
   3.2941673  66.1784913  17.3671673   3.5171673  65.4354913  17.2531673
  12.1871673  56.8114913  19.1391673  12.5101673  57.4974913  18.7071673
  11.4831673  57.1344913  19.5411673  12.1301673  56.9604913  19.1341673
  15.2711673  65.1854913  10.0681673  14.8201673  65.8284913  10.4471673
  15.9791673  65.1064913  10.5731673  15.3091673  65.2684913  10.1991673
  11.9721673  60.2754913  12.9981673  11.2781673  60.6774913  13.3411673
  12.6491673  60.7084913  13.3371673  11.9691673  60.3984913  13.0991673
  17.3491673  62.8684913  19.5781673  18.1251673  62.4784913  19.6611673
  16.8801673  62.5324913  20.2331673  17.3941673  62.7614913  19.6871673
   5.0401673  53.8134913  15.3451673   5.4151673  54.4324913  14.8581673
   5.7141673  53.3394913  15.6301673   5.1951673  53.8354913  15.3151673
   2.8151673  52.2614913  14.6201673   2.8921673  52.0924913  13.7671673
   3.5611673  52.6674913  14.8171673   2.9361673  52.2964913  14.5231673
  18.3741673  54.9014913   5.0601673  18.4771673  54.8434913   4.1961673
  19.1151673  54.5694913   5.3781673  18.4991673  54.8444913   4.9791673
   5.3691673  49.6714913  17.0311673   5.2881673  48.8274913  17.2371673
   5.0551673  49.7154913  16.2181673   5.3111673  49.5534913  16.9411673
  12.2941673  61.8664913   6.1671673  12.0891673  62.6994913   6.0081673
  11.5191673  61.4844913   6.2891673  12.1491673  61.9334913   6.1621673
  17.4761673  55.0474913  14.4161673  17.4741673  54.1844913  14.5401673
  17.5431673  55.3714913  15.2231673  17.4861673  54.9674913  14.5531673
   2.2121673  57.4874913  14.8441673   2.5321673  57.7064913  14.0631673
   2.1121673  56.6224913  14.7891673   2.2441673  57.3924913  14.7211673
  13.3551673  49.8474913  18.1981673  13.4471673  50.5594913  18.6921673
  12.7181673  49.4024913  18.5951673  13.2741673  49.8864913  18.3301673
  12.3491673  50.0374913   9.0521673  11.6491673  50.5554913   8.9961673
  12.3871673  49.6574913   8.2681673  12.2511673  50.0584913   8.9281673
   7.6561673  62.1284913   2.5761673   8.0971673  62.2084913   3.3241673
   6.8511673  61.9124913   2.8341673   7.6021673  62.1084913   2.7251673
  15.9471673  50.5534913  11.8521673  16.8021673  50.6524913  11.9971673
  15.5781673  51.1064913  12.4171673  16.0191673  50.6504913  11.9571673
   6.9751673  56.7794913  16.2291673   6.5791673  57.5534913  16.3041673
   6.5691673  56.4064913  15.5531673   6.8571673  56.8384913  16.1401673
  16.2511673  55.8334913  10.3431673  16.9171673  56.3744913  10.5031673
  15.9061673  56.1444913   9.6041673  16.2981673  55.9594913  10.2581673
  16.5641673  63.8994913   6.1501673  16.3901673  63.2454913   6.7001673
  17.2771673  63.6284913   5.7271673  16.6441673  63.7624913   6.1691673
   4.9851673  61.1984913   3.1771673   4.7411673  60.8914913   3.9571673
   4.9521673  60.4954913   2.6611673   4.9441673  61.0494913   3.2161673
   7.8041673  59.4434913   1.9201673   6.9861673  59.1754913   2.0601673
   7.7761673  60.2954913   2.1051673   7.6791673  59.5304913   1.9681673
   7.4041673  49.7564913  13.6791673   6.5401673  49.8404913  13.7591673
   7.6241673  49.2424913  14.3481673   7.3091673  49.6934913  13.7901673
  19.4221673  48.3914913  15.0081673  19.3701673  48.3474913  15.8781673
  20.1091673  47.8884913  14.8181673  19.5161673  48.3114913  15.1081673
  11.5071673  50.5044913  12.0531673  10.7701673  50.0504913  12.1661673
  12.0781673  50.1024913  12.5761673  11.4821673  50.3774913  12.1471673
  14.2391673  61.3524913  13.8411673  14.4451673  61.6534913  14.6331673
  14.1781673  62.0744913  13.3561673  14.2601673  61.5034913  13.8861673
  13.7731673  65.5664913  18.0871673  13.0201673  65.5484913  17.6461673
  13.9411673  66.4184913  18.1711673  13.6871673  65.6894913  18.0341673
   9.0101673  54.8334913  17.2571673   8.6881673  54.2574913  16.6871673
   8.6511673  55.5884913  17.0111673   8.9101673  54.8594913  17.1371673
  19.0511673  59.9914913  13.2991673  19.0191673  59.1294913  13.1641673
  18.3581673  60.2934913  12.8651673  18.9441673  59.9084913  13.2151673
   7.4451673  65.1894913  17.5051673   7.4861673  65.3154913  18.3681673
   8.0961673  64.6294913  17.3491673   7.5471673  65.1254913  17.6101673
  17.1561673  63.2514913  12.0961673  17.6831673  63.1684913  11.4051673
  16.7651673  62.4734913  12.1501673  17.1761673  63.1244913  12.0021673
   4.6241673  49.8394913  14.3271673   4.2811673  49.0724913  14.0931673
   3.9291673  50.3634913  14.3911673   4.4711673  49.8034913  14.3021673
  13.6701673  48.6954913  11.3041673  14.3401673  49.2394913  11.4311673
  13.1671673  49.1194913  10.7311673  13.6951673  48.8384913  11.2381673
   5.0381673  63.5724913  18.8651673   5.6331673  64.0034913  19.3371673
   4.6741673  64.1964913  18.3761673   5.0721673  63.7284913  18.8621673
  13.0291673  54.5034913   8.7971673  13.5801673  53.8964913   9.0971673
  12.6041673  54.7664913   9.5121673  13.0481673  54.4524913   8.9461673
   3.2771673  53.1534913   8.2831673   2.9091673  53.4554913   9.0141673
   3.8111673  52.5244913   8.5671673   3.3011673  53.1054913   8.4331673
   2.9651673  61.5614913  15.7941673   2.3911673  61.9774913  16.3031673
   3.6981673  62.0264913  15.8891673   2.9891673  61.6914913  15.8831673
  14.9991673  56.3344913   5.3591673  15.0671673  55.4844913   5.5401673
  14.1761673  56.4204913   5.0811673  14.8871673  56.2214913   5.3451673
   4.7511673  64.8284913   4.5691673   4.6061673  64.9844913   3.7231673
   5.6171673  64.9074913   4.6471673   4.8581673  64.8634913   4.4561673
   8.9181673  57.2254913   4.2971673   9.0181673  57.3644913   3.4421673
   9.7361673  57.1654913   4.5931673   9.0531673  57.2364913   4.2141673
  18.0781673  65.2894913   1.7771673  18.7151673  65.1554913   2.3581673
  17.7371673  64.4954913   1.6601673  18.1221673  65.1524913   1.8451673
  18.2731673  57.7074913  18.5101673  18.9071673  57.5374913  19.0841673
  18.6901673  58.1104913  17.8581673  18.4281673  57.7424913  18.4991673
  14.1531673  61.5544913   4.0991673  13.9021673  61.4264913   4.9251673
  13.8361673  60.8594913   3.6781673  14.0691673  61.4334913   4.1591673
  18.8981673  52.2714913  19.2481673  18.7021673  52.9154913  19.8031673
  18.1761673  51.7814913  19.2401673  18.7631673  52.2944913  19.3291673
  18.7971673  53.2124913  12.2191673  17.9641673  53.4624913  12.1471673
  18.7411673  52.3724913  12.4481673  18.6661673  53.1254913  12.2421673
   8.0571673  50.2004913  17.4131673   8.2911673  49.6244913  16.8001673
   7.2151673  50.0194913  17.5541673   7.9671673  50.0884913  17.3431673
  15.6841673  57.8184913  19.8651673  16.5551673  57.7824913  19.8291673
  15.4651673  58.2384913  19.1331673  15.7811673  57.8744913  19.7521673
   5.4381673  63.6434913  11.0461673   5.3591673  62.8334913  10.7301673
   4.9941673  64.1304913  10.4741673   5.3611673  63.5954913  10.9151673
  11.0391673  59.7624913   3.5291673  11.7561673  59.4154913   3.1731673
  11.0051673  60.5624913   3.1811673  11.1401673  59.8294913   3.4251673
   3.0101673  65.8874913  14.6271673   3.5031673  65.8314913  15.3451673
   3.1981673  65.1544913  14.1921673   3.1111673  65.7704913  14.6691673
  12.4481673  29.9253833  63.7928903  12.2031673  30.4133833  63.1128903
  13.3111673  29.8523833  63.6928903  12.5391673  29.9863833  63.6778903
  12.2571673  36.8413833  68.4638903  11.7331673  37.4373833  68.8268903
  12.6541673  36.4733833  69.1478903  12.2381673  36.8753833  68.6188903
  18.4011673  44.2823833  61.4348903  19.1021673  43.7633833  61.4308903
  17.8141673  43.8373833  60.9658903  18.4181673  44.1393833  61.3648903
   5.0081673  40.0363833  59.0988903   4.6161673  39.6653833  58.4128903
   4.9281673  39.4383833  59.7278903   4.9381673  39.8933833  59.0898903
  14.9281673  37.9083833  65.1398903  15.0081673  37.9123833  64.2708903
  14.3441673  37.2763833  65.2888903  14.8531673  37.8153833  65.0338903
   4.6351673  41.6773833  62.9988903   5.2431673  41.5073833  63.6018903
   3.8841673  41.5373833  63.4198903   4.6141673  41.6313833  63.1498903
   8.9171673  31.0123833  62.9478903   8.8471673  31.6893833  62.4018903
   9.6581673  30.6243833  62.6988903   9.0161673  31.0553833  62.8298903
   3.5261673  44.7683833  59.0758903   3.9931673  44.8523833  58.3438903
   3.9811673  44.1903833  59.5448903   3.6621673  44.6953833  59.0368903
   8.6401673  41.2413833  75.2418903   8.4041673  41.2383833  76.0818903
   7.8921673  41.0933833  74.8178903   8.4941673  41.2183833  75.3028903
   3.5121673  38.2373833  64.3768903   3.0501673  37.8453833  63.7498903
   4.2121673  37.7243833  64.4688903   3.5471673  38.1043833  64.2978903
   8.0201673  33.8473833  69.7238903   8.6981673  33.8653833  69.1748903
   7.9751673  33.0113833  69.9688903   8.1131673  33.7263833  69.6788903
   8.6221673  44.4333833  72.5048903   8.7601673  45.1933833  72.0978903
   9.4131673  44.0683833  72.5318903   8.7591673  44.4923833  72.4488903
   5.5131673  36.3373833  64.3998903   6.3301673  36.1503833  64.6428903
   5.0361673  35.7233833  64.7958903   5.5631673  36.2193833  64.4948903
   9.7171673  42.3183833  67.0098903  10.0651673  41.5193833  67.0398903
  10.3821673  42.8223833  66.7548903   9.8671673  42.2743833  66.9768903
   9.7741673  41.7673833  63.2208903  10.1051673  41.1233833  63.7068903
  10.0141673  41.5563833  62.4098903   9.8581673  41.6413833  63.1728903
  11.7421673  35.8983833  74.5598903  10.8941673  35.7993833  74.3818903
  11.7711673  36.6433833  75.0138903  11.6211673  35.9943833  74.6008903
   6.1101673  31.4313833  63.6658903   5.8141673  31.9323833  63.0158903
   6.9771673  31.5093833  63.6088903   6.1941673  31.5173833  63.5618903
  16.3001673  28.8583833  73.6738903  16.1421673  29.6273833  73.2918903
  15.5281673  28.6383833  74.0178903  16.1621673  28.9393833  73.6688903
   9.0891673  30.5733833  65.8888903   9.1621673  31.4333833  66.0178903
   9.0511673  30.4983833  65.0208903   9.0941673  30.6893833  65.7798903
  13.7621673  33.4993833  58.1878903  13.3121673  34.1803833  58.4948903
  13.8761673  32.9953833  58.8908903  13.7131673  33.5253833  58.3368903
   7.7181673  43.5523833  62.7698903   7.1391673  43.2773833  63.3618903
   8.3421673  42.9433833  62.7948903   7.7251673  43.4223833  62.8608903
  13.8611673  45.8403833  60.2918903  14.5881673  46.3123833  60.3938903
  14.0901673  45.0463833  60.5718903  14.0031673  45.7933833  60.3488903
  12.0291673  46.2323833  62.2818903  12.2431673  46.7593833  62.9438903
  12.7961673  46.0583833  61.9028903  12.1741673  46.2843833  62.3238903
   4.9971673  30.8153833  67.8808903   4.4761673  30.1873833  67.5728903
   5.5881673  30.3783833  68.3518903   5.0081673  30.6573833  67.9048903
   3.4231673  44.3783833  63.2208903   4.0791673  43.8033833  63.2358903
   3.8121673  45.1273833  62.9998903   3.5781673  44.4033833  63.1908903
  19.1561673  33.4723833  64.4828903  18.8101673  34.1503833  64.9088903
  18.5201673  32.8743833  64.4988903  19.0111673  33.4843833  64.5478903
  14.4681673  46.2423833  70.5868903  15.2121673  46.6983833  70.5768903
  14.3471673  46.0283833  69.7498903  14.5601673  46.2783833  70.4618903
   4.0361673  32.5453833  76.1628903   3.2581673  32.1553833  76.0908903
   4.5271673  32.1333833  75.5718903   3.9931673  32.4263833  76.0648903
   4.2411673  42.8653833  66.7208903   4.6641673  42.5093833  66.0468903
   4.5651673  42.4433833  67.4128903   4.3511673  42.7503833  66.7238903
   7.4721673  45.7173833  66.0168903   8.3161673  45.8213833  65.8218903
   7.1751673  46.5353833  66.0848903   7.5531673  45.8533833  65.9978903
  10.6851673  30.1883833  75.3308903  10.8631673  29.3793833  75.0558903
  10.5421673  30.6293833  74.5918903  10.6901673  30.1343833  75.1808903
  11.2791673  35.1143833  64.1038903  11.5661673  34.8823833  63.3138903
  12.0111673  35.1933833  64.5728903  11.4291673  35.0913833  64.0568903
  12.0011673  35.4533833  59.2248903  12.2821673  36.2413833  59.4738903
  11.2251673  35.6183833  58.8618903  11.9281673  35.5943833  59.2078903
  16.0421673  47.4273833  60.6918903  16.7071673  47.2793833  60.1468903
  16.4021673  47.3443833  61.4818903  16.1941673  47.3933833  60.7278903
   6.4701673  46.9363833  71.7568903   6.7621673  46.8693833  72.5768903
   5.8441673  46.3313833  71.7118903   6.4211673  46.8373833  71.8718903
  18.8311673  31.7953833  69.8518903  19.5881673  31.8673833  69.4238903
  18.8941673  31.0223833  70.2508903  18.9521673  31.6923833  69.8468903
  13.7221673  43.4273833  74.2908903  13.6881673  43.8093833  75.0748903
  14.5761673  43.3853833  74.1198903  13.8431673  43.4773833  74.3818903
  10.8601673  43.6243833  59.0408903  10.6791673  44.1693833  59.6978903
  11.6261673  43.9143833  58.7398903  10.9461673  43.7483833  59.0938903
  14.3671673  31.5203833  60.0948903  14.9071673  30.8383833  60.1708903
  14.4291673  31.9183833  60.8688903  14.4561673  31.4783833  60.2208903
   2.3211673  32.6883833  62.6638903   2.2071673  31.8243833  62.6948903
   1.8461673  32.9823833  63.3338903   2.2341673  32.6043833  62.7668903
   4.4631673  45.0983833  70.8788903   3.7651673  44.5903833  71.0048903
   4.7231673  44.8933833  70.0708903   4.3981673  44.9933833  70.7778903
  11.6251673  33.8963833  61.4088903  11.1171673  33.2343833  61.1548903
  11.6771673  34.4003833  60.6988903  11.5581673  33.8733833  61.2668903
  12.1741673  46.5913833  71.7888903  12.9421673  46.5113833  71.3828903
  11.5911673  46.4703833  71.1508903  12.2011673  46.5613833  71.6348903
  11.6251673  30.8373833  61.2998903  11.1701673  30.4353833  60.6738903
  12.3981673  30.9923833  60.9248903  11.6721673  30.8013833  61.1518903
  18.4511673  47.1943833  64.6898903  17.9961673  47.9113833  64.8908903
  17.8371673  46.6233833  64.4478903  18.2931673  47.2163833  64.6838903
  10.2231673  33.2043833  65.8218903  10.2971673  33.7723833  65.1638903
  10.3441673  33.6963833  66.5318903  10.2511673  33.3613833  65.8298903
  15.4481673  43.0393833  64.2338903  16.1491673  42.5573833  64.4228903
  14.7881673  42.4703833  64.2788903  15.4541673  42.8843833  64.2678903
   5.8241673  43.9493833  73.4458903   6.6651673  44.0123833  73.2238903
   5.7871673  44.3463833  74.2218903   5.9431673  44.0173833  73.5278903
   4.8311673  29.0273833  64.1698903   5.3671673  29.7153833  64.1598903
   4.8341673  28.7533833  63.3418903   4.9101673  29.0883833  64.0458903
   7.7871673  39.4603833  68.1948903   7.9591673  39.2503833  69.0238903
   7.1321673  38.9263833  67.9788903   7.7161673  39.3503833  68.2858903
  14.0151673  33.3743833  71.7098903  13.9201673  33.6933833  72.5158903
  13.4221673  32.7353833  71.6718903  13.9131673  33.3263833  71.8238903
   8.5371673  39.3983833  70.7848903   8.5901673  40.2453833  70.9868903
   8.2521673  39.0283833  71.5218903   8.5031673  39.4683833  70.9228903
  14.7141673  40.0933833  69.9148903  14.2001673  39.6813833  70.4858903
  14.5881673  40.9373833  70.0958903  14.6201673  40.1573833  70.0258903
  15.2711673  29.3183833  64.5458903  15.3201673  29.0003833  65.3568903
  15.5941673  28.6743833  64.0528903  15.3261673  29.1763833  64.5928903
  17.7351673  33.5543833  72.8538903  18.5071673  33.3293833  73.1908903
  17.2601673  33.7713833  73.5538903  17.7791673  33.5533833  73.0068903
   5.2791673  32.8373833  65.8238903   5.5511673  32.4073833  65.1158903
   5.1031673  32.2013833  66.3948903   5.2931673  32.6803833  65.8038903
  17.9671673  40.5323833  60.0418903  18.0861673  40.2453833  60.8568903
  18.7741673  40.5533833  59.7118903  18.1031673  40.4933833  60.1138903
   5.1031673  40.2643833  65.3728903   5.9541673  40.1843833  65.1998903
   4.7461673  39.5823833  64.9608903   5.1761673  40.1513833  65.2858903
   3.8701673  46.9893833  66.6098903   3.1971673  46.4913833  66.3648903
   4.2731673  47.1743833  65.8588903   3.8301673  46.9433833  66.4628903
   3.4201673  33.9393833  68.9058903   4.2631673  34.1593833  68.8628903
   3.0311673  34.5123833  68.3748903   3.4871673  34.0563833  68.8208903
  20.2011673  45.0413833  74.2958903  19.5191673  45.3513833  73.8488903
  19.8321673  44.5833833  74.9408903  20.0451673  45.0193833  74.3248903
  15.8621673  37.0693833  59.6268903  15.6421673  37.8003833  59.2048903
  15.4141673  37.1203833  60.3738903  15.7631673  37.1843833  59.6748903
   7.4711673  40.2713833  63.6078903   8.1841673  40.7663833  63.6978903
   7.6931673  39.7043833  62.9818903   7.6091673  40.2603833  63.5288903
  20.0491673  31.9303833  59.0798903  19.3871673  31.3623833  59.1028903
  19.8561673  32.4423833  58.3998903  19.9231673  31.9223833  58.9828903
  20.3721673  36.3083833  71.6358903  20.5871673  35.5083833  71.3598903
  19.5221673  36.3683833  71.4468903  20.2781673  36.1993833  71.5668903
  18.0511673  31.4883833  61.3588903  18.7971673  31.0813833  61.5578903
  18.3141673  32.2033833  60.9338903  18.2001673  31.5343833  61.3258903
  11.9941673  43.9743833  65.9348903  11.4711673  44.6083833  65.6418903
  12.3041673  43.6103833  65.2058903  11.9621673  44.0143833  65.7838903
   6.0691673  41.7623833  68.6948903   6.5361673  42.0513833  69.3728903
   6.6411673  41.2843833  68.2408903   6.2231673  41.7343833  68.7278903
  14.5051673  33.7763833  66.4318903  14.8491673  33.9283833  67.2188903
  14.0521673  33.0383833  66.5448903  14.4891673  33.6893833  66.5648903
   2.6351673  39.4323833  67.2388903   3.0661673  39.3033833  66.4918903
   2.4301673  40.2803833  67.2128903   2.6681673  39.5383833  67.1248903
   8.9811673  32.9963833  60.8888903   8.9791673  32.8793833  60.0238903
   8.8001673  33.8443833  60.9808903   8.9541673  33.1043833  60.7748903
  18.0351673  45.4233833  72.3858903  17.3641673  45.9373833  72.6038903
  18.0981673  45.5233833  71.5218903  17.9451673  45.5143833  72.2908903
   6.7191673  42.9483833  65.5208903   6.8451673  43.7913833  65.7078903
   7.3871673  42.5493833  65.9168903   6.8371673  43.0143833  65.6068903
   4.8491673  36.4313833  75.3828903   4.3131673  35.9253833  75.8508903
   4.8691673  36.0413833  74.6028903   4.7721673  36.2983833  75.3368903
   5.3341673  35.8283833  60.5228903   5.2061673  35.3803833  61.2608903
   4.7521673  35.4863833  59.9708903   5.2291673  35.7113833  60.5508903
   5.5011673  37.6583833  67.1218903   4.7201673  37.5993833  66.7388903
   5.5731673  36.9063833  67.5588903   5.3961673  37.5393833  67.1298903
   5.9311673  37.3953833  70.5898903   5.9561673  36.7203833  70.0388903
   5.2851673  37.8913833  70.2778903   5.8401673  37.3683833  70.4628903
  15.8261673  35.1083833  68.9858903  15.1641673  35.4363833  69.4488903
  16.0131673  35.7423833  68.4168903  15.7561673  35.2503833  68.9698903
  10.0311673  46.1723833  69.9818903   9.7541673  45.5313833  69.4588903
   9.8231673  46.8983833  69.5438903   9.9601673  46.1853833  69.8398903
  12.4711673  31.0143833  72.4148903  12.6201673  30.1893833  72.1718903
  12.8501673  31.0693833  73.1988903  12.5491673  30.9003833  72.4948903
  14.0191673  33.0773833  62.4968903  14.5091673  33.7943833  62.4198903
  13.2291673  33.3383833  62.2338903  13.9751673  33.2213833  62.4468903
   3.7301673  38.7503833  76.1488903   3.6931673  39.2513833  75.4348903
   4.0611673  37.9983833  75.8538903   3.7731673  38.7123833  75.9998903
  15.3331673  40.9553833  74.4068903  15.8171673  41.6733833  74.5048903
  15.7271673  40.5283833  73.7558903  15.4631673  40.9983833  74.3248903
   9.6291673  43.8003833  75.5838903   9.9831673  43.6223833  76.3608903
   9.1931673  43.0713833  75.3848903   9.6171673  43.6663833  75.6698903
  10.6011673  34.5473833  68.2218903  11.0811673  35.2463833  68.4298903
  10.9741673  33.9003833  68.6728903  10.7271673  34.5553833  68.3188903
  12.7901673  37.7163833  60.4958903  12.7821673  38.4383833  60.0058903
  12.1511673  37.8513833  61.0728903  12.6951673  37.8433833  60.5088903
  17.7621673  41.5863833  64.4768903  18.1181673  41.2363833  65.1918903
  17.7541673  40.9253833  63.9068903  17.8141673  41.4363833  64.4978903
  13.8071673  44.6523833  68.3208903  13.2041673  44.3563833  67.7638903
  14.3521673  45.1043833  67.8118903  13.7981673  44.6753833  68.1628903
  13.8201673  41.5033833  67.7208903  13.0231673  41.7273833  67.9948903
  14.0781673  40.9093833  68.3058903  13.7401673  41.4483833  67.8478903
   7.7121673  46.3153833  62.1688903   7.5651673  45.5393833  62.5398903
   8.4011673  46.1683833  61.6538903   7.7921673  46.1783833  62.1478903
   7.3831673  30.0583833  60.1568903   7.4801673  29.9513833  61.0178903
   6.6751673  30.5643833  60.0918903   7.2931673  30.1173833  60.2748903
  10.0041673  45.8313833  60.5708903  10.6261673  45.9943833  61.1608903
  10.0401673  46.5223833  60.0388903  10.1011673  45.9573833  60.5798903
  17.0801673  39.5013833  72.5668903  17.1351673  39.6263833  71.7048903
  17.8331673  39.8213833  72.8688903  17.1991673  39.5663833  72.4838903
  18.1121673  29.7993833  75.5538903  17.4751673  29.3993833  75.1118903
  18.1381673  29.3683833  76.3118903  18.0221673  29.6773833  75.5998903
   4.5051673  38.3653833  61.3998903   4.8291673  37.5863833  61.1778903
   5.1511673  38.7333833  61.8548903   4.6481673  38.3043833  61.4338903
  12.8111673  39.3073833  72.1668903  12.6561673  39.9173833  72.7708903
  13.3451673  38.7493833  72.5728903  12.8671673  39.3153833  72.3158903
  11.1951673  37.7073833  62.8248903  11.2541673  38.3573833  63.4038903
  11.0061673  37.0113833  63.3158903  11.1761673  37.7003833  62.9828903
  16.4211673  42.0363833  68.6938903  15.9421673  42.3343833  68.0278903
  16.0651673  41.2603833  68.8718903  16.2981673  41.9653833  68.6218903
   5.6911673  32.2243833  59.3368903   5.1801673  32.2773833  58.6308903
   6.4751673  32.4643833  59.0408903   5.7311673  32.2673833  59.1888903
  10.4181673  39.7543833  67.2558903   9.5711673  39.5603833  67.3368903
  10.7421673  39.5893833  68.0488903  10.3401673  39.7013833  67.3848903
   7.1701673  46.4843833  58.1418903   7.6091673  45.7873833  58.4298903
   7.3771673  47.1083833  58.7148903   7.2661673  46.4733833  58.2688903
   4.2661673  39.4473833  69.5718903   4.9881673  39.9353833  69.5348903
   3.9961673  39.4173833  68.7428903   4.3331673  39.5153833  69.4438903
   7.4961673  34.6183833  66.3068903   8.3421673  34.4283833  66.4048903
   7.1261673  33.8413833  66.1688903   7.5661673  34.4753833  66.3008903
  20.1131673  46.2023833  60.6338903  20.8071673  45.7353833  60.3858903
  19.5741673  45.6043833  60.9708903  20.1361673  46.0443833  60.6468903
   2.3171673  35.9563833  62.9618903   2.8061673  35.6643833  63.6228903
   2.4461673  35.3633833  62.3348903   2.4081673  35.8253833  62.9668903
  17.3521673  38.9783833  69.8128903  17.3451673  38.2023833  70.2108903
  16.5111673  39.2123833  69.8058903  17.2271673  38.8983833  69.8708903
   6.8421673  37.3903833  58.4478903   6.2321673  36.9853833  58.9218903
   6.4561673  37.5083833  57.6748903   6.6951673  37.3473833  58.4038903
   3.6611673  40.4993833  73.8498903   3.2401673  39.9813833  73.2888903
   3.3091673  41.2853833  73.7068903   3.5471673  40.5393833  73.7458903
  18.6081673  39.0493833  67.2498903  18.3221673  39.4503833  67.9698903
  19.4681673  38.9873833  67.3768903  18.6931673  39.0993833  67.3748903
   8.2971673  35.8513833  61.1578903   8.5691673  36.6773833  61.2248903
   7.4341673  35.9263833  61.0618903   8.2101673  35.9843833  61.1528903
  16.2701673  32.9733833  75.7898903  15.7451673  33.4323833  76.3138903
  15.9091673  32.1783833  75.7838903  16.1391673  32.9233833  75.8658903
   1.7771673  31.8213833  67.6938903   1.8211673  32.1653833  66.8928903
   2.5321673  32.0583833  68.0608903   1.8951673  31.9073833  67.6298903
  19.7391673  44.6823833  67.7788903  20.0291673  44.9393833  66.9978903
  20.4341673  44.7783833  68.2978903  19.8851673  44.7343833  67.7398903
  14.7621673  36.5423833  75.8658903  14.8351673  36.6463833  76.7288903
  14.1281673  37.1003833  75.6448903  14.6791673  36.6403833  75.9608903
  17.0301673  36.8613833  74.2308903  17.3491673  37.6473833  74.4338903
  16.6601673  36.5913833  74.9738903  17.0231673  36.9373833  74.3708903
  16.3441673  43.2853833  59.7608903  16.6781673  42.4793833  59.7958903
  15.5891673  43.2133833  60.1908903  16.2821673  43.1553833  59.8298903
  16.8261673  35.1193833  65.4198903  16.0811673  34.7963833  65.7378903
  16.8281673  35.9453833  65.6998903  16.7161673  35.1933833  65.5078903
  19.2661673  41.0793833  73.1718903  19.8941673  40.5303833  72.9158903
  19.2051673  41.6443833  72.5098903  19.3501673  41.0823833  73.0358903
  13.7181673  41.1603833  59.1638903  14.4021673  40.6463833  58.9948903
  13.3011673  41.2063833  58.3988903  13.7571673  41.0913833  59.0258903
   8.4001673  42.3103833  70.4678903   8.1021673  42.9023833  71.0348903
   8.4551673  42.7523833  69.7188903   8.3641673  42.4633833  70.4408903
   6.3791673  41.2603833  73.8658903   5.5731673  40.9703833  74.0328903
   6.2901673  42.1283833  73.8718903   6.2471673  41.3453833  73.8908903
  15.7381673  31.4493833  72.8808903  16.4821673  31.9013833  72.8178903
  15.1721673  31.9193833  72.4118903  15.7651673  31.5863833  72.8028903
  10.9161673  38.7333833  69.9588903  11.3921673  39.1073833  70.5868903
  10.0931673  38.8673833  70.2178903  10.8651673  38.8083833  70.0898903
   7.6261673  34.3363833  72.6998903   7.7871673  33.5923833  73.1268903
   7.5811673  34.0873833  71.8648903   7.6431673  34.1893833  72.6398903
  10.1801673  46.1263833  65.1868903  10.7261673  46.8053833  65.2408903
   9.8301673  46.2083833  64.3918903  10.2091673  46.2393833  65.0768903
  17.0231673  29.4293833  70.5508903  16.7431673  30.2543833  70.5068903
  17.7391673  29.4823833  71.0468903  17.0881673  29.5593833  70.6178903
   9.3781673  30.1443833  72.5798903  10.0831673  30.4643833  72.1778903
   9.6191673  29.3373833  72.8068903   9.5171673  30.0723833  72.5538903
   8.3631673  44.3543833  68.5758903   7.7391673  44.9363833  68.3938903
   8.6111673  44.0683833  67.7898903   8.3071673  44.3983833  68.4328903
  12.6721673  40.9883833  75.5648903  13.4291673  41.2743833  75.2388903
  12.1251673  41.0403833  74.8868903  12.7031673  41.0383833  75.4158903
  16.5811673  43.5383833  74.0688903  16.9271673  43.8083833  74.8228903
  16.8751673  44.1203833  73.4888903  16.6761673  43.6643833  74.0948903
  18.4441673  35.6843833  59.4078903  18.8221673  36.3613833  59.0078903
  17.6021673  35.9083833  59.4388903  18.3751673  35.8173833  59.3528903
   9.9571673  39.1303833  58.4908903   9.1521673  38.9533833  58.2058903
   9.9241673  39.9813833  58.6828903   9.8331673  39.2293833  58.4778903
   5.8871673  35.1973833  68.6408903   6.3271673  35.0943833  67.8948903
   6.4321673  34.8843833  69.2458903   6.0321673  35.1363833  68.6198903
  13.9031673  34.2993833  74.2328903  13.2551673  34.7693833  74.5808903
  14.4681673  34.2103833  74.8918903  13.8911673  34.3553833  74.3818903
  13.5911673  35.8363833  70.5308903  13.8931673  36.2563833  71.2338903
  13.6271673  34.9963833  70.7628903  13.6411673  35.7743833  70.6688903
  11.0161673  46.0033833  74.4558903  11.4941673  45.4033833  74.0398903
  10.6651673  45.5603833  75.1208903  11.0351673  45.8493833  74.4928903
  16.1391673  35.2833833  62.7828903  16.3461673  35.0823833  63.6068903
  16.8951673  35.5513833  62.4408903  16.2811673  35.2933833  62.8538903
   9.4341673  30.1823833  68.6878903   8.6081673  30.0333833  68.9248903
   9.3941673  30.2173833  67.8168903   9.3061673  30.1653833  68.5938903
  17.1611673  31.3663833  64.2568903  16.4471673  30.8953833  64.4278903
  16.9991673  31.7073833  63.4708903  17.0321673  31.3473833  64.1658903
  17.6041673  39.3103833  62.6368903  18.0801673  38.5813833  62.5888903
  16.7831673  39.0243833  62.5608903  17.5531673  39.1603833  62.6178903
  11.0751673  41.2223833  73.4758903  10.2801673  41.1583833  73.8268903
  11.1461673  42.0693833  73.2808903  10.9681673  41.3373833  73.4988903
   6.9051673  47.4293833  68.7928903   6.9161673  47.4883833  69.6628903
   6.4801673  46.6823833  68.6428903   6.8441673  47.3273833  68.8988903
   5.0631673  33.3243833  61.9478903   5.1891673  32.9953833  61.1498903
   4.2511673  33.0753833  62.1468903   4.9621673  33.2393833  61.8598903
  13.8201673  40.4773833  64.9918903  13.8961673  40.8183833  65.7908903
  13.9891673  39.6303833  65.1128903  13.8561673  40.4023833  65.1278903
  11.3421673  39.7513833  64.5568903  11.0441673  39.4363833  65.3138903
  12.0371673  40.2243833  64.7918903  11.4011673  39.7743833  64.7038903
  11.5641673  43.8693833  72.5838903  12.2511673  43.7553833  73.1088903
  11.6981673  44.6603833  72.2398903  11.6851673  43.9693833  72.6108903
  19.7401673  36.4783833  74.3948903  18.8851673  36.3563833  74.5208903
  19.8931673  36.0833833  73.6318903  19.6361673  36.4013833  74.3008903
  14.2531673  37.1433833  72.9708903  13.9981673  36.4243833  73.3928903
  15.0741673  37.2593833  73.2408903  14.3371673  37.0543833  73.0728903
   3.6691673  46.9273833  74.2348903   3.0151673  46.3583833  74.3328903
   3.2941673  47.7003833  74.3858903   3.5171673  46.9573833  74.2718903
  12.1871673  38.3333833  76.1578903  12.5101673  39.0193833  75.7258903
  11.4831673  38.6563833  76.5598903  12.1301673  38.4823833  76.1528903
  15.2711673  46.7073833  67.0868903  14.8201673  47.3503833  67.4658903
  15.9791673  46.6283833  67.5918903  15.3091673  46.7903833  67.2178903
  11.9721673  41.7973833  70.0168903  11.2781673  42.1993833  70.3598903
  12.6491673  42.2303833  70.3558903  11.9691673  41.9203833  70.1178903
   5.0401673  35.3353833  72.3638903   5.4151673  35.9543833  71.8768903
   5.7141673  34.8613833  72.6488903   5.1951673  35.3573833  72.3338903
   2.8151673  33.7833833  71.6388903   2.8921673  33.6143833  70.7858903
   3.5611673  34.1893833  71.8358903   2.9361673  33.8183833  71.5418903
  18.3741673  36.4233833  62.0788903  18.4771673  36.3653833  61.2148903
  19.1151673  36.0913833  62.3968903  18.4991673  36.3663833  61.9978903
   5.3691673  31.1933833  74.0498903   5.2881673  30.3493833  74.2558903
   5.0551673  31.2373833  73.2368903   5.3111673  31.0753833  73.9598903
  12.2941673  43.3883833  63.1858903  12.0891673  44.2213833  63.0268903
  11.5191673  43.0063833  63.3078903  12.1491673  43.4553833  63.1808903
  17.4761673  36.5693833  71.4348903  17.4741673  35.7063833  71.5588903
  17.5431673  36.8933833  72.2418903  17.4861673  36.4893833  71.5718903
   2.2121673  39.0093833  71.8628903   2.5321673  39.2283833  71.0818903
   2.1121673  38.1443833  71.8078903   2.2441673  38.9143833  71.7398903
   3.6681673  34.9453833  58.4808903   2.9961673  34.9593833  59.0368903
   3.7631673  34.0973833  58.2968903   3.5831673  34.8223833  58.5358903
  13.3551673  31.3693833  75.2168903  13.4471673  32.0813833  75.7108903
  12.7181673  30.9243833  75.6138903  13.2741673  31.4083833  75.3488903
  12.3491673  31.5593833  66.0708903  11.6491673  32.0773833  66.0148903
  12.3871673  31.1793833  65.2868903  12.2511673  31.5803833  65.9468903
   7.6561673  43.6503833  59.5948903   8.0971673  43.7303833  60.3428903
   6.8511673  43.4343833  59.8528903   7.6021673  43.6303833  59.7438903
  15.9471673  32.0753833  68.8708903  16.8021673  32.1743833  69.0158903
  15.5781673  32.6283833  69.4358903  16.0191673  32.1723833  68.9758903
   6.9751673  38.3013833  73.2478903   6.5791673  39.0753833  73.3228903
   6.5691673  37.9283833  72.5718903   6.8571673  38.3603833  73.1588903
  16.2511673  37.3553833  67.3618903  16.9171673  37.8963833  67.5218903
  15.9061673  37.6663833  66.6228903  16.2981673  37.4813833  67.2768903
  16.5641673  45.4213833  63.1688903  16.3901673  44.7673833  63.7188903
  17.2771673  45.1503833  62.7458903  16.6441673  45.2843833  63.1878903
   4.9851673  42.7203833  60.1958903   4.7411673  42.4133833  60.9758903
   4.9521673  42.0173833  59.6798903   4.9441673  42.5713833  60.2348903
   7.8041673  40.9653833  58.9388903   6.9861673  40.6973833  59.0788903
   7.7761673  41.8173833  59.1238903   7.6791673  41.0523833  58.9868903
   7.4041673  31.2783833  70.6978903   6.5401673  31.3623833  70.7778903
   7.6241673  30.7643833  71.3668903   7.3091673  31.2153833  70.8088903
  19.4221673  29.9133833  72.0268903  19.3701673  29.8693833  72.8968903
  20.1091673  29.4103833  71.8368903  19.5161673  29.8333833  72.1268903
  11.5071673  32.0263833  69.0718903  10.7701673  31.5723833  69.1848903
  12.0781673  31.6243833  69.5948903  11.4821673  31.8993833  69.1658903
  14.2391673  42.8743833  70.8598903  14.4451673  43.1753833  71.6518903
  14.1781673  43.5963833  70.3748903  14.2601673  43.0253833  70.9048903
  13.7731673  47.0883833  75.1058903  13.0201673  47.0703833  74.6648903
  13.9411673  47.9403833  75.1898903  13.6871673  47.2113833  75.0528903
   9.0101673  36.3553833  74.2758903   8.6881673  35.7793833  73.7058903
   8.6511673  37.1103833  74.0298903   8.9101673  36.3813833  74.1558903
   9.8061673  29.6073833  58.9028903   9.8841673  29.8543833  58.0698903
   9.0631673  29.9843833  59.1608903   9.7081673  29.6993833  58.8178903
  19.0511673  41.5133833  70.3178903  19.0191673  40.6513833  70.1828903
  18.3581673  41.8153833  69.8838903  18.9441673  41.4303833  70.2338903
   7.4451673  46.7113833  74.5238903   7.4861673  46.8373833  75.3868903
   8.0961673  46.1513833  74.3678903   7.5471673  46.6473833  74.6288903
  17.1561673  44.7733833  69.1148903  17.6831673  44.6903833  68.4238903
  16.7651673  43.9953833  69.1688903  17.1761673  44.6463833  69.0208903
   4.6241673  31.3613833  71.3458903   4.2811673  30.5943833  71.1118903
   3.9291673  31.8853833  71.4098903   4.4711673  31.3253833  71.3208903
  13.6701673  30.2173833  68.3228903  14.3401673  30.7613833  68.4498903
  13.1671673  30.6413833  67.7498903  13.6951673  30.3603833  68.2568903
   5.0381673  45.0943833  75.8838903   5.6331673  45.5253833  76.3558903
   4.6741673  45.7183833  75.3948903   5.0721673  45.2503833  75.8808903
  13.0291673  36.0253833  65.8158903  13.5801673  35.4183833  66.1158903
  12.6041673  36.2883833  66.5308903  13.0481673  35.9743833  65.9648903
   3.2771673  34.6753833  65.3018903   2.9091673  34.9773833  66.0328903
   3.8111673  34.0463833  65.5858903   3.3011673  34.6273833  65.4518903
   2.9651673  43.0833833  72.8128903   2.3911673  43.4993833  73.3218903
   3.6981673  43.5483833  72.9078903   2.9891673  43.2133833  72.9018903
  14.9991673  37.8563833  62.3778903  15.0671673  37.0063833  62.5588903
  14.1761673  37.9423833  62.0998903  14.8871673  37.7433833  62.3638903
   4.7511673  46.3503833  61.5878903   4.6061673  46.5063833  60.7418903
   5.6171673  46.4293833  61.6658903   4.8581673  46.3853833  61.4748903
   8.9181673  38.7473833  61.3158903   9.0181673  38.8863833  60.4608903
   9.7361673  38.6873833  61.6118903   9.0531673  38.7583833  61.2328903
  18.0781673  46.8113833  58.7958903  18.7151673  46.6773833  59.3768903
  17.7371673  46.0173833  58.6788903  18.1221673  46.6743833  58.8638903
  18.2731673  39.2293833  75.5288903  18.9071673  39.0593833  76.1028903
  18.6901673  39.6323833  74.8768903  18.4281673  39.2643833  75.5178903
  14.1531673  43.0763833  61.1178903  13.9021673  42.9483833  61.9438903
  13.8361673  42.3813833  60.6968903  14.0691673  42.9553833  61.1778903
  18.8981673  33.7933833  76.2668903  18.7021673  34.4373833  76.8218903
  18.1761673  33.3033833  76.2588903  18.7631673  33.8163833  76.3478903
  18.7971673  34.7343833  69.2378903  17.9641673  34.9843833  69.1658903
  18.7411673  33.8943833  69.4668903  18.6661673  34.6473833  69.2608903
   8.0571673  31.7223833  74.4318903   8.2911673  31.1463833  73.8188903
   7.2151673  31.5413833  74.5728903   7.9671673  31.6103833  74.3618903
  15.6841673  39.3403833  76.8838903  16.5551673  39.3043833  76.8478903
  15.4651673  39.7603833  76.1518903  15.7811673  39.3963833  76.7708903
   5.4381673  45.1653833  68.0648903   5.3591673  44.3553833  67.7488903
   4.9941673  45.6523833  67.4928903   5.3611673  45.1173833  67.9338903
  11.0391673  41.2843833  60.5478903  11.7561673  40.9373833  60.1918903
  11.0051673  42.0843833  60.1998903  11.1401673  41.3513833  60.4438903
   3.0101673  47.4093833  71.6458903   3.5031673  47.3533833  72.3638903
   3.1981673  46.6763833  71.2108903   3.1111673  47.2923833  71.6878903
  12.4481673  29.9253833  44.7866493  12.2031673  30.4133833  44.1066493
  13.3111673  29.8523833  44.6866493  12.5391673  29.9863833  44.6716493
  12.2571673  36.8413833  49.4576493  11.7331673  37.4373833  49.8206493
  12.6541673  36.4733833  50.1416493  12.2381673  36.8753833  49.6126493
  18.4011673  44.2823833  42.4286493  19.1021673  43.7633833  42.4246493
  17.8141673  43.8373833  41.9596493  18.4181673  44.1393833  42.3586493
   5.0081673  40.0363833  40.0926493   4.6161673  39.6653833  39.4066493
   4.9281673  39.4383833  40.7216493   4.9381673  39.8933833  40.0836493
  14.9281673  37.9083833  46.1336493  15.0081673  37.9123833  45.2646493
  14.3441673  37.2763833  46.2826493  14.8531673  37.8153833  46.0276493
   4.6351673  41.6773833  43.9926493   5.2431673  41.5073833  44.5956493
   3.8841673  41.5373833  44.4136493   4.6141673  41.6313833  44.1436493
   8.9171673  31.0123833  43.9416493   8.8471673  31.6893833  43.3956493
   9.6581673  30.6243833  43.6926493   9.0161673  31.0553833  43.8236493
   3.5261673  44.7683833  40.0696493   3.9931673  44.8523833  39.3376493
   3.9811673  44.1903833  40.5386493   3.6621673  44.6953833  40.0306493
   8.6401673  41.2413833  56.2356493   8.4041673  41.2383833  57.0756493
   7.8921673  41.0933833  55.8116493   8.4941673  41.2183833  56.2966493
   3.5121673  38.2373833  45.3706493   3.0501673  37.8453833  44.7436493
   4.2121673  37.7243833  45.4626493   3.5471673  38.1043833  45.2916493
   8.0201673  33.8473833  50.7176493   8.6981673  33.8653833  50.1686493
   7.9751673  33.0113833  50.9626493   8.1131673  33.7263833  50.6726493
   8.6221673  44.4333833  53.4986493   8.7601673  45.1933833  53.0916493
   9.4131673  44.0683833  53.5256493   8.7591673  44.4923833  53.4426493
   5.5131673  36.3373833  45.3936493   6.3301673  36.1503833  45.6366493
   5.0361673  35.7233833  45.7896493   5.5631673  36.2193833  45.4886493
   9.7171673  42.3183833  48.0036493  10.0651673  41.5193833  48.0336493
  10.3821673  42.8223833  47.7486493   9.8671673  42.2743833  47.9706493
   9.7741673  41.7673833  44.2146493  10.1051673  41.1233833  44.7006493
  10.0141673  41.5563833  43.4036493   9.8581673  41.6413833  44.1666493
  11.7421673  35.8983833  55.5536493  10.8941673  35.7993833  55.3756493
  11.7711673  36.6433833  56.0076493  11.6211673  35.9943833  55.5946493
   6.1101673  31.4313833  44.6596493   5.8141673  31.9323833  44.0096493
   6.9771673  31.5093833  44.6026493   6.1941673  31.5173833  44.5556493
  16.3001673  28.8583833  54.6676493  16.1421673  29.6273833  54.2856493
  15.5281673  28.6383833  55.0116493  16.1621673  28.9393833  54.6626493
   9.0891673  30.5733833  46.8826493   9.1621673  31.4333833  47.0116493
   9.0511673  30.4983833  46.0146493   9.0941673  30.6893833  46.7736493
  13.7621673  33.4993833  39.1816493  13.3121673  34.1803833  39.4886493
  13.8761673  32.9953833  39.8846493  13.7131673  33.5253833  39.3306493
   7.7181673  43.5523833  43.7636493   7.1391673  43.2773833  44.3556493
   8.3421673  42.9433833  43.7886493   7.7251673  43.4223833  43.8546493
  13.8611673  45.8403833  41.2856493  14.5881673  46.3123833  41.3876493
  14.0901673  45.0463833  41.5656493  14.0031673  45.7933833  41.3426493
  12.0291673  46.2323833  43.2756493  12.2431673  46.7593833  43.9376493
  12.7961673  46.0583833  42.8966493  12.1741673  46.2843833  43.3176493
   4.9971673  30.8153833  48.8746493   4.4761673  30.1873833  48.5666493
   5.5881673  30.3783833  49.3456493   5.0081673  30.6573833  48.8986493
   8.3031673  32.9483833  58.1726493   8.4201673  32.4943833  57.4366493
   8.5911673  33.7463833  57.9696493   8.3631673  32.9993833  58.0336493
   3.4231673  44.3783833  44.2146493   4.0791673  43.8033833  44.2296493
   3.8121673  45.1273833  43.9936493   3.5781673  44.4033833  44.1846493
  19.1561673  33.4723833  45.4766493  18.8101673  34.1503833  45.9026493
  18.5201673  32.8743833  45.4926493  19.0111673  33.4843833  45.5416493
  14.4681673  46.2423833  51.5806493  15.2121673  46.6983833  51.5706493
  14.3471673  46.0283833  50.7436493  14.5601673  46.2783833  51.4556493
   4.0361673  32.5453833  57.1566493   3.2581673  32.1553833  57.0846493
   4.5271673  32.1333833  56.5656493   3.9931673  32.4263833  57.0586493
   4.2411673  42.8653833  47.7146493   4.6641673  42.5093833  47.0406493
   4.5651673  42.4433833  48.4066493   4.3511673  42.7503833  47.7176493
   7.4721673  45.7173833  47.0106493   8.3161673  45.8213833  46.8156493
   7.1751673  46.5353833  47.0786493   7.5531673  45.8533833  46.9916493
  10.6851673  30.1883833  56.3246493  10.8631673  29.3793833  56.0496493
  10.5421673  30.6293833  55.5856493  10.6901673  30.1343833  56.1746493
  11.2791673  35.1143833  45.0976493  11.5661673  34.8823833  44.3076493
  12.0111673  35.1933833  45.5666493  11.4291673  35.0913833  45.0506493
  12.0011673  35.4533833  40.2186493  12.2821673  36.2413833  40.4676493
  11.2251673  35.6183833  39.8556493  11.9281673  35.5943833  40.2016493
  16.0421673  47.4273833  41.6856493  16.7071673  47.2793833  41.1406493
  16.4021673  47.3443833  42.4756493  16.1941673  47.3933833  41.7216493
   6.4701673  46.9363833  52.7506493   6.7621673  46.8693833  53.5706493
   5.8441673  46.3313833  52.7056493   6.4211673  46.8373833  52.8656493
  18.8311673  31.7953833  50.8456493  19.5881673  31.8673833  50.4176493
  18.8941673  31.0223833  51.2446493  18.9521673  31.6923833  50.8406493
  13.7221673  43.4273833  55.2846493  13.6881673  43.8093833  56.0686493
  14.5761673  43.3853833  55.1136493  13.8431673  43.4773833  55.3756493
  10.8601673  43.6243833  40.0346493  10.6791673  44.1693833  40.6916493
  11.6261673  43.9143833  39.7336493  10.9461673  43.7483833  40.0876493
  14.3671673  31.5203833  41.0886493  14.9071673  30.8383833  41.1646493
  14.4291673  31.9183833  41.8626493  14.4561673  31.4783833  41.2146493
   2.3211673  32.6883833  43.6576493   2.2071673  31.8243833  43.6886493
   1.8461673  32.9823833  44.3276493   2.2341673  32.6043833  43.7606493
   4.4631673  45.0983833  51.8726493   3.7651673  44.5903833  51.9986493
   4.7231673  44.8933833  51.0646493   4.3981673  44.9933833  51.7716493
  11.6251673  33.8963833  42.4026493  11.1171673  33.2343833  42.1486493
  11.6771673  34.4003833  41.6926493  11.5581673  33.8733833  42.2606493
  12.1741673  46.5913833  52.7826493  12.9421673  46.5113833  52.3766493
  11.5911673  46.4703833  52.1446493  12.2011673  46.5613833  52.6286493
  11.6251673  30.8373833  42.2936493  11.1701673  30.4353833  41.6676493
  12.3981673  30.9923833  41.9186493  11.6721673  30.8013833  42.1456493
  18.4511673  47.1943833  45.6836493  17.9961673  47.9113833  45.8846493
  17.8371673  46.6233833  45.4416493  18.2931673  47.2163833  45.6776493
  10.2231673  33.2043833  46.8156493  10.2971673  33.7723833  46.1576493
  10.3441673  33.6963833  47.5256493  10.2511673  33.3613833  46.8236493
  15.4481673  43.0393833  45.2276493  16.1491673  42.5573833  45.4166493
  14.7881673  42.4703833  45.2726493  15.4541673  42.8843833  45.2616493
   5.8241673  43.9493833  54.4396493   6.6651673  44.0123833  54.2176493
   5.7871673  44.3463833  55.2156493   5.9431673  44.0173833  54.5216493
   4.8311673  29.0273833  45.1636493   5.3671673  29.7153833  45.1536493
   4.8341673  28.7533833  44.3356493   4.9101673  29.0883833  45.0396493
   7.7871673  39.4603833  49.1886493   7.9591673  39.2503833  50.0176493
   7.1321673  38.9263833  48.9726493   7.7161673  39.3503833  49.2796493
  14.0151673  33.3743833  52.7036493  13.9201673  33.6933833  53.5096493
  13.4221673  32.7353833  52.6656493  13.9131673  33.3263833  52.8176493
   8.5371673  39.3983833  51.7786493   8.5901673  40.2453833  51.9806493
   8.2521673  39.0283833  52.5156493   8.5031673  39.4683833  51.9166493
  14.7141673  40.0933833  50.9086493  14.2001673  39.6813833  51.4796493
  14.5881673  40.9373833  51.0896493  14.6201673  40.1573833  51.0196493
  15.2711673  29.3183833  45.5396493  15.3201673  29.0003833  46.3506493
  15.5941673  28.6743833  45.0466493  15.3261673  29.1763833  45.5866493
  17.7351673  33.5543833  53.8476493  18.5071673  33.3293833  54.1846493
  17.2601673  33.7713833  54.5476493  17.7791673  33.5533833  54.0006493
   5.2791673  32.8373833  46.8176493   5.5511673  32.4073833  46.1096493
   5.1031673  32.2013833  47.3886493   5.2931673  32.6803833  46.7976493
  17.9671673  40.5323833  41.0356493  18.0861673  40.2453833  41.8506493
  18.7741673  40.5533833  40.7056493  18.1031673  40.4933833  41.1076493
   5.1031673  40.2643833  46.3666493   5.9541673  40.1843833  46.1936493
   4.7461673  39.5823833  45.9546493   5.1761673  40.1513833  46.2796493
   3.8701673  46.9893833  47.6036493   3.1971673  46.4913833  47.3586493
   4.2731673  47.1743833  46.8526493   3.8301673  46.9433833  47.4566493
   3.4201673  33.9393833  49.8996493   4.2631673  34.1593833  49.8566493
   3.0311673  34.5123833  49.3686493   3.4871673  34.0563833  49.8146493
  20.2011673  45.0413833  55.2896493  19.5191673  45.3513833  54.8426493
  19.8321673  44.5833833  55.9346493  20.0451673  45.0193833  55.3186493
  15.8621673  37.0693833  40.6206493  15.6421673  37.8003833  40.1986493
  15.4141673  37.1203833  41.3676493  15.7631673  37.1843833  40.6686493
   7.4711673  40.2713833  44.6016493   8.1841673  40.7663833  44.6916493
   7.6931673  39.7043833  43.9756493   7.6091673  40.2603833  44.5226493
  20.0491673  31.9303833  40.0736493  19.3871673  31.3623833  40.0966493
  19.8561673  32.4423833  39.3936493  19.9231673  31.9223833  39.9766493
   9.2741673  35.6243833  58.0176493   8.7901673  36.2013833  58.4596493
   9.2461673  35.9193833  57.1966493   9.1981673  35.7533833  57.9616493
  20.3721673  36.3083833  52.6296493  20.5871673  35.5083833  52.3536493
  19.5221673  36.3683833  52.4406493  20.2781673  36.1993833  52.5606493
  18.0511673  31.4883833  42.3526493  18.7971673  31.0813833  42.5516493
  18.3141673  32.2033833  41.9276493  18.2001673  31.5343833  42.3196493
  11.9941673  43.9743833  46.9286493  11.4711673  44.6083833  46.6356493
  12.3041673  43.6103833  46.1996493  11.9621673  44.0143833  46.7776493
   6.0691673  41.7623833  49.6886493   6.5361673  42.0513833  50.3666493
   6.6411673  41.2843833  49.2346493   6.2231673  41.7343833  49.7216493
  14.5051673  33.7763833  47.4256493  14.8491673  33.9283833  48.2126493
  14.0521673  33.0383833  47.5386493  14.4891673  33.6893833  47.5586493
   2.6351673  39.4323833  48.2326493   3.0661673  39.3033833  47.4856493
   2.4301673  40.2803833  48.2066493   2.6681673  39.5383833  48.1186493
   8.9811673  32.9963833  41.8826493   8.9791673  32.8793833  41.0176493
   8.8001673  33.8443833  41.9746493   8.9541673  33.1043833  41.7686493
  18.0351673  45.4233833  53.3796493  17.3641673  45.9373833  53.5976493
  18.0981673  45.5233833  52.5156493  17.9451673  45.5143833  53.2846493
   6.7191673  42.9483833  46.5146493   6.8451673  43.7913833  46.7016493
   7.3871673  42.5493833  46.9106493   6.8371673  43.0143833  46.6006493
   4.8491673  36.4313833  56.3766493   4.3131673  35.9253833  56.8446493
   4.8691673  36.0413833  55.5966493   4.7721673  36.2983833  56.3306493
   5.3341673  35.8283833  41.5166493   5.2061673  35.3803833  42.2546493
   4.7521673  35.4863833  40.9646493   5.2291673  35.7113833  41.5446493
   5.5011673  37.6583833  48.1156493   4.7201673  37.5993833  47.7326493
   5.5731673  36.9063833  48.5526493   5.3961673  37.5393833  48.1236493
   5.9311673  37.3953833  51.5836493   5.9561673  36.7203833  51.0326493
   5.2851673  37.8913833  51.2716493   5.8401673  37.3683833  51.4566493
  15.8261673  35.1083833  49.9796493  15.1641673  35.4363833  50.4426493
  16.0131673  35.7423833  49.4106493  15.7561673  35.2503833  49.9636493
  10.0311673  46.1723833  50.9756493   9.7541673  45.5313833  50.4526493
   9.8231673  46.8983833  50.5376493   9.9601673  46.1853833  50.8336493
  12.4711673  31.0143833  53.4086493  12.6201673  30.1893833  53.1656493
  12.8501673  31.0693833  54.1926493  12.5491673  30.9003833  53.4886493
  14.0191673  33.0773833  43.4906493  14.5091673  33.7943833  43.4136493
  13.2291673  33.3383833  43.2276493  13.9751673  33.2213833  43.4406493
   3.7301673  38.7503833  57.1426493   3.6931673  39.2513833  56.4286493
   4.0611673  37.9983833  56.8476493   3.7731673  38.7123833  56.9936493
  15.3331673  40.9553833  55.4006493  15.8171673  41.6733833  55.4986493
  15.7271673  40.5283833  54.7496493  15.4631673  40.9983833  55.3186493
   9.6291673  43.8003833  56.5776493   9.9831673  43.6223833  57.3546493
   9.1931673  43.0713833  56.3786493   9.6171673  43.6663833  56.6636493
  10.6011673  34.5473833  49.2156493  11.0811673  35.2463833  49.4236493
  10.9741673  33.9003833  49.6666493  10.7271673  34.5553833  49.3126493
  12.7901673  37.7163833  41.4896493  12.7821673  38.4383833  40.9996493
  12.1511673  37.8513833  42.0666493  12.6951673  37.8433833  41.5026493
  17.7621673  41.5863833  45.4706493  18.1181673  41.2363833  46.1856493
  17.7541673  40.9253833  44.9006493  17.8141673  41.4363833  45.4916493
  13.8071673  44.6523833  49.3146493  13.2041673  44.3563833  48.7576493
  14.3521673  45.1043833  48.8056493  13.7981673  44.6753833  49.1566493
  13.8201673  41.5033833  48.7146493  13.0231673  41.7273833  48.9886493
  14.0781673  40.9093833  49.2996493  13.7401673  41.4483833  48.8416493
   7.7121673  46.3153833  43.1626493   7.5651673  45.5393833  43.5336493
   8.4011673  46.1683833  42.6476493   7.7921673  46.1783833  43.1416493
   7.3831673  30.0583833  41.1506493   7.4801673  29.9513833  42.0116493
   6.6751673  30.5643833  41.0856493   7.2931673  30.1173833  41.2686493
  10.0041673  45.8313833  41.5646493  10.6261673  45.9943833  42.1546493
  10.0401673  46.5223833  41.0326493  10.1011673  45.9573833  41.5736493
  17.0801673  39.5013833  53.5606493  17.1351673  39.6263833  52.6986493
  17.8331673  39.8213833  53.8626493  17.1991673  39.5663833  53.4776493
  13.2711673  44.8503833  57.8376493  13.4351673  45.1333833  58.6466493
  13.5341673  45.5113833  57.3326493  13.3341673  44.9903833  57.8826493
  18.1121673  29.7993833  56.5476493  17.4751673  29.3993833  56.1056493
  18.1381673  29.3683833  57.3056493  18.0221673  29.6773833  56.5936493
   4.5051673  38.3653833  42.3936493   4.8291673  37.5863833  42.1716493
   5.1511673  38.7333833  42.8486493   4.6481673  38.3043833  42.4276493
  12.8111673  39.3073833  53.1606493  12.6561673  39.9173833  53.7646493
  13.3451673  38.7493833  53.5666493  12.8671673  39.3153833  53.3096493
  11.1951673  37.7073833  43.8186493  11.2541673  38.3573833  44.3976493
  11.0061673  37.0113833  44.3096493  11.1761673  37.7003833  43.9766493
  16.4211673  42.0363833  49.6876493  15.9421673  42.3343833  49.0216493
  16.0651673  41.2603833  49.8656493  16.2981673  41.9653833  49.6156493
   5.6911673  32.2243833  40.3306493   5.1801673  32.2773833  39.6246493
   6.4751673  32.4643833  40.0346493   5.7311673  32.2673833  40.1826493
  10.4181673  39.7543833  48.2496493   9.5711673  39.5603833  48.3306493
  10.7421673  39.5893833  49.0426493  10.3401673  39.7013833  48.3786493
   7.1701673  46.4843833  39.1356493   7.6091673  45.7873833  39.4236493
   7.3771673  47.1083833  39.7086493   7.2661673  46.4733833  39.2626493
   4.2661673  39.4473833  50.5656493   4.9881673  39.9353833  50.5286493
   3.9961673  39.4173833  49.7366493   4.3331673  39.5153833  50.4376493
   7.4961673  34.6183833  47.3006493   8.3421673  34.4283833  47.3986493
   7.1261673  33.8413833  47.1626493   7.5661673  34.4753833  47.2946493
  20.1131673  46.2023833  41.6276493  20.8071673  45.7353833  41.3796493
  19.5741673  45.6043833  41.9646493  20.1361673  46.0443833  41.6406493
   2.3171673  35.9563833  43.9556493   2.8061673  35.6643833  44.6166493
   2.4461673  35.3633833  43.3286493   2.4081673  35.8253833  43.9606493
  17.3521673  38.9783833  50.8066493  17.3451673  38.2023833  51.2046493
  16.5111673  39.2123833  50.7996493  17.2271673  38.8983833  50.8646493
   6.8421673  37.3903833  39.4416493   6.2321673  36.9853833  39.9156493
   6.4561673  37.5083833  38.6686493   6.6951673  37.3473833  39.3976493
   3.6611673  40.4993833  54.8436493   3.2401673  39.9813833  54.2826493
   3.3091673  41.2853833  54.7006493   3.5471673  40.5393833  54.7396493
  18.6081673  39.0493833  48.2436493  18.3221673  39.4503833  48.9636493
  19.4681673  38.9873833  48.3706493  18.6931673  39.0993833  48.3686493
   8.2971673  35.8513833  42.1516493   8.5691673  36.6773833  42.2186493
   7.4341673  35.9263833  42.0556493   8.2101673  35.9843833  42.1466493
  16.2701673  32.9733833  56.7836493  15.7451673  33.4323833  57.3076493
  15.9091673  32.1783833  56.7776493  16.1391673  32.9233833  56.8596493
   1.7771673  31.8213833  48.6876493   1.8211673  32.1653833  47.8866493
   2.5321673  32.0583833  49.0546493   1.8951673  31.9073833  48.6236493
  19.7391673  44.6823833  48.7726493  20.0291673  44.9393833  47.9916493
  20.4341673  44.7783833  49.2916493  19.8851673  44.7343833  48.7336493
  14.7621673  36.5423833  56.8596493  14.8351673  36.6463833  57.7226493
  14.1281673  37.1003833  56.6386493  14.6791673  36.6403833  56.9546493
  17.0301673  36.8613833  55.2246493  17.3491673  37.6473833  55.4276493
  16.6601673  36.5913833  55.9676493  17.0231673  36.9373833  55.3646493
  16.3441673  43.2853833  40.7546493  16.6781673  42.4793833  40.7896493
  15.5891673  43.2133833  41.1846493  16.2821673  43.1553833  40.8236493
  16.8261673  35.1193833  46.4136493  16.0811673  34.7963833  46.7316493
  16.8281673  35.9453833  46.6936493  16.7161673  35.1933833  46.5016493
  19.7281673  37.4033833  57.9596493  19.6761673  37.0623833  57.1586493
  20.4651673  37.8703833  57.9376493  19.8291673  37.4223833  57.8376493
  19.2661673  41.0793833  54.1656493  19.8941673  40.5303833  53.9096493
  19.2051673  41.6443833  53.5036493  19.3501673  41.0823833  54.0296493
  13.7181673  41.1603833  40.1576493  14.4021673  40.6463833  39.9886493
  13.3011673  41.2063833  39.3926493  13.7571673  41.0913833  40.0196493
   8.4001673  42.3103833  51.4616493   8.1021673  42.9023833  52.0286493
   8.4551673  42.7523833  50.7126493   8.3641673  42.4633833  51.4346493
   6.3791673  41.2603833  54.8596493   5.5731673  40.9703833  55.0266493
   6.2901673  42.1283833  54.8656493   6.2471673  41.3453833  54.8846493
  15.7381673  31.4493833  53.8746493  16.4821673  31.9013833  53.8116493
  15.1721673  31.9193833  53.4056493  15.7651673  31.5863833  53.7966493
  10.9161673  38.7333833  50.9526493  11.3921673  39.1073833  51.5806493
  10.0931673  38.8673833  51.2116493  10.8651673  38.8083833  51.0836493
   7.6261673  34.3363833  53.6936493   7.7871673  33.5923833  54.1206493
   7.5811673  34.0873833  52.8586493   7.6431673  34.1893833  53.6336493
  10.1801673  46.1263833  46.1806493  10.7261673  46.8053833  46.2346493
   9.8301673  46.2083833  45.3856493  10.2091673  46.2393833  46.0706493
  17.0231673  29.4293833  51.5446493  16.7431673  30.2543833  51.5006493
  17.7391673  29.4823833  52.0406493  17.0881673  29.5593833  51.6116493
   9.3781673  30.1443833  53.5736493  10.0831673  30.4643833  53.1716493
   9.6191673  29.3373833  53.8006493   9.5171673  30.0723833  53.5476493
   8.3631673  44.3543833  49.5696493   7.7391673  44.9363833  49.3876493
   8.6111673  44.0683833  48.7836493   8.3071673  44.3983833  49.4266493
  12.6721673  40.9883833  56.5586493  13.4291673  41.2743833  56.2326493
  12.1251673  41.0403833  55.8806493  12.7031673  41.0383833  56.4096493
  16.5811673  43.5383833  55.0626493  16.9271673  43.8083833  55.8166493
  16.8751673  44.1203833  54.4826493  16.6761673  43.6643833  55.0886493
   9.9571673  39.1303833  39.4846493   9.1521673  38.9533833  39.1996493
   9.9241673  39.9813833  39.6766493   9.8331673  39.2293833  39.4716493
   5.8871673  35.1973833  49.6346493   6.3271673  35.0943833  48.8886493
   6.4321673  34.8843833  50.2396493   6.0321673  35.1363833  49.6136493
  13.9031673  34.2993833  55.2266493  13.2551673  34.7693833  55.5746493
  14.4681673  34.2103833  55.8856493  13.8911673  34.3553833  55.3756493
  13.5911673  35.8363833  51.5246493  13.8931673  36.2563833  52.2276493
  13.6271673  34.9963833  51.7566493  13.6411673  35.7743833  51.6626493
  11.0161673  46.0033833  55.4496493  11.4941673  45.4033833  55.0336493
  10.6651673  45.5603833  56.1146493  11.0351673  45.8493833  55.4866493
  16.1391673  35.2833833  43.7766493  16.3461673  35.0823833  44.6006493
  16.8951673  35.5513833  43.4346493  16.2811673  35.2933833  43.8476493
   9.4341673  30.1823833  49.6816493   8.6081673  30.0333833  49.9186493
   9.3941673  30.2173833  48.8106493   9.3061673  30.1653833  49.5876493
  17.1611673  31.3663833  45.2506493  16.4471673  30.8953833  45.4216493
  16.9991673  31.7073833  44.4646493  17.0321673  31.3473833  45.1596493
  17.6041673  39.3103833  43.6306493  18.0801673  38.5813833  43.5826493
  16.7831673  39.0243833  43.5546493  17.5531673  39.1603833  43.6116493
  11.0751673  41.2223833  54.4696493  10.2801673  41.1583833  54.8206493
  11.1461673  42.0693833  54.2746493  10.9681673  41.3373833  54.4926493
   6.9051673  47.4293833  49.7866493   6.9161673  47.4883833  50.6566493
   6.4801673  46.6823833  49.6366493   6.8441673  47.3273833  49.8926493
   5.0631673  33.3243833  42.9416493   5.1891673  32.9953833  42.1436493
   4.2511673  33.0753833  43.1406493   4.9621673  33.2393833  42.8536493
  13.8201673  40.4773833  45.9856493  13.8961673  40.8183833  46.7846493
  13.9891673  39.6303833  46.1066493  13.8561673  40.4023833  46.1216493
  11.3421673  39.7513833  45.5506493  11.0441673  39.4363833  46.3076493
  12.0371673  40.2243833  45.7856493  11.4011673  39.7743833  45.6976493
  11.5641673  43.8693833  53.5776493  12.2511673  43.7553833  54.1026493
  11.6981673  44.6603833  53.2336493  11.6851673  43.9693833  53.6046493
  19.7401673  36.4783833  55.3886493  18.8851673  36.3563833  55.5146493
  19.8931673  36.0833833  54.6256493  19.6361673  36.4013833  55.2946493
  14.2531673  37.1433833  53.9646493  13.9981673  36.4243833  54.3866493
  15.0741673  37.2593833  54.2346493  14.3371673  37.0543833  54.0666493
   3.6691673  46.9273833  55.2286493   3.0151673  46.3583833  55.3266493
   3.2941673  47.7003833  55.3796493   3.5171673  46.9573833  55.2656493
  12.1871673  38.3333833  57.1516493  12.5101673  39.0193833  56.7196493
  11.4831673  38.6563833  57.5536493  12.1301673  38.4823833  57.1466493
  15.2711673  46.7073833  48.0806493  14.8201673  47.3503833  48.4596493
  15.9791673  46.6283833  48.5856493  15.3091673  46.7903833  48.2116493
  11.9721673  41.7973833  51.0106493  11.2781673  42.1993833  51.3536493
  12.6491673  42.2303833  51.3496493  11.9691673  41.9203833  51.1116493
  17.3491673  44.3903833  57.5906493  18.1251673  44.0003833  57.6736493
  16.8801673  44.0543833  58.2456493  17.3941673  44.2833833  57.6996493
   5.0401673  35.3353833  53.3576493   5.4151673  35.9543833  52.8706493
   5.7141673  34.8613833  53.6426493   5.1951673  35.3573833  53.3276493
   2.8151673  33.7833833  52.6326493   2.8921673  33.6143833  51.7796493
   3.5611673  34.1893833  52.8296493   2.9361673  33.8183833  52.5356493
  18.3741673  36.4233833  43.0726493  18.4771673  36.3653833  42.2086493
  19.1151673  36.0913833  43.3906493  18.4991673  36.3663833  42.9916493
   5.3691673  31.1933833  55.0436493   5.2881673  30.3493833  55.2496493
   5.0551673  31.2373833  54.2306493   5.3111673  31.0753833  54.9536493
  12.2941673  43.3883833  44.1796493  12.0891673  44.2213833  44.0206493
  11.5191673  43.0063833  44.3016493  12.1491673  43.4553833  44.1746493
  17.4761673  36.5693833  52.4286493  17.4741673  35.7063833  52.5526493
  17.5431673  36.8933833  53.2356493  17.4861673  36.4893833  52.5656493
   2.2121673  39.0093833  52.8566493   2.5321673  39.2283833  52.0756493
   2.1121673  38.1443833  52.8016493   2.2441673  38.9143833  52.7336493
   3.6681673  34.9453833  39.4746493   2.9961673  34.9593833  40.0306493
   3.7631673  34.0973833  39.2906493   3.5831673  34.8223833  39.5296493
  13.3551673  31.3693833  56.2106493  13.4471673  32.0813833  56.7046493
  12.7181673  30.9243833  56.6076493  13.2741673  31.4083833  56.3426493
  12.3491673  31.5593833  47.0646493  11.6491673  32.0773833  47.0086493
  12.3871673  31.1793833  46.2806493  12.2511673  31.5803833  46.9406493
   7.6561673  43.6503833  40.5886493   8.0971673  43.7303833  41.3366493
   6.8511673  43.4343833  40.8466493   7.6021673  43.6303833  40.7376493
  15.9471673  32.0753833  49.8646493  16.8021673  32.1743833  50.0096493
  15.5781673  32.6283833  50.4296493  16.0191673  32.1723833  49.9696493
   6.9751673  38.3013833  54.2416493   6.5791673  39.0753833  54.3166493
   6.5691673  37.9283833  53.5656493   6.8571673  38.3603833  54.1526493
  16.5641673  45.4213833  44.1626493  16.3901673  44.7673833  44.7126493
  17.2771673  45.1503833  43.7396493  16.6441673  45.2843833  44.1816493
   4.9851673  42.7203833  41.1896493   4.7411673  42.4133833  41.9696493
   4.9521673  42.0173833  40.6736493   4.9441673  42.5713833  41.2286493
   7.8041673  40.9653833  39.9326493   6.9861673  40.6973833  40.0726493
   7.7761673  41.8173833  40.1176493   7.6791673  41.0523833  39.9806493
   7.4041673  31.2783833  51.6916493   6.5401673  31.3623833  51.7716493
   7.6241673  30.7643833  52.3606493   7.3091673  31.2153833  51.8026493
  19.4221673  29.9133833  53.0206493  19.3701673  29.8693833  53.8906493
  20.1091673  29.4103833  52.8306493  19.5161673  29.8333833  53.1206493
  11.5071673  32.0263833  50.0656493  10.7701673  31.5723833  50.1786493
  12.0781673  31.6243833  50.5886493  11.4821673  31.8993833  50.1596493
  14.2391673  42.8743833  51.8536493  14.4451673  43.1753833  52.6456493
  14.1781673  43.5963833  51.3686493  14.2601673  43.0253833  51.8986493
  13.7731673  47.0883833  56.0996493  13.0201673  47.0703833  55.6586493
  13.9411673  47.9403833  56.1836493  13.6871673  47.2113833  56.0466493
   9.0101673  36.3553833  55.2696493   8.6881673  35.7793833  54.6996493
   8.6511673  37.1103833  55.0236493   8.9101673  36.3813833  55.1496493
   9.8061673  29.6073833  39.8966493   9.8841673  29.8543833  39.0636493
   9.0631673  29.9843833  40.1546493   9.7081673  29.6993833  39.8116493
  19.0511673  41.5133833  51.3116493  19.0191673  40.6513833  51.1766493
  18.3581673  41.8153833  50.8776493  18.9441673  41.4303833  51.2276493
   7.4451673  46.7113833  55.5176493   7.4861673  46.8373833  56.3806493
   8.0961673  46.1513833  55.3616493   7.5471673  46.6473833  55.6226493
  17.1561673  44.7733833  50.1086493  17.6831673  44.6903833  49.4176493
  16.7651673  43.9953833  50.1626493  17.1761673  44.6463833  50.0146493
   4.6241673  31.3613833  52.3396493   4.2811673  30.5943833  52.1056493
   3.9291673  31.8853833  52.4036493   4.4711673  31.3253833  52.3146493
  13.6701673  30.2173833  49.3166493  14.3401673  30.7613833  49.4436493
  13.1671673  30.6413833  48.7436493  13.6951673  30.3603833  49.2506493
   5.0381673  45.0943833  56.8776493   5.6331673  45.5253833  57.3496493
   4.6741673  45.7183833  56.3886493   5.0721673  45.2503833  56.8746493
  13.0291673  36.0253833  46.8096493  13.5801673  35.4183833  47.1096493
  12.6041673  36.2883833  47.5246493  13.0481673  35.9743833  46.9586493
   3.2771673  34.6753833  46.2956493   2.9091673  34.9773833  47.0266493
   3.8111673  34.0463833  46.5796493   3.3011673  34.6273833  46.4456493
   2.9651673  43.0833833  53.8066493   2.3911673  43.4993833  54.3156493
   3.6981673  43.5483833  53.9016493   2.9891673  43.2133833  53.8956493
  14.9991673  37.8563833  43.3716493  15.0671673  37.0063833  43.5526493
  14.1761673  37.9423833  43.0936493  14.8871673  37.7433833  43.3576493
   4.7511673  46.3503833  42.5816493   4.6061673  46.5063833  41.7356493
   5.6171673  46.4293833  42.6596493   4.8581673  46.3853833  42.4686493
   8.9181673  38.7473833  42.3096493   9.0181673  38.8863833  41.4546493
   9.7361673  38.6873833  42.6056493   9.0531673  38.7583833  42.2266493
  18.0781673  46.8113833  39.7896493  18.7151673  46.6773833  40.3706493
  17.7371673  46.0173833  39.6726493  18.1221673  46.6743833  39.8576493
  18.2731673  39.2293833  56.5226493  18.9071673  39.0593833  57.0966493
  18.6901673  39.6323833  55.8706493  18.4281673  39.2643833  56.5116493
  14.1531673  43.0763833  42.1116493  13.9021673  42.9483833  42.9376493
  13.8361673  42.3813833  41.6906493  14.0691673  42.9553833  42.1716493
  18.8981673  33.7933833  57.2606493  18.7021673  34.4373833  57.8156493
  18.1761673  33.3033833  57.2526493  18.7631673  33.8163833  57.3416493
  18.7971673  34.7343833  50.2316493  17.9641673  34.9843833  50.1596493
  18.7411673  33.8943833  50.4606493  18.6661673  34.6473833  50.2546493
   8.0571673  31.7223833  55.4256493   8.2911673  31.1463833  54.8126493
   7.2151673  31.5413833  55.5666493   7.9671673  31.6103833  55.3556493
  15.6841673  39.3403833  57.8776493  16.5551673  39.3043833  57.8416493
  15.4651673  39.7603833  57.1456493  15.7811673  39.3963833  57.7646493
   5.4381673  45.1653833  49.0586493   5.3591673  44.3553833  48.7426493
   4.9941673  45.6523833  48.4866493   5.3611673  45.1173833  48.9276493
  11.0391673  41.2843833  41.5416493  11.7561673  40.9373833  41.1856493
  11.0051673  42.0843833  41.1936493  11.1401673  41.3513833  41.4376493
   3.0101673  47.4093833  52.6396493   3.5031673  47.3533833  53.3576493
   3.1981673  46.6763833  52.2046493   3.1111673  47.2923833  52.6816493
  12.4481673  29.9253833  25.7804083  12.2031673  30.4133833  25.1004083
  13.3111673  29.8523833  25.6804083  12.5391673  29.9863833  25.6654083
  12.2571673  36.8413833  30.4514083  11.7331673  37.4373833  30.8144083
  12.6541673  36.4733833  31.1354083  12.2381673  36.8753833  30.6064083
  18.4011673  44.2823833  23.4224083  19.1021673  43.7633833  23.4184083
  17.8141673  43.8373833  22.9534083  18.4181673  44.1393833  23.3524083
   5.0081673  40.0363833  21.0864083   4.6161673  39.6653833  20.4004083
   4.9281673  39.4383833  21.7154083   4.9381673  39.8933833  21.0774083
  14.9281673  37.9083833  27.1274083  15.0081673  37.9123833  26.2584083
  14.3441673  37.2763833  27.2764083  14.8531673  37.8153833  27.0214083
   4.6351673  41.6773833  24.9864083   5.2431673  41.5073833  25.5894083
   3.8841673  41.5373833  25.4074083   4.6141673  41.6313833  25.1374083
   8.9171673  31.0123833  24.9354083   8.8471673  31.6893833  24.3894083
   9.6581673  30.6243833  24.6864083   9.0161673  31.0553833  24.8174083
   3.5261673  44.7683833  21.0634083   3.9931673  44.8523833  20.3314083
   3.9811673  44.1903833  21.5324083   3.6621673  44.6953833  21.0244083
   8.6401673  41.2413833  37.2294083   8.4041673  41.2383833  38.0694083
   7.8921673  41.0933833  36.8054083   8.4941673  41.2183833  37.2904083
   3.5121673  38.2373833  26.3644083   3.0501673  37.8453833  25.7374083
   4.2121673  37.7243833  26.4564083   3.5471673  38.1043833  26.2854083
   8.0201673  33.8473833  31.7114083   8.6981673  33.8653833  31.1624083
   7.9751673  33.0113833  31.9564083   8.1131673  33.7263833  31.6664083
   8.6221673  44.4333833  34.4924083   8.7601673  45.1933833  34.0854083
   9.4131673  44.0683833  34.5194083   8.7591673  44.4923833  34.4364083
   5.5131673  36.3373833  26.3874083   6.3301673  36.1503833  26.6304083
   5.0361673  35.7233833  26.7834083   5.5631673  36.2193833  26.4824083
   9.7171673  42.3183833  28.9974083  10.0651673  41.5193833  29.0274083
  10.3821673  42.8223833  28.7424083   9.8671673  42.2743833  28.9644083
   9.7741673  41.7673833  25.2084083  10.1051673  41.1233833  25.6944083
  10.0141673  41.5563833  24.3974083   9.8581673  41.6413833  25.1604083
  11.7421673  35.8983833  36.5474083  10.8941673  35.7993833  36.3694083
  11.7711673  36.6433833  37.0014083  11.6211673  35.9943833  36.5884083
   6.1101673  31.4313833  25.6534083   5.8141673  31.9323833  25.0034083
   6.9771673  31.5093833  25.5964083   6.1941673  31.5173833  25.5494083
  16.3001673  28.8583833  35.6614083  16.1421673  29.6273833  35.2794083
  15.5281673  28.6383833  36.0054083  16.1621673  28.9393833  35.6564083
   9.0891673  30.5733833  27.8764083   9.1621673  31.4333833  28.0054083
   9.0511673  30.4983833  27.0084083   9.0941673  30.6893833  27.7674083
  13.7621673  33.4993833  20.1754083  13.3121673  34.1803833  20.4824083
  13.8761673  32.9953833  20.8784083  13.7131673  33.5253833  20.3244083
   7.7181673  43.5523833  24.7574083   7.1391673  43.2773833  25.3494083
   8.3421673  42.9433833  24.7824083   7.7251673  43.4223833  24.8484083
  13.8611673  45.8403833  22.2794083  14.5881673  46.3123833  22.3814083
  14.0901673  45.0463833  22.5594083  14.0031673  45.7933833  22.3364083
  12.0291673  46.2323833  24.2694083  12.2431673  46.7593833  24.9314083
  12.7961673  46.0583833  23.8904083  12.1741673  46.2843833  24.3114083
   4.9971673  30.8153833  29.8684083   4.4761673  30.1873833  29.5604083
   5.5881673  30.3783833  30.3394083   5.0081673  30.6573833  29.8924083
   8.3031673  32.9483833  39.1664083   8.4201673  32.4943833  38.4304083
   8.5911673  33.7463833  38.9634083   8.3631673  32.9993833  39.0274083
   3.4231673  44.3783833  25.2084083   4.0791673  43.8033833  25.2234083
   3.8121673  45.1273833  24.9874083   3.5781673  44.4033833  25.1784083
  19.1561673  33.4723833  26.4704083  18.8101673  34.1503833  26.8964083
  18.5201673  32.8743833  26.4864083  19.0111673  33.4843833  26.5354083
  14.4681673  46.2423833  32.5744083  15.2121673  46.6983833  32.5644083
  14.3471673  46.0283833  31.7374083  14.5601673  46.2783833  32.4494083
   4.0361673  32.5453833  38.1504083   3.2581673  32.1553833  38.0784083
   4.5271673  32.1333833  37.5594083   3.9931673  32.4263833  38.0524083
   4.2411673  42.8653833  28.7084083   4.6641673  42.5093833  28.0344083
   4.5651673  42.4433833  29.4004083   4.3511673  42.7503833  28.7114083
   7.4721673  45.7173833  28.0044083   8.3161673  45.8213833  27.8094083
   7.1751673  46.5353833  28.0724083   7.5531673  45.8533833  27.9854083
  10.6851673  30.1883833  37.3184083  10.8631673  29.3793833  37.0434083
  10.5421673  30.6293833  36.5794083  10.6901673  30.1343833  37.1684083
  11.2791673  35.1143833  26.0914083  11.5661673  34.8823833  25.3014083
  12.0111673  35.1933833  26.5604083  11.4291673  35.0913833  26.0444083
  12.0011673  35.4533833  21.2124083  12.2821673  36.2413833  21.4614083
  11.2251673  35.6183833  20.8494083  11.9281673  35.5943833  21.1954083
  16.0421673  47.4273833  22.6794083  16.7071673  47.2793833  22.1344083
  16.4021673  47.3443833  23.4694083  16.1941673  47.3933833  22.7154083
   6.4701673  46.9363833  33.7444083   6.7621673  46.8693833  34.5644083
   5.8441673  46.3313833  33.6994083   6.4211673  46.8373833  33.8594083
  18.8311673  31.7953833  31.8394083  19.5881673  31.8673833  31.4114083
  18.8941673  31.0223833  32.2384083  18.9521673  31.6923833  31.8344083
  13.7221673  43.4273833  36.2784083  13.6881673  43.8093833  37.0624083
  14.5761673  43.3853833  36.1074083  13.8431673  43.4773833  36.3694083
  10.8601673  43.6243833  21.0284083  10.6791673  44.1693833  21.6854083
  11.6261673  43.9143833  20.7274083  10.9461673  43.7483833  21.0814083
  14.3671673  31.5203833  22.0824083  14.9071673  30.8383833  22.1584083
  14.4291673  31.9183833  22.8564083  14.4561673  31.4783833  22.2084083
   2.3211673  32.6883833  24.6514083   2.2071673  31.8243833  24.6824083
   1.8461673  32.9823833  25.3214083   2.2341673  32.6043833  24.7544083
   4.4631673  45.0983833  32.8664083   3.7651673  44.5903833  32.9924083
   4.7231673  44.8933833  32.0584083   4.3981673  44.9933833  32.7654083
  11.6251673  33.8963833  23.3964083  11.1171673  33.2343833  23.1424083
  11.6771673  34.4003833  22.6864083  11.5581673  33.8733833  23.2544083
  12.1741673  46.5913833  33.7764083  12.9421673  46.5113833  33.3704083
  11.5911673  46.4703833  33.1384083  12.2011673  46.5613833  33.6224083
  11.6251673  30.8373833  23.2874083  11.1701673  30.4353833  22.6614083
  12.3981673  30.9923833  22.9124083  11.6721673  30.8013833  23.1394083
  18.4511673  47.1943833  26.6774083  17.9961673  47.9113833  26.8784083
  17.8371673  46.6233833  26.4354083  18.2931673  47.2163833  26.6714083
  10.2231673  33.2043833  27.8094083  10.2971673  33.7723833  27.1514083
  10.3441673  33.6963833  28.5194083  10.2511673  33.3613833  27.8174083
  15.4481673  43.0393833  26.2214083  16.1491673  42.5573833  26.4104083
  14.7881673  42.4703833  26.2664083  15.4541673  42.8843833  26.2554083
   5.8241673  43.9493833  35.4334083   6.6651673  44.0123833  35.2114083
   5.7871673  44.3463833  36.2094083   5.9431673  44.0173833  35.5154083
   4.8311673  29.0273833  26.1574083   5.3671673  29.7153833  26.1474083
   4.8341673  28.7533833  25.3294083   4.9101673  29.0883833  26.0334083
   7.7871673  39.4603833  30.1824083   7.9591673  39.2503833  31.0114083
   7.1321673  38.9263833  29.9664083   7.7161673  39.3503833  30.2734083
  14.0151673  33.3743833  33.6974083  13.9201673  33.6933833  34.5034083
  13.4221673  32.7353833  33.6594083  13.9131673  33.3263833  33.8114083
   8.5371673  39.3983833  32.7724083   8.5901673  40.2453833  32.9744083
   8.2521673  39.0283833  33.5094083   8.5031673  39.4683833  32.9104083
  14.7141673  40.0933833  31.9024083  14.2001673  39.6813833  32.4734083
  14.5881673  40.9373833  32.0834083  14.6201673  40.1573833  32.0134083
  15.2711673  29.3183833  26.5334083  15.3201673  29.0003833  27.3444083
  15.5941673  28.6743833  26.0404083  15.3261673  29.1763833  26.5804083
  17.7351673  33.5543833  34.8414083  18.5071673  33.3293833  35.1784083
  17.2601673  33.7713833  35.5414083  17.7791673  33.5533833  34.9944083
   5.2791673  32.8373833  27.8114083   5.5511673  32.4073833  27.1034083
   5.1031673  32.2013833  28.3824083   5.2931673  32.6803833  27.7914083
  17.9671673  40.5323833  22.0294083  18.0861673  40.2453833  22.8444083
  18.7741673  40.5533833  21.6994083  18.1031673  40.4933833  22.1014083
   5.1031673  40.2643833  27.3604083   5.9541673  40.1843833  27.1874083
   4.7461673  39.5823833  26.9484083   5.1761673  40.1513833  27.2734083
   3.8701673  46.9893833  28.5974083   3.1971673  46.4913833  28.3524083
   4.2731673  47.1743833  27.8464083   3.8301673  46.9433833  28.4504083
   3.4201673  33.9393833  30.8934083   4.2631673  34.1593833  30.8504083
   3.0311673  34.5123833  30.3624083   3.4871673  34.0563833  30.8084083
  20.2011673  45.0413833  36.2834083  19.5191673  45.3513833  35.8364083
  19.8321673  44.5833833  36.9284083  20.0451673  45.0193833  36.3124083
  15.8621673  37.0693833  21.6144083  15.6421673  37.8003833  21.1924083
  15.4141673  37.1203833  22.3614083  15.7631673  37.1843833  21.6624083
   7.4711673  40.2713833  25.5954083   8.1841673  40.7663833  25.6854083
   7.6931673  39.7043833  24.9694083   7.6091673  40.2603833  25.5164083
  20.0491673  31.9303833  21.0674083  19.3871673  31.3623833  21.0904083
  19.8561673  32.4423833  20.3874083  19.9231673  31.9223833  20.9704083
   9.2741673  35.6243833  39.0114083   8.7901673  36.2013833  39.4534083
   9.2461673  35.9193833  38.1904083   9.1981673  35.7533833  38.9554083
  20.3721673  36.3083833  33.6234083  20.5871673  35.5083833  33.3474083
  19.5221673  36.3683833  33.4344083  20.2781673  36.1993833  33.5544083
  18.0511673  31.4883833  23.3464083  18.7971673  31.0813833  23.5454083
  18.3141673  32.2033833  22.9214083  18.2001673  31.5343833  23.3134083
  11.9941673  43.9743833  27.9224083  11.4711673  44.6083833  27.6294083
  12.3041673  43.6103833  27.1934083  11.9621673  44.0143833  27.7714083
   6.0691673  41.7623833  30.6824083   6.5361673  42.0513833  31.3604083
   6.6411673  41.2843833  30.2284083   6.2231673  41.7343833  30.7154083
  14.5051673  33.7763833  28.4194083  14.8491673  33.9283833  29.2064083
  14.0521673  33.0383833  28.5324083  14.4891673  33.6893833  28.5524083
   2.6351673  39.4323833  29.2264083   3.0661673  39.3033833  28.4794083
   2.4301673  40.2803833  29.2004083   2.6681673  39.5383833  29.1124083
   8.9811673  32.9963833  22.8764083   8.9791673  32.8793833  22.0114083
   8.8001673  33.8443833  22.9684083   8.9541673  33.1043833  22.7624083
  18.0351673  45.4233833  34.3734083  17.3641673  45.9373833  34.5914083
  18.0981673  45.5233833  33.5094083  17.9451673  45.5143833  34.2784083
   6.7191673  42.9483833  27.5084083   6.8451673  43.7913833  27.6954083
   7.3871673  42.5493833  27.9044083   6.8371673  43.0143833  27.5944083
   4.8491673  36.4313833  37.3704083   4.3131673  35.9253833  37.8384083
   4.8691673  36.0413833  36.5904083   4.7721673  36.2983833  37.3244083
   5.3341673  35.8283833  22.5104083   5.2061673  35.3803833  23.2484083
   4.7521673  35.4863833  21.9584083   5.2291673  35.7113833  22.5384083
   5.5011673  37.6583833  29.1094083   4.7201673  37.5993833  28.7264083
   5.5731673  36.9063833  29.5464083   5.3961673  37.5393833  29.1174083
   5.9311673  37.3953833  32.5774083   5.9561673  36.7203833  32.0264083
   5.2851673  37.8913833  32.2654083   5.8401673  37.3683833  32.4504083
  15.8261673  35.1083833  30.9734083  15.1641673  35.4363833  31.4364083
  16.0131673  35.7423833  30.4044083  15.7561673  35.2503833  30.9574083
  10.0311673  46.1723833  31.9694083   9.7541673  45.5313833  31.4464083
   9.8231673  46.8983833  31.5314083   9.9601673  46.1853833  31.8274083
  12.4711673  31.0143833  34.4024083  12.6201673  30.1893833  34.1594083
  12.8501673  31.0693833  35.1864083  12.5491673  30.9003833  34.4824083
  14.0191673  33.0773833  24.4844083  14.5091673  33.7943833  24.4074083
  13.2291673  33.3383833  24.2214083  13.9751673  33.2213833  24.4344083
   3.7301673  38.7503833  38.1364083   3.6931673  39.2513833  37.4224083
   4.0611673  37.9983833  37.8414083   3.7731673  38.7123833  37.9874083
  15.3331673  40.9553833  36.3944083  15.8171673  41.6733833  36.4924083
  15.7271673  40.5283833  35.7434083  15.4631673  40.9983833  36.3124083
   9.6291673  43.8003833  37.5714083   9.9831673  43.6223833  38.3484083
   9.1931673  43.0713833  37.3724083   9.6171673  43.6663833  37.6574083
  10.6011673  34.5473833  30.2094083  11.0811673  35.2463833  30.4174083
  10.9741673  33.9003833  30.6604083  10.7271673  34.5553833  30.3064083
  12.7901673  37.7163833  22.4834083  12.7821673  38.4383833  21.9934083
  12.1511673  37.8513833  23.0604083  12.6951673  37.8433833  22.4964083
  17.7621673  41.5863833  26.4644083  18.1181673  41.2363833  27.1794083
  17.7541673  40.9253833  25.8944083  17.8141673  41.4363833  26.4854083
  13.8071673  44.6523833  30.3084083  13.2041673  44.3563833  29.7514083
  14.3521673  45.1043833  29.7994083  13.7981673  44.6753833  30.1504083
  13.8201673  41.5033833  29.7084083  13.0231673  41.7273833  29.9824083
  14.0781673  40.9093833  30.2934083  13.7401673  41.4483833  29.8354083
   7.7121673  46.3153833  24.1564083   7.5651673  45.5393833  24.5274083
   8.4011673  46.1683833  23.6414083   7.7921673  46.1783833  24.1354083
   7.3831673  30.0583833  22.1444083   7.4801673  29.9513833  23.0054083
   6.6751673  30.5643833  22.0794083   7.2931673  30.1173833  22.2624083
  10.0041673  45.8313833  22.5584083  10.6261673  45.9943833  23.1484083
  10.0401673  46.5223833  22.0264083  10.1011673  45.9573833  22.5674083
  17.0801673  39.5013833  34.5544083  17.1351673  39.6263833  33.6924083
  17.8331673  39.8213833  34.8564083  17.1991673  39.5663833  34.4714083
  13.2711673  44.8503833  38.8314083  13.4351673  45.1333833  39.6404083
  13.5341673  45.5113833  38.3264083  13.3341673  44.9903833  38.8764083
  18.1121673  29.7993833  37.5414083  17.4751673  29.3993833  37.0994083
  18.1381673  29.3683833  38.2994083  18.0221673  29.6773833  37.5874083
   4.5051673  38.3653833  23.3874083   4.8291673  37.5863833  23.1654083
   5.1511673  38.7333833  23.8424083   4.6481673  38.3043833  23.4214083
  12.8111673  39.3073833  34.1544083  12.6561673  39.9173833  34.7584083
  13.3451673  38.7493833  34.5604083  12.8671673  39.3153833  34.3034083
  11.1951673  37.7073833  24.8124083  11.2541673  38.3573833  25.3914083
  11.0061673  37.0113833  25.3034083  11.1761673  37.7003833  24.9704083
  16.4211673  42.0363833  30.6814083  15.9421673  42.3343833  30.0154083
  16.0651673  41.2603833  30.8594083  16.2981673  41.9653833  30.6094083
   5.6911673  32.2243833  21.3244083   5.1801673  32.2773833  20.6184083
   6.4751673  32.4643833  21.0284083   5.7311673  32.2673833  21.1764083
  10.4181673  39.7543833  29.2434083   9.5711673  39.5603833  29.3244083
  10.7421673  39.5893833  30.0364083  10.3401673  39.7013833  29.3724083
   7.1701673  46.4843833  20.1294083   7.6091673  45.7873833  20.4174083
   7.3771673  47.1083833  20.7024083   7.2661673  46.4733833  20.2564083
   4.2661673  39.4473833  31.5594083   4.9881673  39.9353833  31.5224083
   3.9961673  39.4173833  30.7304083   4.3331673  39.5153833  31.4314083
   7.4961673  34.6183833  28.2944083   8.3421673  34.4283833  28.3924083
   7.1261673  33.8413833  28.1564083   7.5661673  34.4753833  28.2884083
  20.1131673  46.2023833  22.6214083  20.8071673  45.7353833  22.3734083
  19.5741673  45.6043833  22.9584083  20.1361673  46.0443833  22.6344083
   2.3171673  35.9563833  24.9494083   2.8061673  35.6643833  25.6104083
   2.4461673  35.3633833  24.3224083   2.4081673  35.8253833  24.9544083
  17.3521673  38.9783833  31.8004083  17.3451673  38.2023833  32.1984083
  16.5111673  39.2123833  31.7934083  17.2271673  38.8983833  31.8584083
   6.8421673  37.3903833  20.4354083   6.2321673  36.9853833  20.9094083
   6.4561673  37.5083833  19.6624083   6.6951673  37.3473833  20.3914083
   3.6611673  40.4993833  35.8374083   3.2401673  39.9813833  35.2764083
   3.3091673  41.2853833  35.6944083   3.5471673  40.5393833  35.7334083
  18.6081673  39.0493833  29.2374083  18.3221673  39.4503833  29.9574083
  19.4681673  38.9873833  29.3644083  18.6931673  39.0993833  29.3624083
   8.2971673  35.8513833  23.1454083   8.5691673  36.6773833  23.2124083
   7.4341673  35.9263833  23.0494083   8.2101673  35.9843833  23.1404083
  16.2701673  32.9733833  37.7774083  15.7451673  33.4323833  38.3014083
  15.9091673  32.1783833  37.7714083  16.1391673  32.9233833  37.8534083
   1.7771673  31.8213833  29.6814083   1.8211673  32.1653833  28.8804083
   2.5321673  32.0583833  30.0484083   1.8951673  31.9073833  29.6174083
  19.7391673  44.6823833  29.7664083  20.0291673  44.9393833  28.9854083
  20.4341673  44.7783833  30.2854083  19.8851673  44.7343833  29.7274083
  14.7621673  36.5423833  37.8534083  14.8351673  36.6463833  38.7164083
  14.1281673  37.1003833  37.6324083  14.6791673  36.6403833  37.9484083
  17.0301673  36.8613833  36.2184083  17.3491673  37.6473833  36.4214083
  16.6601673  36.5913833  36.9614083  17.0231673  36.9373833  36.3584083
  16.3441673  43.2853833  21.7484083  16.6781673  42.4793833  21.7834083
  15.5891673  43.2133833  22.1784083  16.2821673  43.1553833  21.8174083
  16.8261673  35.1193833  27.4074083  16.0811673  34.7963833  27.7254083
  16.8281673  35.9453833  27.6874083  16.7161673  35.1933833  27.4954083
  19.7281673  37.4033833  38.9534083  19.6761673  37.0623833  38.1524083
  20.4651673  37.8703833  38.9314083  19.8291673  37.4223833  38.8314083
  19.2661673  41.0793833  35.1594083  19.8941673  40.5303833  34.9034083
  19.2051673  41.6443833  34.4974083  19.3501673  41.0823833  35.0234083
  13.7181673  41.1603833  21.1514083  14.4021673  40.6463833  20.9824083
  13.3011673  41.2063833  20.3864083  13.7571673  41.0913833  21.0134083
   8.4001673  42.3103833  32.4554083   8.1021673  42.9023833  33.0224083
   8.4551673  42.7523833  31.7064083   8.3641673  42.4633833  32.4284083
   6.3791673  41.2603833  35.8534083   5.5731673  40.9703833  36.0204083
   6.2901673  42.1283833  35.8594083   6.2471673  41.3453833  35.8784083
  15.7381673  31.4493833  34.8684083  16.4821673  31.9013833  34.8054083
  15.1721673  31.9193833  34.3994083  15.7651673  31.5863833  34.7904083
  10.9161673  38.7333833  31.9464083  11.3921673  39.1073833  32.5744083
  10.0931673  38.8673833  32.2054083  10.8651673  38.8083833  32.0774083
   7.6261673  34.3363833  34.6874083   7.7871673  33.5923833  35.1144083
   7.5811673  34.0873833  33.8524083   7.6431673  34.1893833  34.6274083
  10.1801673  46.1263833  27.1744083  10.7261673  46.8053833  27.2284083
   9.8301673  46.2083833  26.3794083  10.2091673  46.2393833  27.0644083
  17.0231673  29.4293833  32.5384083  16.7431673  30.2543833  32.4944083
  17.7391673  29.4823833  33.0344083  17.0881673  29.5593833  32.6054083
   9.3781673  30.1443833  34.5674083  10.0831673  30.4643833  34.1654083
   9.6191673  29.3373833  34.7944083   9.5171673  30.0723833  34.5414083
   8.3631673  44.3543833  30.5634083   7.7391673  44.9363833  30.3814083
   8.6111673  44.0683833  29.7774083   8.3071673  44.3983833  30.4204083
  12.6721673  40.9883833  37.5524083  13.4291673  41.2743833  37.2264083
  12.1251673  41.0403833  36.8744083  12.7031673  41.0383833  37.4034083
  16.5811673  43.5383833  36.0564083  16.9271673  43.8083833  36.8104083
  16.8751673  44.1203833  35.4764083  16.6761673  43.6643833  36.0824083
  18.4441673  35.6843833  21.3954083  18.8221673  36.3613833  20.9954083
  17.6021673  35.9083833  21.4264083  18.3751673  35.8173833  21.3404083
   9.9571673  39.1303833  20.4784083   9.1521673  38.9533833  20.1934083
   9.9241673  39.9813833  20.6704083   9.8331673  39.2293833  20.4654083
   5.8871673  35.1973833  30.6284083   6.3271673  35.0943833  29.8824083
   6.4321673  34.8843833  31.2334083   6.0321673  35.1363833  30.6074083
  13.9031673  34.2993833  36.2204083  13.2551673  34.7693833  36.5684083
  14.4681673  34.2103833  36.8794083  13.8911673  34.3553833  36.3694083
  13.5911673  35.8363833  32.5184083  13.8931673  36.2563833  33.2214083
  13.6271673  34.9963833  32.7504083  13.6411673  35.7743833  32.6564083
  11.0161673  46.0033833  36.4434083  11.4941673  45.4033833  36.0274083
  10.6651673  45.5603833  37.1084083  11.0351673  45.8493833  36.4804083
  16.1391673  35.2833833  24.7704083  16.3461673  35.0823833  25.5944083
  16.8951673  35.5513833  24.4284083  16.2811673  35.2933833  24.8414083
   9.4341673  30.1823833  30.6754083   8.6081673  30.0333833  30.9124083
   9.3941673  30.2173833  29.8044083   9.3061673  30.1653833  30.5814083
  17.1611673  31.3663833  26.2444083  16.4471673  30.8953833  26.4154083
  16.9991673  31.7073833  25.4584083  17.0321673  31.3473833  26.1534083
  17.6041673  39.3103833  24.6244083  18.0801673  38.5813833  24.5764083
  16.7831673  39.0243833  24.5484083  17.5531673  39.1603833  24.6054083
  11.0751673  41.2223833  35.4634083  10.2801673  41.1583833  35.8144083
  11.1461673  42.0693833  35.2684083  10.9681673  41.3373833  35.4864083
   6.9051673  47.4293833  30.7804083   6.9161673  47.4883833  31.6504083
   6.4801673  46.6823833  30.6304083   6.8441673  47.3273833  30.8864083
   5.0631673  33.3243833  23.9354083   5.1891673  32.9953833  23.1374083
   4.2511673  33.0753833  24.1344083   4.9621673  33.2393833  23.8474083
  13.8201673  40.4773833  26.9794083  13.8961673  40.8183833  27.7784083
  13.9891673  39.6303833  27.1004083  13.8561673  40.4023833  27.1154083
  11.3421673  39.7513833  26.5444083  11.0441673  39.4363833  27.3014083
  12.0371673  40.2243833  26.7794083  11.4011673  39.7743833  26.6914083
  11.5641673  43.8693833  34.5714083  12.2511673  43.7553833  35.0964083
  11.6981673  44.6603833  34.2274083  11.6851673  43.9693833  34.5984083
  19.7401673  36.4783833  36.3824083  18.8851673  36.3563833  36.5084083
  19.8931673  36.0833833  35.6194083  19.6361673  36.4013833  36.2884083
  14.2531673  37.1433833  34.9584083  13.9981673  36.4243833  35.3804083
  15.0741673  37.2593833  35.2284083  14.3371673  37.0543833  35.0604083
   3.6691673  46.9273833  36.2224083   3.0151673  46.3583833  36.3204083
   3.2941673  47.7003833  36.3734083   3.5171673  46.9573833  36.2594083
  12.1871673  38.3333833  38.1454083  12.5101673  39.0193833  37.7134083
  11.4831673  38.6563833  38.5474083  12.1301673  38.4823833  38.1404083
  15.2711673  46.7073833  29.0744083  14.8201673  47.3503833  29.4534083
  15.9791673  46.6283833  29.5794083  15.3091673  46.7903833  29.2054083
  11.9721673  41.7973833  32.0044083  11.2781673  42.1993833  32.3474083
  12.6491673  42.2303833  32.3434083  11.9691673  41.9203833  32.1054083
  17.3491673  44.3903833  38.5844083  18.1251673  44.0003833  38.6674083
  16.8801673  44.0543833  39.2394083  17.3941673  44.2833833  38.6934083
   5.0401673  35.3353833  34.3514083   5.4151673  35.9543833  33.8644083
   5.7141673  34.8613833  34.6364083   5.1951673  35.3573833  34.3214083
   2.8151673  33.7833833  33.6264083   2.8921673  33.6143833  32.7734083
   3.5611673  34.1893833  33.8234083   2.9361673  33.8183833  33.5294083
  18.3741673  36.4233833  24.0664083  18.4771673  36.3653833  23.2024083
  19.1151673  36.0913833  24.3844083  18.4991673  36.3663833  23.9854083
   5.3691673  31.1933833  36.0374083   5.2881673  30.3493833  36.2434083
   5.0551673  31.2373833  35.2244083   5.3111673  31.0753833  35.9474083
  12.2941673  43.3883833  25.1734083  12.0891673  44.2213833  25.0144083
  11.5191673  43.0063833  25.2954083  12.1491673  43.4553833  25.1684083
  17.4761673  36.5693833  33.4224083  17.4741673  35.7063833  33.5464083
  17.5431673  36.8933833  34.2294083  17.4861673  36.4893833  33.5594083
   2.2121673  39.0093833  33.8504083   2.5321673  39.2283833  33.0694083
   2.1121673  38.1443833  33.7954083   2.2441673  38.9143833  33.7274083
   3.6681673  34.9453833  20.4684083   2.9961673  34.9593833  21.0244083
   3.7631673  34.0973833  20.2844083   3.5831673  34.8223833  20.5234083
  13.3551673  31.3693833  37.2044083  13.4471673  32.0813833  37.6984083
  12.7181673  30.9243833  37.6014083  13.2741673  31.4083833  37.3364083
  12.3491673  31.5593833  28.0584083  11.6491673  32.0773833  28.0024083
  12.3871673  31.1793833  27.2744083  12.2511673  31.5803833  27.9344083
   7.6561673  43.6503833  21.5824083   8.0971673  43.7303833  22.3304083
   6.8511673  43.4343833  21.8404083   7.6021673  43.6303833  21.7314083
  15.9471673  32.0753833  30.8584083  16.8021673  32.1743833  31.0034083
  15.5781673  32.6283833  31.4234083  16.0191673  32.1723833  30.9634083
   6.9751673  38.3013833  35.2354083   6.5791673  39.0753833  35.3104083
   6.5691673  37.9283833  34.5594083   6.8571673  38.3603833  35.1464083
  16.2511673  37.3553833  29.3494083  16.9171673  37.8963833  29.5094083
  15.9061673  37.6663833  28.6104083  16.2981673  37.4813833  29.2644083
  16.5641673  45.4213833  25.1564083  16.3901673  44.7673833  25.7064083
  17.2771673  45.1503833  24.7334083  16.6441673  45.2843833  25.1754083
   4.9851673  42.7203833  22.1834083   4.7411673  42.4133833  22.9634083
   4.9521673  42.0173833  21.6674083   4.9441673  42.5713833  22.2224083
   7.8041673  40.9653833  20.9264083   6.9861673  40.6973833  21.0664083
   7.7761673  41.8173833  21.1114083   7.6791673  41.0523833  20.9744083
   7.4041673  31.2783833  32.6854083   6.5401673  31.3623833  32.7654083
   7.6241673  30.7643833  33.3544083   7.3091673  31.2153833  32.7964083
  19.4221673  29.9133833  34.0144083  19.3701673  29.8693833  34.8844083
  20.1091673  29.4103833  33.8244083  19.5161673  29.8333833  34.1144083
  11.5071673  32.0263833  31.0594083  10.7701673  31.5723833  31.1724083
  12.0781673  31.6243833  31.5824083  11.4821673  31.8993833  31.1534083
  14.2391673  42.8743833  32.8474083  14.4451673  43.1753833  33.6394083
  14.1781673  43.5963833  32.3624083  14.2601673  43.0253833  32.8924083
  13.7731673  47.0883833  37.0934083  13.0201673  47.0703833  36.6524083
  13.9411673  47.9403833  37.1774083  13.6871673  47.2113833  37.0404083
   9.0101673  36.3553833  36.2634083   8.6881673  35.7793833  35.6934083
   8.6511673  37.1103833  36.0174083   8.9101673  36.3813833  36.1434083
   9.8061673  29.6073833  20.8904083   9.8841673  29.8543833  20.0574083
   9.0631673  29.9843833  21.1484083   9.7081673  29.6993833  20.8054083
   7.4451673  46.7113833  36.5114083   7.4861673  46.8373833  37.3744083
   8.0961673  46.1513833  36.3554083   7.5471673  46.6473833  36.6164083
  17.1561673  44.7733833  31.1024083  17.6831673  44.6903833  30.4114083
  16.7651673  43.9953833  31.1564083  17.1761673  44.6463833  31.0084083
   4.6241673  31.3613833  33.3334083   4.2811673  30.5943833  33.0994083
   3.9291673  31.8853833  33.3974083   4.4711673  31.3253833  33.3084083
  13.6701673  30.2173833  30.3104083  14.3401673  30.7613833  30.4374083
  13.1671673  30.6413833  29.7374083  13.6951673  30.3603833  30.2444083
   5.0381673  45.0943833  37.8714083   5.6331673  45.5253833  38.3434083
   4.6741673  45.7183833  37.3824083   5.0721673  45.2503833  37.8684083
  13.0291673  36.0253833  27.8034083  13.5801673  35.4183833  28.1034083
  12.6041673  36.2883833  28.5184083  13.0481673  35.9743833  27.9524083
   3.2771673  34.6753833  27.2894083   2.9091673  34.9773833  28.0204083
   3.8111673  34.0463833  27.5734083   3.3011673  34.6273833  27.4394083
   2.9651673  43.0833833  34.8004083   2.3911673  43.4993833  35.3094083
   3.6981673  43.5483833  34.8954083   2.9891673  43.2133833  34.8894083
  14.9991673  37.8563833  24.3654083  15.0671673  37.0063833  24.5464083
  14.1761673  37.9423833  24.0874083  14.8871673  37.7433833  24.3514083
   4.7511673  46.3503833  23.5754083   4.6061673  46.5063833  22.7294083
   5.6171673  46.4293833  23.6534083   4.8581673  46.3853833  23.4624083
   8.9181673  38.7473833  23.3034083   9.0181673  38.8863833  22.4484083
   9.7361673  38.6873833  23.5994083   9.0531673  38.7583833  23.2204083
  18.0781673  46.8113833  20.7834083  18.7151673  46.6773833  21.3644083
  17.7371673  46.0173833  20.6664083  18.1221673  46.6743833  20.8514083
  18.2731673  39.2293833  37.5164083  18.9071673  39.0593833  38.0904083
  18.6901673  39.6323833  36.8644083  18.4281673  39.2643833  37.5054083
  14.1531673  43.0763833  23.1054083  13.9021673  42.9483833  23.9314083
  13.8361673  42.3813833  22.6844083  14.0691673  42.9553833  23.1654083
  18.8981673  33.7933833  38.2544083  18.7021673  34.4373833  38.8094083
  18.1761673  33.3033833  38.2464083  18.7631673  33.8163833  38.3354083
  18.7971673  34.7343833  31.2254083  17.9641673  34.9843833  31.1534083
  18.7411673  33.8943833  31.4544083  18.6661673  34.6473833  31.2484083
   8.0571673  31.7223833  36.4194083   8.2911673  31.1463833  35.8064083
   7.2151673  31.5413833  36.5604083   7.9671673  31.6103833  36.3494083
  15.6841673  39.3403833  38.8714083  16.5551673  39.3043833  38.8354083
  15.4651673  39.7603833  38.1394083  15.7811673  39.3963833  38.7584083
   5.4381673  45.1653833  30.0524083   5.3591673  44.3553833  29.7364083
   4.9941673  45.6523833  29.4804083   5.3611673  45.1173833  29.9214083
  11.0391673  41.2843833  22.5354083  11.7561673  40.9373833  22.1794083
  11.0051673  42.0843833  22.1874083  11.1401673  41.3513833  22.4314083
   3.0101673  47.4093833  33.6334083   3.5031673  47.3533833  34.3514083
   3.1981673  46.6763833  33.1984083   3.1111673  47.2923833  33.6754083
  12.4481673  29.9253833   6.7741673  12.2031673  30.4133833   6.0941673
  13.3111673  29.8523833   6.6741673  12.5391673  29.9863833   6.6591673
  12.2571673  36.8413833  11.4451673  11.7331673  37.4373833  11.8081673
  12.6541673  36.4733833  12.1291673  12.2381673  36.8753833  11.6001673
  18.4011673  44.2823833   4.4161673  19.1021673  43.7633833   4.4121673
  17.8141673  43.8373833   3.9471673  18.4181673  44.1393833   4.3461673
   5.0081673  40.0363833   2.0801673   4.6161673  39.6653833   1.3941673
   4.9281673  39.4383833   2.7091673   4.9381673  39.8933833   2.0711673
  14.9281673  37.9083833   8.1211673  15.0081673  37.9123833   7.2521673
  14.3441673  37.2763833   8.2701673  14.8531673  37.8153833   8.0151673
   4.6351673  41.6773833   5.9801673   5.2431673  41.5073833   6.5831673
   3.8841673  41.5373833   6.4011673   4.6141673  41.6313833   6.1311673
   8.9171673  31.0123833   5.9291673   8.8471673  31.6893833   5.3831673
   9.6581673  30.6243833   5.6801673   9.0161673  31.0553833   5.8111673
   3.5261673  44.7683833   2.0571673   3.9931673  44.8523833   1.3251673
   3.9811673  44.1903833   2.5261673   3.6621673  44.6953833   2.0181673
   8.6401673  41.2413833  18.2231673   8.4041673  41.2383833  19.0631673
   7.8921673  41.0933833  17.7991673   8.4941673  41.2183833  18.2841673
   3.5121673  38.2373833   7.3581673   3.0501673  37.8453833   6.7311673
   4.2121673  37.7243833   7.4501673   3.5471673  38.1043833   7.2791673
   8.0201673  33.8473833  12.7051673   8.6981673  33.8653833  12.1561673
   7.9751673  33.0113833  12.9501673   8.1131673  33.7263833  12.6601673
   8.6221673  44.4333833  15.4861673   8.7601673  45.1933833  15.0791673
   9.4131673  44.0683833  15.5131673   8.7591673  44.4923833  15.4301673
   5.5131673  36.3373833   7.3811673   6.3301673  36.1503833   7.6241673
   5.0361673  35.7233833   7.7771673   5.5631673  36.2193833   7.4761673
   9.7171673  42.3183833   9.9911673  10.0651673  41.5193833  10.0211673
  10.3821673  42.8223833   9.7361673   9.8671673  42.2743833   9.9581673
   9.7741673  41.7673833   6.2021673  10.1051673  41.1233833   6.6881673
  10.0141673  41.5563833   5.3911673   9.8581673  41.6413833   6.1541673
  11.7421673  35.8983833  17.5411673  10.8941673  35.7993833  17.3631673
  11.7711673  36.6433833  17.9951673  11.6211673  35.9943833  17.5821673
   6.1101673  31.4313833   6.6471673   5.8141673  31.9323833   5.9971673
   6.9771673  31.5093833   6.5901673   6.1941673  31.5173833   6.5431673
  16.3001673  28.8583833  16.6551673  16.1421673  29.6273833  16.2731673
  15.5281673  28.6383833  16.9991673  16.1621673  28.9393833  16.6501673
   9.0891673  30.5733833   8.8701673   9.1621673  31.4333833   8.9991673
   9.0511673  30.4983833   8.0021673   9.0941673  30.6893833   8.7611673
   7.7181673  43.5523833   5.7511673   7.1391673  43.2773833   6.3431673
   8.3421673  42.9433833   5.7761673   7.7251673  43.4223833   5.8421673
  13.8611673  45.8403833   3.2731673  14.5881673  46.3123833   3.3751673
  14.0901673  45.0463833   3.5531673  14.0031673  45.7933833   3.3301673
  12.0291673  46.2323833   5.2631673  12.2431673  46.7593833   5.9251673
  12.7961673  46.0583833   4.8841673  12.1741673  46.2843833   5.3051673
   4.9971673  30.8153833  10.8621673   4.4761673  30.1873833  10.5541673
   5.5881673  30.3783833  11.3331673   5.0081673  30.6573833  10.8861673
   8.3031673  32.9483833  20.1601673   8.4201673  32.4943833  19.4241673
   8.5911673  33.7463833  19.9571673   8.3631673  32.9993833  20.0211673
   3.4231673  44.3783833   6.2021673   4.0791673  43.8033833   6.2171673
   3.8121673  45.1273833   5.9811673   3.5781673  44.4033833   6.1721673
  19.1561673  33.4723833   7.4641673  18.8101673  34.1503833   7.8901673
  18.5201673  32.8743833   7.4801673  19.0111673  33.4843833   7.5291673
  14.4681673  46.2423833  13.5681673  15.2121673  46.6983833  13.5581673
  14.3471673  46.0283833  12.7311673  14.5601673  46.2783833  13.4431673
   4.0361673  32.5453833  19.1441673   3.2581673  32.1553833  19.0721673
   4.5271673  32.1333833  18.5531673   3.9931673  32.4263833  19.0461673
   4.2411673  42.8653833   9.7021673   4.6641673  42.5093833   9.0281673
   4.5651673  42.4433833  10.3941673   4.3511673  42.7503833   9.7051673
   7.4721673  45.7173833   8.9981673   8.3161673  45.8213833   8.8031673
   7.1751673  46.5353833   9.0661673   7.5531673  45.8533833   8.9791673
  10.6851673  30.1883833  18.3121673  10.8631673  29.3793833  18.0371673
  10.5421673  30.6293833  17.5731673  10.6901673  30.1343833  18.1621673
  11.2791673  35.1143833   7.0851673  11.5661673  34.8823833   6.2951673
  12.0111673  35.1933833   7.5541673  11.4291673  35.0913833   7.0381673
  12.0011673  35.4533833   2.2061673  12.2821673  36.2413833   2.4551673
  11.2251673  35.6183833   1.8431673  11.9281673  35.5943833   2.1891673
  16.0421673  47.4273833   3.6731673  16.7071673  47.2793833   3.1281673
  16.4021673  47.3443833   4.4631673  16.1941673  47.3933833   3.7091673
   6.4701673  46.9363833  14.7381673   6.7621673  46.8693833  15.5581673
   5.8441673  46.3313833  14.6931673   6.4211673  46.8373833  14.8531673
  18.8311673  31.7953833  12.8331673  19.5881673  31.8673833  12.4051673
  18.8941673  31.0223833  13.2321673  18.9521673  31.6923833  12.8281673
  13.7221673  43.4273833  17.2721673  13.6881673  43.8093833  18.0561673
  14.5761673  43.3853833  17.1011673  13.8431673  43.4773833  17.3631673
  10.8601673  43.6243833   2.0221673  10.6791673  44.1693833   2.6791673
  11.6261673  43.9143833   1.7211673  10.9461673  43.7483833   2.0751673
  14.3671673  31.5203833   3.0761673  14.9071673  30.8383833   3.1521673
  14.4291673  31.9183833   3.8501673  14.4561673  31.4783833   3.2021673
   2.3211673  32.6883833   5.6451673   2.2071673  31.8243833   5.6761673
   1.8461673  32.9823833   6.3151673   2.2341673  32.6043833   5.7481673
   4.4631673  45.0983833  13.8601673   3.7651673  44.5903833  13.9861673
   4.7231673  44.8933833  13.0521673   4.3981673  44.9933833  13.7591673
  11.6251673  33.8963833   4.3901673  11.1171673  33.2343833   4.1361673
  11.6771673  34.4003833   3.6801673  11.5581673  33.8733833   4.2481673
  12.1741673  46.5913833  14.7701673  12.9421673  46.5113833  14.3641673
  11.5911673  46.4703833  14.1321673  12.2011673  46.5613833  14.6161673
  11.6251673  30.8373833   4.2811673  11.1701673  30.4353833   3.6551673
  12.3981673  30.9923833   3.9061673  11.6721673  30.8013833   4.1331673
  18.4511673  47.1943833   7.6711673  17.9961673  47.9113833   7.8721673
  17.8371673  46.6233833   7.4291673  18.2931673  47.2163833   7.6651673
  10.2231673  33.2043833   8.8031673  10.2971673  33.7723833   8.1451673
  10.3441673  33.6963833   9.5131673  10.2511673  33.3613833   8.8111673
  15.4481673  43.0393833   7.2151673  16.1491673  42.5573833   7.4041673
  14.7881673  42.4703833   7.2601673  15.4541673  42.8843833   7.2491673
   5.8241673  43.9493833  16.4271673   6.6651673  44.0123833  16.2051673
   5.7871673  44.3463833  17.2031673   5.9431673  44.0173833  16.5091673
   4.8311673  29.0273833   7.1511673   5.3671673  29.7153833   7.1411673
   4.8341673  28.7533833   6.3231673   4.9101673  29.0883833   7.0271673
   7.7871673  39.4603833  11.1761673   7.9591673  39.2503833  12.0051673
   7.1321673  38.9263833  10.9601673   7.7161673  39.3503833  11.2671673
  14.0151673  33.3743833  14.6911673  13.9201673  33.6933833  15.4971673
  13.4221673  32.7353833  14.6531673  13.9131673  33.3263833  14.8051673
   8.5371673  39.3983833  13.7661673   8.5901673  40.2453833  13.9681673
   8.2521673  39.0283833  14.5031673   8.5031673  39.4683833  13.9041673
  14.7141673  40.0933833  12.8961673  14.2001673  39.6813833  13.4671673
  14.5881673  40.9373833  13.0771673  14.6201673  40.1573833  13.0071673
  15.2711673  29.3183833   7.5271673  15.3201673  29.0003833   8.3381673
  15.5941673  28.6743833   7.0341673  15.3261673  29.1763833   7.5741673
  17.7351673  33.5543833  15.8351673  18.5071673  33.3293833  16.1721673
  17.2601673  33.7713833  16.5351673  17.7791673  33.5533833  15.9881673
   5.2791673  32.8373833   8.8051673   5.5511673  32.4073833   8.0971673
   5.1031673  32.2013833   9.3761673   5.2931673  32.6803833   8.7851673
  17.9671673  40.5323833   3.0231673  18.0861673  40.2453833   3.8381673
  18.7741673  40.5533833   2.6931673  18.1031673  40.4933833   3.0951673
   5.1031673  40.2643833   8.3541673   5.9541673  40.1843833   8.1811673
   4.7461673  39.5823833   7.9421673   5.1761673  40.1513833   8.2671673
   3.8701673  46.9893833   9.5911673   3.1971673  46.4913833   9.3461673
   4.2731673  47.1743833   8.8401673   3.8301673  46.9433833   9.4441673
   3.4201673  33.9393833  11.8871673   4.2631673  34.1593833  11.8441673
   3.0311673  34.5123833  11.3561673   3.4871673  34.0563833  11.8021673
  20.2011673  45.0413833  17.2771673  19.5191673  45.3513833  16.8301673
  19.8321673  44.5833833  17.9221673  20.0451673  45.0193833  17.3061673
  15.8621673  37.0693833   2.6081673  15.6421673  37.8003833   2.1861673
  15.4141673  37.1203833   3.3551673  15.7631673  37.1843833   2.6561673
   7.4711673  40.2713833   6.5891673   8.1841673  40.7663833   6.6791673
   7.6931673  39.7043833   5.9631673   7.6091673  40.2603833   6.5101673
  20.0491673  31.9303833   2.0611673  19.3871673  31.3623833   2.0841673
  19.8561673  32.4423833   1.3811673  19.9231673  31.9223833   1.9641673
   9.2741673  35.6243833  20.0051673   8.7901673  36.2013833  20.4471673
   9.2461673  35.9193833  19.1841673   9.1981673  35.7533833  19.9491673
  20.3721673  36.3083833  14.6171673  20.5871673  35.5083833  14.3411673
  19.5221673  36.3683833  14.4281673  20.2781673  36.1993833  14.5481673
  18.0511673  31.4883833   4.3401673  18.7971673  31.0813833   4.5391673
  18.3141673  32.2033833   3.9151673  18.2001673  31.5343833   4.3071673
  11.9941673  43.9743833   8.9161673  11.4711673  44.6083833   8.6231673
  12.3041673  43.6103833   8.1871673  11.9621673  44.0143833   8.7651673
   6.0691673  41.7623833  11.6761673   6.5361673  42.0513833  12.3541673
   6.6411673  41.2843833  11.2221673   6.2231673  41.7343833  11.7091673
  14.5051673  33.7763833   9.4131673  14.8491673  33.9283833  10.2001673
  14.0521673  33.0383833   9.5261673  14.4891673  33.6893833   9.5461673
   2.6351673  39.4323833  10.2201673   3.0661673  39.3033833   9.4731673
   2.4301673  40.2803833  10.1941673   2.6681673  39.5383833  10.1061673
   8.9811673  32.9963833   3.8701673   8.9791673  32.8793833   3.0051673
   8.8001673  33.8443833   3.9621673   8.9541673  33.1043833   3.7561673
  18.0351673  45.4233833  15.3671673  17.3641673  45.9373833  15.5851673
  18.0981673  45.5233833  14.5031673  17.9451673  45.5143833  15.2721673
   6.7191673  42.9483833   8.5021673   6.8451673  43.7913833   8.6891673
   7.3871673  42.5493833   8.8981673   6.8371673  43.0143833   8.5881673
   4.8491673  36.4313833  18.3641673   4.3131673  35.9253833  18.8321673
   4.8691673  36.0413833  17.5841673   4.7721673  36.2983833  18.3181673
   5.3341673  35.8283833   3.5041673   5.2061673  35.3803833   4.2421673
   4.7521673  35.4863833   2.9521673   5.2291673  35.7113833   3.5321673
   5.5011673  37.6583833  10.1031673   4.7201673  37.5993833   9.7201673
   5.5731673  36.9063833  10.5401673   5.3961673  37.5393833  10.1111673
   5.9311673  37.3953833  13.5711673   5.9561673  36.7203833  13.0201673
   5.2851673  37.8913833  13.2591673   5.8401673  37.3683833  13.4441673
  15.8261673  35.1083833  11.9671673  15.1641673  35.4363833  12.4301673
  16.0131673  35.7423833  11.3981673  15.7561673  35.2503833  11.9511673
  10.0311673  46.1723833  12.9631673   9.7541673  45.5313833  12.4401673
   9.8231673  46.8983833  12.5251673   9.9601673  46.1853833  12.8211673
  12.4711673  31.0143833  15.3961673  12.6201673  30.1893833  15.1531673
  12.8501673  31.0693833  16.1801673  12.5491673  30.9003833  15.4761673
  14.0191673  33.0773833   5.4781673  14.5091673  33.7943833   5.4011673
  13.2291673  33.3383833   5.2151673  13.9751673  33.2213833   5.4281673
   3.7301673  38.7503833  19.1301673   3.6931673  39.2513833  18.4161673
   4.0611673  37.9983833  18.8351673   3.7731673  38.7123833  18.9811673
  15.3331673  40.9553833  17.3881673  15.8171673  41.6733833  17.4861673
  15.7271673  40.5283833  16.7371673  15.4631673  40.9983833  17.3061673
   9.6291673  43.8003833  18.5651673   9.9831673  43.6223833  19.3421673
   9.1931673  43.0713833  18.3661673   9.6171673  43.6663833  18.6511673
  10.6011673  34.5473833  11.2031673  11.0811673  35.2463833  11.4111673
  10.9741673  33.9003833  11.6541673  10.7271673  34.5553833  11.3001673
  12.7901673  37.7163833   3.4771673  12.7821673  38.4383833   2.9871673
  12.1511673  37.8513833   4.0541673  12.6951673  37.8433833   3.4901673
  17.7621673  41.5863833   7.4581673  18.1181673  41.2363833   8.1731673
  17.7541673  40.9253833   6.8881673  17.8141673  41.4363833   7.4791673
  13.8071673  44.6523833  11.3021673  13.2041673  44.3563833  10.7451673
  14.3521673  45.1043833  10.7931673  13.7981673  44.6753833  11.1441673
  13.8201673  41.5033833  10.7021673  13.0231673  41.7273833  10.9761673
  14.0781673  40.9093833  11.2871673  13.7401673  41.4483833  10.8291673
   7.7121673  46.3153833   5.1501673   7.5651673  45.5393833   5.5211673
   8.4011673  46.1683833   4.6351673   7.7921673  46.1783833   5.1291673
   7.3831673  30.0583833   3.1381673   7.4801673  29.9513833   3.9991673
   6.6751673  30.5643833   3.0731673   7.2931673  30.1173833   3.2561673
  10.0041673  45.8313833   3.5521673  10.6261673  45.9943833   4.1421673
  10.0401673  46.5223833   3.0201673  10.1011673  45.9573833   3.5611673
  17.0801673  39.5013833  15.5481673  17.1351673  39.6263833  14.6861673
  17.8331673  39.8213833  15.8501673  17.1991673  39.5663833  15.4651673
  13.2711673  44.8503833  19.8251673  13.4351673  45.1333833  20.6341673
  13.5341673  45.5113833  19.3201673  13.3341673  44.9903833  19.8701673
  18.1121673  29.7993833  18.5351673  17.4751673  29.3993833  18.0931673
  18.1381673  29.3683833  19.2931673  18.0221673  29.6773833  18.5811673
   4.5051673  38.3653833   4.3811673   4.8291673  37.5863833   4.1591673
   5.1511673  38.7333833   4.8361673   4.6481673  38.3043833   4.4151673
  12.8111673  39.3073833  15.1481673  12.6561673  39.9173833  15.7521673
  13.3451673  38.7493833  15.5541673  12.8671673  39.3153833  15.2971673
  11.1951673  37.7073833   5.8061673  11.2541673  38.3573833   6.3851673
  11.0061673  37.0113833   6.2971673  11.1761673  37.7003833   5.9641673
  16.4211673  42.0363833  11.6751673  15.9421673  42.3343833  11.0091673
  16.0651673  41.2603833  11.8531673  16.2981673  41.9653833  11.6031673
   5.6911673  32.2243833   2.3181673   5.1801673  32.2773833   1.6121673
   6.4751673  32.4643833   2.0221673   5.7311673  32.2673833   2.1701673
  10.4181673  39.7543833  10.2371673   9.5711673  39.5603833  10.3181673
  10.7421673  39.5893833  11.0301673  10.3401673  39.7013833  10.3661673
   4.2661673  39.4473833  12.5531673   4.9881673  39.9353833  12.5161673
   3.9961673  39.4173833  11.7241673   4.3331673  39.5153833  12.4251673
   7.4961673  34.6183833   9.2881673   8.3421673  34.4283833   9.3861673
   7.1261673  33.8413833   9.1501673   7.5661673  34.4753833   9.2821673
  20.1131673  46.2023833   3.6151673  20.8071673  45.7353833   3.3671673
  19.5741673  45.6043833   3.9521673  20.1361673  46.0443833   3.6281673
   2.3171673  35.9563833   5.9431673   2.8061673  35.6643833   6.6041673
   2.4461673  35.3633833   5.3161673   2.4081673  35.8253833   5.9481673
  17.3521673  38.9783833  12.7941673  17.3451673  38.2023833  13.1921673
  16.5111673  39.2123833  12.7871673  17.2271673  38.8983833  12.8521673
   3.6611673  40.4993833  16.8311673   3.2401673  39.9813833  16.2701673
   3.3091673  41.2853833  16.6881673   3.5471673  40.5393833  16.7271673
  18.6081673  39.0493833  10.2311673  18.3221673  39.4503833  10.9511673
  19.4681673  38.9873833  10.3581673  18.6931673  39.0993833  10.3561673
   8.2971673  35.8513833   4.1391673   8.5691673  36.6773833   4.2061673
   7.4341673  35.9263833   4.0431673   8.2101673  35.9843833   4.1341673
  16.2701673  32.9733833  18.7711673  15.7451673  33.4323833  19.2951673
  15.9091673  32.1783833  18.7651673  16.1391673  32.9233833  18.8471673
   1.7771673  31.8213833  10.6751673   1.8211673  32.1653833   9.8741673
   2.5321673  32.0583833  11.0421673   1.8951673  31.9073833  10.6111673
  19.7391673  44.6823833  10.7601673  20.0291673  44.9393833   9.9791673
  20.4341673  44.7783833  11.2791673  19.8851673  44.7343833  10.7211673
  14.7621673  36.5423833  18.8471673  14.8351673  36.6463833  19.7101673
  14.1281673  37.1003833  18.6261673  14.6791673  36.6403833  18.9421673
  17.0301673  36.8613833  17.2121673  17.3491673  37.6473833  17.4151673
  16.6601673  36.5913833  17.9551673  17.0231673  36.9373833  17.3521673
  16.3441673  43.2853833   2.7421673  16.6781673  42.4793833   2.7771673
  15.5891673  43.2133833   3.1721673  16.2821673  43.1553833   2.8111673
  16.8261673  35.1193833   8.4011673  16.0811673  34.7963833   8.7191673
  16.8281673  35.9453833   8.6811673  16.7161673  35.1933833   8.4891673
  19.7281673  37.4033833  19.9471673  19.6761673  37.0623833  19.1461673
  20.4651673  37.8703833  19.9251673  19.8291673  37.4223833  19.8251673
  19.2661673  41.0793833  16.1531673  19.8941673  40.5303833  15.8971673
  19.2051673  41.6443833  15.4911673  19.3501673  41.0823833  16.0171673
  13.7181673  41.1603833   2.1451673  14.4021673  40.6463833   1.9761673
  13.3011673  41.2063833   1.3801673  13.7571673  41.0913833   2.0071673
   8.4001673  42.3103833  13.4491673   8.1021673  42.9023833  14.0161673
   8.4551673  42.7523833  12.7001673   8.3641673  42.4633833  13.4221673
   6.3791673  41.2603833  16.8471673   5.5731673  40.9703833  17.0141673
   6.2901673  42.1283833  16.8531673   6.2471673  41.3453833  16.8721673
  15.7381673  31.4493833  15.8621673  16.4821673  31.9013833  15.7991673
  15.1721673  31.9193833  15.3931673  15.7651673  31.5863833  15.7841673
  10.9161673  38.7333833  12.9401673  11.3921673  39.1073833  13.5681673
  10.0931673  38.8673833  13.1991673  10.8651673  38.8083833  13.0711673
   7.6261673  34.3363833  15.6811673   7.7871673  33.5923833  16.1081673
   7.5811673  34.0873833  14.8461673   7.6431673  34.1893833  15.6211673
  10.1801673  46.1263833   8.1681673  10.7261673  46.8053833   8.2221673
   9.8301673  46.2083833   7.3731673  10.2091673  46.2393833   8.0581673
  17.0231673  29.4293833  13.5321673  16.7431673  30.2543833  13.4881673
  17.7391673  29.4823833  14.0281673  17.0881673  29.5593833  13.5991673
   9.3781673  30.1443833  15.5611673  10.0831673  30.4643833  15.1591673
   9.6191673  29.3373833  15.7881673   9.5171673  30.0723833  15.5351673
   8.3631673  44.3543833  11.5571673   7.7391673  44.9363833  11.3751673
   8.6111673  44.0683833  10.7711673   8.3071673  44.3983833  11.4141673
  12.6721673  40.9883833  18.5461673  13.4291673  41.2743833  18.2201673
  12.1251673  41.0403833  17.8681673  12.7031673  41.0383833  18.3971673
  16.5811673  43.5383833  17.0501673  16.9271673  43.8083833  17.8041673
  16.8751673  44.1203833  16.4701673  16.6761673  43.6643833  17.0761673
  18.4441673  35.6843833   2.3891673  18.8221673  36.3613833   1.9891673
  17.6021673  35.9083833   2.4201673  18.3751673  35.8173833   2.3341673
   5.8871673  35.1973833  11.6221673   6.3271673  35.0943833  10.8761673
   6.4321673  34.8843833  12.2271673   6.0321673  35.1363833  11.6011673
  13.9031673  34.2993833  17.2141673  13.2551673  34.7693833  17.5621673
  14.4681673  34.2103833  17.8731673  13.8911673  34.3553833  17.3631673
  13.5911673  35.8363833  13.5121673  13.8931673  36.2563833  14.2151673
  13.6271673  34.9963833  13.7441673  13.6411673  35.7743833  13.6501673
  11.0161673  46.0033833  17.4371673  11.4941673  45.4033833  17.0211673
  10.6651673  45.5603833  18.1021673  11.0351673  45.8493833  17.4741673
  16.1391673  35.2833833   5.7641673  16.3461673  35.0823833   6.5881673
  16.8951673  35.5513833   5.4221673  16.2811673  35.2933833   5.8351673
   9.4341673  30.1823833  11.6691673   8.6081673  30.0333833  11.9061673
   9.3941673  30.2173833  10.7981673   9.3061673  30.1653833  11.5751673
  17.1611673  31.3663833   7.2381673  16.4471673  30.8953833   7.4091673
  16.9991673  31.7073833   6.4521673  17.0321673  31.3473833   7.1471673
  17.6041673  39.3103833   5.6181673  18.0801673  38.5813833   5.5701673
  16.7831673  39.0243833   5.5421673  17.5531673  39.1603833   5.5991673
  11.0751673  41.2223833  16.4571673  10.2801673  41.1583833  16.8081673
  11.1461673  42.0693833  16.2621673  10.9681673  41.3373833  16.4801673
   6.9051673  47.4293833  11.7741673   6.9161673  47.4883833  12.6441673
   6.4801673  46.6823833  11.6241673   6.8441673  47.3273833  11.8801673
   5.0631673  33.3243833   4.9291673   5.1891673  32.9953833   4.1311673
   4.2511673  33.0753833   5.1281673   4.9621673  33.2393833   4.8411673
  13.8201673  40.4773833   7.9731673  13.8961673  40.8183833   8.7721673
  13.9891673  39.6303833   8.0941673  13.8561673  40.4023833   8.1091673
  11.3421673  39.7513833   7.5381673  11.0441673  39.4363833   8.2951673
  12.0371673  40.2243833   7.7731673  11.4011673  39.7743833   7.6851673
  11.5641673  43.8693833  15.5651673  12.2511673  43.7553833  16.0901673
  11.6981673  44.6603833  15.2211673  11.6851673  43.9693833  15.5921673
  19.7401673  36.4783833  17.3761673  18.8851673  36.3563833  17.5021673
  19.8931673  36.0833833  16.6131673  19.6361673  36.4013833  17.2821673
  14.2531673  37.1433833  15.9521673  13.9981673  36.4243833  16.3741673
  15.0741673  37.2593833  16.2221673  14.3371673  37.0543833  16.0541673
   3.6691673  46.9273833  17.2161673   3.0151673  46.3583833  17.3141673
   3.2941673  47.7003833  17.3671673   3.5171673  46.9573833  17.2531673
  12.1871673  38.3333833  19.1391673  12.5101673  39.0193833  18.7071673
  11.4831673  38.6563833  19.5411673  12.1301673  38.4823833  19.1341673
  15.2711673  46.7073833  10.0681673  14.8201673  47.3503833  10.4471673
  15.9791673  46.6283833  10.5731673  15.3091673  46.7903833  10.1991673
  11.9721673  41.7973833  12.9981673  11.2781673  42.1993833  13.3411673
  12.6491673  42.2303833  13.3371673  11.9691673  41.9203833  13.0991673
  17.3491673  44.3903833  19.5781673  18.1251673  44.0003833  19.6611673
  16.8801673  44.0543833  20.2331673  17.3941673  44.2833833  19.6871673
   5.0401673  35.3353833  15.3451673   5.4151673  35.9543833  14.8581673
   5.7141673  34.8613833  15.6301673   5.1951673  35.3573833  15.3151673
   2.8151673  33.7833833  14.6201673   2.8921673  33.6143833  13.7671673
   3.5611673  34.1893833  14.8171673   2.9361673  33.8183833  14.5231673
  18.3741673  36.4233833   5.0601673  18.4771673  36.3653833   4.1961673
  19.1151673  36.0913833   5.3781673  18.4991673  36.3663833   4.9791673
   5.3691673  31.1933833  17.0311673   5.2881673  30.3493833  17.2371673
   5.0551673  31.2373833  16.2181673   5.3111673  31.0753833  16.9411673
  12.2941673  43.3883833   6.1671673  12.0891673  44.2213833   6.0081673
  11.5191673  43.0063833   6.2891673  12.1491673  43.4553833   6.1621673
  17.4761673  36.5693833  14.4161673  17.4741673  35.7063833  14.5401673
  17.5431673  36.8933833  15.2231673  17.4861673  36.4893833  14.5531673
   2.2121673  39.0093833  14.8441673   2.5321673  39.2283833  14.0631673
   2.1121673  38.1443833  14.7891673   2.2441673  38.9143833  14.7211673
  13.3551673  31.3693833  18.1981673  13.4471673  32.0813833  18.6921673
  12.7181673  30.9243833  18.5951673  13.2741673  31.4083833  18.3301673
  12.3491673  31.5593833   9.0521673  11.6491673  32.0773833   8.9961673
  12.3871673  31.1793833   8.2681673  12.2511673  31.5803833   8.9281673
   7.6561673  43.6503833   2.5761673   8.0971673  43.7303833   3.3241673
   6.8511673  43.4343833   2.8341673   7.6021673  43.6303833   2.7251673
  15.9471673  32.0753833  11.8521673  16.8021673  32.1743833  11.9971673
  15.5781673  32.6283833  12.4171673  16.0191673  32.1723833  11.9571673
   6.9751673  38.3013833  16.2291673   6.5791673  39.0753833  16.3041673
   6.5691673  37.9283833  15.5531673   6.8571673  38.3603833  16.1401673
  16.2511673  37.3553833  10.3431673  16.9171673  37.8963833  10.5031673
  15.9061673  37.6663833   9.6041673  16.2981673  37.4813833  10.2581673
  16.5641673  45.4213833   6.1501673  16.3901673  44.7673833   6.7001673
  17.2771673  45.1503833   5.7271673  16.6441673  45.2843833   6.1691673
   4.9851673  42.7203833   3.1771673   4.7411673  42.4133833   3.9571673
   4.9521673  42.0173833   2.6611673   4.9441673  42.5713833   3.2161673
   7.8041673  40.9653833   1.9201673   6.9861673  40.6973833   2.0601673
   7.7761673  41.8173833   2.1051673   7.6791673  41.0523833   1.9681673
   7.4041673  31.2783833  13.6791673   6.5401673  31.3623833  13.7591673
   7.6241673  30.7643833  14.3481673   7.3091673  31.2153833  13.7901673
  19.4221673  29.9133833  15.0081673  19.3701673  29.8693833  15.8781673
  20.1091673  29.4103833  14.8181673  19.5161673  29.8333833  15.1081673
  11.5071673  32.0263833  12.0531673  10.7701673  31.5723833  12.1661673
  12.0781673  31.6243833  12.5761673  11.4821673  31.8993833  12.1471673
  14.2391673  42.8743833  13.8411673  14.4451673  43.1753833  14.6331673
  14.1781673  43.5963833  13.3561673  14.2601673  43.0253833  13.8861673
  13.7731673  47.0883833  18.0871673  13.0201673  47.0703833  17.6461673
  13.9411673  47.9403833  18.1711673  13.6871673  47.2113833  18.0341673
   9.0101673  36.3553833  17.2571673   8.6881673  35.7793833  16.6871673
   8.6511673  37.1103833  17.0111673   8.9101673  36.3813833  17.1371673
  19.0511673  41.5133833  13.2991673  19.0191673  40.6513833  13.1641673
  18.3581673  41.8153833  12.8651673  18.9441673  41.4303833  13.2151673
   7.4451673  46.7113833  17.5051673   7.4861673  46.8373833  18.3681673
   8.0961673  46.1513833  17.3491673   7.5471673  46.6473833  17.6101673
  17.1561673  44.7733833  12.0961673  17.6831673  44.6903833  11.4051673
  16.7651673  43.9953833  12.1501673  17.1761673  44.6463833  12.0021673
   4.6241673  31.3613833  14.3271673   4.2811673  30.5943833  14.0931673
   3.9291673  31.8853833  14.3911673   4.4711673  31.3253833  14.3021673
  13.6701673  30.2173833  11.3041673  14.3401673  30.7613833  11.4311673
  13.1671673  30.6413833  10.7311673  13.6951673  30.3603833  11.2381673
   5.0381673  45.0943833  18.8651673   5.6331673  45.5253833  19.3371673
   4.6741673  45.7183833  18.3761673   5.0721673  45.2503833  18.8621673
  13.0291673  36.0253833   8.7971673  13.5801673  35.4183833   9.0971673
  12.6041673  36.2883833   9.5121673  13.0481673  35.9743833   8.9461673
   3.2771673  34.6753833   8.2831673   2.9091673  34.9773833   9.0141673
   3.8111673  34.0463833   8.5671673   3.3011673  34.6273833   8.4331673
   2.9651673  43.0833833  15.7941673   2.3911673  43.4993833  16.3031673
   3.6981673  43.5483833  15.8891673   2.9891673  43.2133833  15.8831673
  14.9991673  37.8563833   5.3591673  15.0671673  37.0063833   5.5401673
  14.1761673  37.9423833   5.0811673  14.8871673  37.7433833   5.3451673
   4.7511673  46.3503833   4.5691673   4.6061673  46.5063833   3.7231673
   5.6171673  46.4293833   4.6471673   4.8581673  46.3853833   4.4561673
   8.9181673  38.7473833   4.2971673   9.0181673  38.8863833   3.4421673
   9.7361673  38.6873833   4.5931673   9.0531673  38.7583833   4.2141673
  18.0781673  46.8113833   1.7771673  18.7151673  46.6773833   2.3581673
  17.7371673  46.0173833   1.6601673  18.1221673  46.6743833   1.8451673
  18.2731673  39.2293833  18.5101673  18.9071673  39.0593833  19.0841673
  18.6901673  39.6323833  17.8581673  18.4281673  39.2643833  18.4991673
  14.1531673  43.0763833   4.0991673  13.9021673  42.9483833   4.9251673
  13.8361673  42.3813833   3.6781673  14.0691673  42.9553833   4.1591673
  18.8981673  33.7933833  19.2481673  18.7021673  34.4373833  19.8031673
  18.1761673  33.3033833  19.2401673  18.7631673  33.8163833  19.3291673
  18.7971673  34.7343833  12.2191673  17.9641673  34.9843833  12.1471673
  18.7411673  33.8943833  12.4481673  18.6661673  34.6473833  12.2421673
   8.0571673  31.7223833  17.4131673   8.2911673  31.1463833  16.8001673
   7.2151673  31.5413833  17.5541673   7.9671673  31.6103833  17.3431673
  15.6841673  39.3403833  19.8651673  16.5551673  39.3043833  19.8291673
  15.4651673  39.7603833  19.1331673  15.7811673  39.3963833  19.7521673
   5.4381673  45.1653833  11.0461673   5.3591673  44.3553833  10.7301673
   4.9941673  45.6523833  10.4741673   5.3611673  45.1173833  10.9151673
  11.0391673  41.2843833   3.5291673  11.7561673  40.9373833   3.1731673
  11.0051673  42.0843833   3.1811673  11.1401673  41.3513833   3.4251673
   3.0101673  47.4093833  14.6271673   3.5031673  47.3533833  15.3451673
   3.1981673  46.6763833  14.1921673   3.1111673  47.2923833  14.6691673
  12.4481673  11.4472753  63.7928903  12.2031673  11.9352753  63.1128903
  13.3111673  11.3742753  63.6928903  12.5391673  11.5082753  63.6778903
  12.2571673  18.3632753  68.4638903  11.7331673  18.9592753  68.8268903
  12.6541673  17.9952753  69.1478903  12.2381673  18.3972753  68.6188903
  18.4011673  25.8042753  61.4348903  19.1021673  25.2852753  61.4308903
  17.8141673  25.3592753  60.9658903  18.4181673  25.6612753  61.3648903
   5.0081673  21.5582753  59.0988903   4.6161673  21.1872753  58.4128903
   4.9281673  20.9602753  59.7278903   4.9381673  21.4152753  59.0898903
  14.9281673  19.4302753  65.1398903  15.0081673  19.4342753  64.2708903
  14.3441673  18.7982753  65.2888903  14.8531673  19.3372753  65.0338903
   4.6351673  23.1992753  62.9988903   5.2431673  23.0292753  63.6018903
   3.8841673  23.0592753  63.4198903   4.6141673  23.1532753  63.1498903
   8.9171673  12.5342753  62.9478903   8.8471673  13.2112753  62.4018903
   9.6581673  12.1462753  62.6988903   9.0161673  12.5772753  62.8298903
   3.5261673  26.2902753  59.0758903   3.9931673  26.3742753  58.3438903
   3.9811673  25.7122753  59.5448903   3.6621673  26.2172753  59.0368903
   8.6401673  22.7632753  75.2418903   8.4041673  22.7602753  76.0818903
   7.8921673  22.6152753  74.8178903   8.4941673  22.7402753  75.3028903
   3.5121673  19.7592753  64.3768903   3.0501673  19.3672753  63.7498903
   4.2121673  19.2462753  64.4688903   3.5471673  19.6262753  64.2978903
   8.0201673  15.3692753  69.7238903   8.6981673  15.3872753  69.1748903
   7.9751673  14.5332753  69.9688903   8.1131673  15.2482753  69.6788903
   8.6221673  25.9552753  72.5048903   8.7601673  26.7152753  72.0978903
   9.4131673  25.5902753  72.5318903   8.7591673  26.0142753  72.4488903
   5.5131673  17.8592753  64.3998903   6.3301673  17.6722753  64.6428903
   5.0361673  17.2452753  64.7958903   5.5631673  17.7412753  64.4948903
   9.7171673  23.8402753  67.0098903  10.0651673  23.0412753  67.0398903
  10.3821673  24.3442753  66.7548903   9.8671673  23.7962753  66.9768903
   9.7741673  23.2892753  63.2208903  10.1051673  22.6452753  63.7068903
  10.0141673  23.0782753  62.4098903   9.8581673  23.1632753  63.1728903
  11.7421673  17.4202753  74.5598903  10.8941673  17.3212753  74.3818903
  11.7711673  18.1652753  75.0138903  11.6211673  17.5162753  74.6008903
   6.1101673  12.9532753  63.6658903   5.8141673  13.4542753  63.0158903
   6.9771673  13.0312753  63.6088903   6.1941673  13.0392753  63.5618903
  16.3001673  10.3802753  73.6738903  16.1421673  11.1492753  73.2918903
  15.5281673  10.1602753  74.0178903  16.1621673  10.4612753  73.6688903
   9.0891673  12.0952753  65.8888903   9.1621673  12.9552753  66.0178903
   9.0511673  12.0202753  65.0208903   9.0941673  12.2112753  65.7798903
  13.7621673  15.0212753  58.1878903  13.3121673  15.7022753  58.4948903
  13.8761673  14.5172753  58.8908903  13.7131673  15.0472753  58.3368903
   7.7181673  25.0742753  62.7698903   7.1391673  24.7992753  63.3618903
   8.3421673  24.4652753  62.7948903   7.7251673  24.9442753  62.8608903
  13.8611673  27.3622753  60.2918903  14.5881673  27.8342753  60.3938903
  14.0901673  26.5682753  60.5718903  14.0031673  27.3152753  60.3488903
  12.0291673  27.7542753  62.2818903  12.2431673  28.2812753  62.9438903
  12.7961673  27.5802753  61.9028903  12.1741673  27.8062753  62.3238903
   4.9971673  12.3372753  67.8808903   4.4761673  11.7092753  67.5728903
   5.5881673  11.9002753  68.3518903   5.0081673  12.1792753  67.9048903
   3.4231673  25.9002753  63.2208903   4.0791673  25.3252753  63.2358903
   3.8121673  26.6492753  62.9998903   3.5781673  25.9252753  63.1908903
  19.1561673  14.9942753  64.4828903  18.8101673  15.6722753  64.9088903
  18.5201673  14.3962753  64.4988903  19.0111673  15.0062753  64.5478903
  14.4681673  27.7642753  70.5868903  15.2121673  28.2202753  70.5768903
  14.3471673  27.5502753  69.7498903  14.5601673  27.8002753  70.4618903
   4.0361673  14.0672753  76.1628903   3.2581673  13.6772753  76.0908903
   4.5271673  13.6552753  75.5718903   3.9931673  13.9482753  76.0648903
   4.2411673  24.3872753  66.7208903   4.6641673  24.0312753  66.0468903
   4.5651673  23.9652753  67.4128903   4.3511673  24.2722753  66.7238903
   7.4721673  27.2392753  66.0168903   8.3161673  27.3432753  65.8218903
   7.1751673  28.0572753  66.0848903   7.5531673  27.3752753  65.9978903
  10.6851673  11.7102753  75.3308903  10.8631673  10.9012753  75.0558903
  10.5421673  12.1512753  74.5918903  10.6901673  11.6562753  75.1808903
  11.2791673  16.6362753  64.1038903  11.5661673  16.4042753  63.3138903
  12.0111673  16.7152753  64.5728903  11.4291673  16.6132753  64.0568903
  12.0011673  16.9752753  59.2248903  12.2821673  17.7632753  59.4738903
  11.2251673  17.1402753  58.8618903  11.9281673  17.1162753  59.2078903
  16.0421673  28.9492753  60.6918903  16.7071673  28.8012753  60.1468903
  16.4021673  28.8662753  61.4818903  16.1941673  28.9152753  60.7278903
   6.4701673  28.4582753  71.7568903   6.7621673  28.3912753  72.5768903
   5.8441673  27.8532753  71.7118903   6.4211673  28.3592753  71.8718903
  18.8311673  13.3172753  69.8518903  19.5881673  13.3892753  69.4238903
  18.8941673  12.5442753  70.2508903  18.9521673  13.2142753  69.8468903
  13.7221673  24.9492753  74.2908903  13.6881673  25.3312753  75.0748903
  14.5761673  24.9072753  74.1198903  13.8431673  24.9992753  74.3818903
  10.8601673  25.1462753  59.0408903  10.6791673  25.6912753  59.6978903
  11.6261673  25.4362753  58.7398903  10.9461673  25.2702753  59.0938903
  14.3671673  13.0422753  60.0948903  14.9071673  12.3602753  60.1708903
  14.4291673  13.4402753  60.8688903  14.4561673  13.0002753  60.2208903
   2.3211673  14.2102753  62.6638903   2.2071673  13.3462753  62.6948903
   1.8461673  14.5042753  63.3338903   2.2341673  14.1262753  62.7668903
   4.4631673  26.6202753  70.8788903   3.7651673  26.1122753  71.0048903
   4.7231673  26.4152753  70.0708903   4.3981673  26.5152753  70.7778903
  11.6251673  15.4182753  61.4088903  11.1171673  14.7562753  61.1548903
  11.6771673  15.9222753  60.6988903  11.5581673  15.3952753  61.2668903
  12.1741673  28.1132753  71.7888903  12.9421673  28.0332753  71.3828903
  11.5911673  27.9922753  71.1508903  12.2011673  28.0832753  71.6348903
  11.6251673  12.3592753  61.2998903  11.1701673  11.9572753  60.6738903
  12.3981673  12.5142753  60.9248903  11.6721673  12.3232753  61.1518903
  18.4511673  28.7162753  64.6898903  17.9961673  29.4332753  64.8908903
  17.8371673  28.1452753  64.4478903  18.2931673  28.7382753  64.6838903
  10.2231673  14.7262753  65.8218903  10.2971673  15.2942753  65.1638903
  10.3441673  15.2182753  66.5318903  10.2511673  14.8832753  65.8298903
  15.4481673  24.5612753  64.2338903  16.1491673  24.0792753  64.4228903
  14.7881673  23.9922753  64.2788903  15.4541673  24.4062753  64.2678903
   5.8241673  25.4712753  73.4458903   6.6651673  25.5342753  73.2238903
   5.7871673  25.8682753  74.2218903   5.9431673  25.5392753  73.5278903
   4.8311673  10.5492753  64.1698903   5.3671673  11.2372753  64.1598903
   4.8341673  10.2752753  63.3418903   4.9101673  10.6102753  64.0458903
   7.7871673  20.9822753  68.1948903   7.9591673  20.7722753  69.0238903
   7.1321673  20.4482753  67.9788903   7.7161673  20.8722753  68.2858903
  14.0151673  14.8962753  71.7098903  13.9201673  15.2152753  72.5158903
  13.4221673  14.2572753  71.6718903  13.9131673  14.8482753  71.8238903
   8.5371673  20.9202753  70.7848903   8.5901673  21.7672753  70.9868903
   8.2521673  20.5502753  71.5218903   8.5031673  20.9902753  70.9228903
  14.7141673  21.6152753  69.9148903  14.2001673  21.2032753  70.4858903
  14.5881673  22.4592753  70.0958903  14.6201673  21.6792753  70.0258903
  15.2711673  10.8402753  64.5458903  15.3201673  10.5222753  65.3568903
  15.5941673  10.1962753  64.0528903  15.3261673  10.6982753  64.5928903
  17.7351673  15.0762753  72.8538903  18.5071673  14.8512753  73.1908903
  17.2601673  15.2932753  73.5538903  17.7791673  15.0752753  73.0068903
   5.2791673  14.3592753  65.8238903   5.5511673  13.9292753  65.1158903
   5.1031673  13.7232753  66.3948903   5.2931673  14.2022753  65.8038903
  17.9671673  22.0542753  60.0418903  18.0861673  21.7672753  60.8568903
  18.7741673  22.0752753  59.7118903  18.1031673  22.0152753  60.1138903
   5.1031673  21.7862753  65.3728903   5.9541673  21.7062753  65.1998903
   4.7461673  21.1042753  64.9608903   5.1761673  21.6732753  65.2858903
   3.8701673  28.5112753  66.6098903   3.1971673  28.0132753  66.3648903
   4.2731673  28.6962753  65.8588903   3.8301673  28.4652753  66.4628903
   3.4201673  15.4612753  68.9058903   4.2631673  15.6812753  68.8628903
   3.0311673  16.0342753  68.3748903   3.4871673  15.5782753  68.8208903
  20.2011673  26.5632753  74.2958903  19.5191673  26.8732753  73.8488903
  19.8321673  26.1052753  74.9408903  20.0451673  26.5412753  74.3248903
  15.8621673  18.5912753  59.6268903  15.6421673  19.3222753  59.2048903
  15.4141673  18.6422753  60.3738903  15.7631673  18.7062753  59.6748903
   7.4711673  21.7932753  63.6078903   8.1841673  22.2882753  63.6978903
   7.6931673  21.2262753  62.9818903   7.6091673  21.7822753  63.5288903
  20.0491673  13.4522753  59.0798903  19.3871673  12.8842753  59.1028903
  19.8561673  13.9642753  58.3998903  19.9231673  13.4442753  58.9828903
  20.3721673  17.8302753  71.6358903  20.5871673  17.0302753  71.3598903
  19.5221673  17.8902753  71.4468903  20.2781673  17.7212753  71.5668903
  18.0511673  13.0102753  61.3588903  18.7971673  12.6032753  61.5578903
  18.3141673  13.7252753  60.9338903  18.2001673  13.0562753  61.3258903
  11.9941673  25.4962753  65.9348903  11.4711673  26.1302753  65.6418903
  12.3041673  25.1322753  65.2058903  11.9621673  25.5362753  65.7838903
   6.0691673  23.2842753  68.6948903   6.5361673  23.5732753  69.3728903
   6.6411673  22.8062753  68.2408903   6.2231673  23.2562753  68.7278903
  14.5051673  15.2982753  66.4318903  14.8491673  15.4502753  67.2188903
  14.0521673  14.5602753  66.5448903  14.4891673  15.2112753  66.5648903
   2.6351673  20.9542753  67.2388903   3.0661673  20.8252753  66.4918903
   2.4301673  21.8022753  67.2128903   2.6681673  21.0602753  67.1248903
   8.9811673  14.5182753  60.8888903   8.9791673  14.4012753  60.0238903
   8.8001673  15.3662753  60.9808903   8.9541673  14.6262753  60.7748903
  18.0351673  26.9452753  72.3858903  17.3641673  27.4592753  72.6038903
  18.0981673  27.0452753  71.5218903  17.9451673  27.0362753  72.2908903
   6.7191673  24.4702753  65.5208903   6.8451673  25.3132753  65.7078903
   7.3871673  24.0712753  65.9168903   6.8371673  24.5362753  65.6068903
   4.8491673  17.9532753  75.3828903   4.3131673  17.4472753  75.8508903
   4.8691673  17.5632753  74.6028903   4.7721673  17.8202753  75.3368903
   5.3341673  17.3502753  60.5228903   5.2061673  16.9022753  61.2608903
   4.7521673  17.0082753  59.9708903   5.2291673  17.2332753  60.5508903
   5.5011673  19.1802753  67.1218903   4.7201673  19.1212753  66.7388903
   5.5731673  18.4282753  67.5588903   5.3961673  19.0612753  67.1298903
   5.9311673  18.9172753  70.5898903   5.9561673  18.2422753  70.0388903
   5.2851673  19.4132753  70.2778903   5.8401673  18.8902753  70.4628903
  15.8261673  16.6302753  68.9858903  15.1641673  16.9582753  69.4488903
  16.0131673  17.2642753  68.4168903  15.7561673  16.7722753  68.9698903
  10.0311673  27.6942753  69.9818903   9.7541673  27.0532753  69.4588903
   9.8231673  28.4202753  69.5438903   9.9601673  27.7072753  69.8398903
  12.4711673  12.5362753  72.4148903  12.6201673  11.7112753  72.1718903
  12.8501673  12.5912753  73.1988903  12.5491673  12.4222753  72.4948903
  14.0191673  14.5992753  62.4968903  14.5091673  15.3162753  62.4198903
  13.2291673  14.8602753  62.2338903  13.9751673  14.7432753  62.4468903
   3.7301673  20.2722753  76.1488903   3.6931673  20.7732753  75.4348903
   4.0611673  19.5202753  75.8538903   3.7731673  20.2342753  75.9998903
  15.3331673  22.4772753  74.4068903  15.8171673  23.1952753  74.5048903
  15.7271673  22.0502753  73.7558903  15.4631673  22.5202753  74.3248903
   9.6291673  25.3222753  75.5838903   9.9831673  25.1442753  76.3608903
   9.1931673  24.5932753  75.3848903   9.6171673  25.1882753  75.6698903
  10.6011673  16.0692753  68.2218903  11.0811673  16.7682753  68.4298903
  10.9741673  15.4222753  68.6728903  10.7271673  16.0772753  68.3188903
  12.7901673  19.2382753  60.4958903  12.7821673  19.9602753  60.0058903
  12.1511673  19.3732753  61.0728903  12.6951673  19.3652753  60.5088903
  17.7621673  23.1082753  64.4768903  18.1181673  22.7582753  65.1918903
  17.7541673  22.4472753  63.9068903  17.8141673  22.9582753  64.4978903
  13.8071673  26.1742753  68.3208903  13.2041673  25.8782753  67.7638903
  14.3521673  26.6262753  67.8118903  13.7981673  26.1972753  68.1628903
  13.8201673  23.0252753  67.7208903  13.0231673  23.2492753  67.9948903
  14.0781673  22.4312753  68.3058903  13.7401673  22.9702753  67.8478903
   7.7121673  27.8372753  62.1688903   7.5651673  27.0612753  62.5398903
   8.4011673  27.6902753  61.6538903   7.7921673  27.7002753  62.1478903
   7.3831673  11.5802753  60.1568903   7.4801673  11.4732753  61.0178903
   6.6751673  12.0862753  60.0918903   7.2931673  11.6392753  60.2748903
  10.0041673  27.3532753  60.5708903  10.6261673  27.5162753  61.1608903
  10.0401673  28.0442753  60.0388903  10.1011673  27.4792753  60.5798903
  17.0801673  21.0232753  72.5668903  17.1351673  21.1482753  71.7048903
  17.8331673  21.3432753  72.8688903  17.1991673  21.0882753  72.4838903
  18.1121673  11.3212753  75.5538903  17.4751673  10.9212753  75.1118903
  18.1381673  10.8902753  76.3118903  18.0221673  11.1992753  75.5998903
   4.5051673  19.8872753  61.3998903   4.8291673  19.1082753  61.1778903
   5.1511673  20.2552753  61.8548903   4.6481673  19.8262753  61.4338903
  12.8111673  20.8292753  72.1668903  12.6561673  21.4392753  72.7708903
  13.3451673  20.2712753  72.5728903  12.8671673  20.8372753  72.3158903
  11.1951673  19.2292753  62.8248903  11.2541673  19.8792753  63.4038903
  11.0061673  18.5332753  63.3158903  11.1761673  19.2222753  62.9828903
  16.4211673  23.5582753  68.6938903  15.9421673  23.8562753  68.0278903
  16.0651673  22.7822753  68.8718903  16.2981673  23.4872753  68.6218903
   5.6911673  13.7462753  59.3368903   5.1801673  13.7992753  58.6308903
   6.4751673  13.9862753  59.0408903   5.7311673  13.7892753  59.1888903
  10.4181673  21.2762753  67.2558903   9.5711673  21.0822753  67.3368903
  10.7421673  21.1112753  68.0488903  10.3401673  21.2232753  67.3848903
   7.1701673  28.0062753  58.1418903   7.6091673  27.3092753  58.4298903
   7.3771673  28.6302753  58.7148903   7.2661673  27.9952753  58.2688903
   4.2661673  20.9692753  69.5718903   4.9881673  21.4572753  69.5348903
   3.9961673  20.9392753  68.7428903   4.3331673  21.0372753  69.4438903
   7.4961673  16.1402753  66.3068903   8.3421673  15.9502753  66.4048903
   7.1261673  15.3632753  66.1688903   7.5661673  15.9972753  66.3008903
  20.1131673  27.7242753  60.6338903  20.8071673  27.2572753  60.3858903
  19.5741673  27.1262753  60.9708903  20.1361673  27.5662753  60.6468903
   2.3171673  17.4782753  62.9618903   2.8061673  17.1862753  63.6228903
   2.4461673  16.8852753  62.3348903   2.4081673  17.3472753  62.9668903
  17.3521673  20.5002753  69.8128903  17.3451673  19.7242753  70.2108903
  16.5111673  20.7342753  69.8058903  17.2271673  20.4202753  69.8708903
   6.8421673  18.9122753  58.4478903   6.2321673  18.5072753  58.9218903
   6.4561673  19.0302753  57.6748903   6.6951673  18.8692753  58.4038903
   3.6611673  22.0212753  73.8498903   3.2401673  21.5032753  73.2888903
   3.3091673  22.8072753  73.7068903   3.5471673  22.0612753  73.7458903
  18.6081673  20.5712753  67.2498903  18.3221673  20.9722753  67.9698903
  19.4681673  20.5092753  67.3768903  18.6931673  20.6212753  67.3748903
   8.2971673  17.3732753  61.1578903   8.5691673  18.1992753  61.2248903
   7.4341673  17.4482753  61.0618903   8.2101673  17.5062753  61.1528903
  16.2701673  14.4952753  75.7898903  15.7451673  14.9542753  76.3138903
  15.9091673  13.7002753  75.7838903  16.1391673  14.4452753  75.8658903
   1.7771673  13.3432753  67.6938903   1.8211673  13.6872753  66.8928903
   2.5321673  13.5802753  68.0608903   1.8951673  13.4292753  67.6298903
  19.7391673  26.2042753  67.7788903  20.0291673  26.4612753  66.9978903
  20.4341673  26.3002753  68.2978903  19.8851673  26.2562753  67.7398903
  14.7621673  18.0642753  75.8658903  14.8351673  18.1682753  76.7288903
  14.1281673  18.6222753  75.6448903  14.6791673  18.1622753  75.9608903
  17.0301673  18.3832753  74.2308903  17.3491673  19.1692753  74.4338903
  16.6601673  18.1132753  74.9738903  17.0231673  18.4592753  74.3708903
  16.3441673  24.8072753  59.7608903  16.6781673  24.0012753  59.7958903
  15.5891673  24.7352753  60.1908903  16.2821673  24.6772753  59.8298903
  16.8261673  16.6412753  65.4198903  16.0811673  16.3182753  65.7378903
  16.8281673  17.4672753  65.6998903  16.7161673  16.7152753  65.5078903
  19.2661673  22.6012753  73.1718903  19.8941673  22.0522753  72.9158903
  19.2051673  23.1662753  72.5098903  19.3501673  22.6042753  73.0358903
  13.7181673  22.6822753  59.1638903  14.4021673  22.1682753  58.9948903
  13.3011673  22.7282753  58.3988903  13.7571673  22.6132753  59.0258903
   8.4001673  23.8322753  70.4678903   8.1021673  24.4242753  71.0348903
   8.4551673  24.2742753  69.7188903   8.3641673  23.9852753  70.4408903
   6.3791673  22.7822753  73.8658903   5.5731673  22.4922753  74.0328903
   6.2901673  23.6502753  73.8718903   6.2471673  22.8672753  73.8908903
  15.7381673  12.9712753  72.8808903  16.4821673  13.4232753  72.8178903
  15.1721673  13.4412753  72.4118903  15.7651673  13.1082753  72.8028903
  10.9161673  20.2552753  69.9588903  11.3921673  20.6292753  70.5868903
  10.0931673  20.3892753  70.2178903  10.8651673  20.3302753  70.0898903
   7.6261673  15.8582753  72.6998903   7.7871673  15.1142753  73.1268903
   7.5811673  15.6092753  71.8648903   7.6431673  15.7112753  72.6398903
  10.1801673  27.6482753  65.1868903  10.7261673  28.3272753  65.2408903
   9.8301673  27.7302753  64.3918903  10.2091673  27.7612753  65.0768903
  17.0231673  10.9512753  70.5508903  16.7431673  11.7762753  70.5068903
  17.7391673  11.0042753  71.0468903  17.0881673  11.0812753  70.6178903
   9.3781673  11.6662753  72.5798903  10.0831673  11.9862753  72.1778903
   9.6191673  10.8592753  72.8068903   9.5171673  11.5942753  72.5538903
   8.3631673  25.8762753  68.5758903   7.7391673  26.4582753  68.3938903
   8.6111673  25.5902753  67.7898903   8.3071673  25.9202753  68.4328903
  12.6721673  22.5102753  75.5648903  13.4291673  22.7962753  75.2388903
  12.1251673  22.5622753  74.8868903  12.7031673  22.5602753  75.4158903
  16.5811673  25.0602753  74.0688903  16.9271673  25.3302753  74.8228903
  16.8751673  25.6422753  73.4888903  16.6761673  25.1862753  74.0948903
  18.4441673  17.2062753  59.4078903  18.8221673  17.8832753  59.0078903
  17.6021673  17.4302753  59.4388903  18.3751673  17.3392753  59.3528903
   9.9571673  20.6522753  58.4908903   9.1521673  20.4752753  58.2058903
   9.9241673  21.5032753  58.6828903   9.8331673  20.7512753  58.4778903
   5.8871673  16.7192753  68.6408903   6.3271673  16.6162753  67.8948903
   6.4321673  16.4062753  69.2458903   6.0321673  16.6582753  68.6198903
  13.9031673  15.8212753  74.2328903  13.2551673  16.2912753  74.5808903
  14.4681673  15.7322753  74.8918903  13.8911673  15.8772753  74.3818903
  13.5911673  17.3582753  70.5308903  13.8931673  17.7782753  71.2338903
  13.6271673  16.5182753  70.7628903  13.6411673  17.2962753  70.6688903
  11.0161673  27.5252753  74.4558903  11.4941673  26.9252753  74.0398903
  10.6651673  27.0822753  75.1208903  11.0351673  27.3712753  74.4928903
  16.1391673  16.8052753  62.7828903  16.3461673  16.6042753  63.6068903
  16.8951673  17.0732753  62.4408903  16.2811673  16.8152753  62.8538903
   9.4341673  11.7042753  68.6878903   8.6081673  11.5552753  68.9248903
   9.3941673  11.7392753  67.8168903   9.3061673  11.6872753  68.5938903
  17.1611673  12.8882753  64.2568903  16.4471673  12.4172753  64.4278903
  16.9991673  13.2292753  63.4708903  17.0321673  12.8692753  64.1658903
  17.6041673  20.8322753  62.6368903  18.0801673  20.1032753  62.5888903
  16.7831673  20.5462753  62.5608903  17.5531673  20.6822753  62.6178903
  11.0751673  22.7442753  73.4758903  10.2801673  22.6802753  73.8268903
  11.1461673  23.5912753  73.2808903  10.9681673  22.8592753  73.4988903
   6.9051673  28.9512753  68.7928903   6.9161673  29.0102753  69.6628903
   6.4801673  28.2042753  68.6428903   6.8441673  28.8492753  68.8988903
   5.0631673  14.8462753  61.9478903   5.1891673  14.5172753  61.1498903
   4.2511673  14.5972753  62.1468903   4.9621673  14.7612753  61.8598903
  13.8201673  21.9992753  64.9918903  13.8961673  22.3402753  65.7908903
  13.9891673  21.1522753  65.1128903  13.8561673  21.9242753  65.1278903
  11.3421673  21.2732753  64.5568903  11.0441673  20.9582753  65.3138903
  12.0371673  21.7462753  64.7918903  11.4011673  21.2962753  64.7038903
  11.5641673  25.3912753  72.5838903  12.2511673  25.2772753  73.1088903
  11.6981673  26.1822753  72.2398903  11.6851673  25.4912753  72.6108903
  19.7401673  18.0002753  74.3948903  18.8851673  17.8782753  74.5208903
  19.8931673  17.6052753  73.6318903  19.6361673  17.9232753  74.3008903
  14.2531673  18.6652753  72.9708903  13.9981673  17.9462753  73.3928903
  15.0741673  18.7812753  73.2408903  14.3371673  18.5762753  73.0728903
   3.6691673  28.4492753  74.2348903   3.0151673  27.8802753  74.3328903
   3.2941673  29.2222753  74.3858903   3.5171673  28.4792753  74.2718903
  12.1871673  19.8552753  76.1578903  12.5101673  20.5412753  75.7258903
  11.4831673  20.1782753  76.5598903  12.1301673  20.0042753  76.1528903
  15.2711673  28.2292753  67.0868903  14.8201673  28.8722753  67.4658903
  15.9791673  28.1502753  67.5918903  15.3091673  28.3122753  67.2178903
  11.9721673  23.3192753  70.0168903  11.2781673  23.7212753  70.3598903
  12.6491673  23.7522753  70.3558903  11.9691673  23.4422753  70.1178903
   5.0401673  16.8572753  72.3638903   5.4151673  17.4762753  71.8768903
   5.7141673  16.3832753  72.6488903   5.1951673  16.8792753  72.3338903
   2.8151673  15.3052753  71.6388903   2.8921673  15.1362753  70.7858903
   3.5611673  15.7112753  71.8358903   2.9361673  15.3402753  71.5418903
  18.3741673  17.9452753  62.0788903  18.4771673  17.8872753  61.2148903
  19.1151673  17.6132753  62.3968903  18.4991673  17.8882753  61.9978903
   5.3691673  12.7152753  74.0498903   5.2881673  11.8712753  74.2558903
   5.0551673  12.7592753  73.2368903   5.3111673  12.5972753  73.9598903
  12.2941673  24.9102753  63.1858903  12.0891673  25.7432753  63.0268903
  11.5191673  24.5282753  63.3078903  12.1491673  24.9772753  63.1808903
  17.4761673  18.0912753  71.4348903  17.4741673  17.2282753  71.5588903
  17.5431673  18.4152753  72.2418903  17.4861673  18.0112753  71.5718903
   2.2121673  20.5312753  71.8628903   2.5321673  20.7502753  71.0818903
   2.1121673  19.6662753  71.8078903   2.2441673  20.4362753  71.7398903
   3.6681673  16.4672753  58.4808903   2.9961673  16.4812753  59.0368903
   3.7631673  15.6192753  58.2968903   3.5831673  16.3442753  58.5358903
  13.3551673  12.8912753  75.2168903  13.4471673  13.6032753  75.7108903
  12.7181673  12.4462753  75.6138903  13.2741673  12.9302753  75.3488903
  12.3491673  13.0812753  66.0708903  11.6491673  13.5992753  66.0148903
  12.3871673  12.7012753  65.2868903  12.2511673  13.1022753  65.9468903
   7.6561673  25.1722753  59.5948903   8.0971673  25.2522753  60.3428903
   6.8511673  24.9562753  59.8528903   7.6021673  25.1522753  59.7438903
  15.9471673  13.5972753  68.8708903  16.8021673  13.6962753  69.0158903
  15.5781673  14.1502753  69.4358903  16.0191673  13.6942753  68.9758903
   6.9751673  19.8232753  73.2478903   6.5791673  20.5972753  73.3228903
   6.5691673  19.4502753  72.5718903   6.8571673  19.8822753  73.1588903
  16.2511673  18.8772753  67.3618903  16.9171673  19.4182753  67.5218903
  15.9061673  19.1882753  66.6228903  16.2981673  19.0032753  67.2768903
  16.5641673  26.9432753  63.1688903  16.3901673  26.2892753  63.7188903
  17.2771673  26.6722753  62.7458903  16.6441673  26.8062753  63.1878903
   4.9851673  24.2422753  60.1958903   4.7411673  23.9352753  60.9758903
   4.9521673  23.5392753  59.6798903   4.9441673  24.0932753  60.2348903
   7.8041673  22.4872753  58.9388903   6.9861673  22.2192753  59.0788903
   7.7761673  23.3392753  59.1238903   7.6791673  22.5742753  58.9868903
   7.4041673  12.8002753  70.6978903   6.5401673  12.8842753  70.7778903
   7.6241673  12.2862753  71.3668903   7.3091673  12.7372753  70.8088903
  19.4221673  11.4352753  72.0268903  19.3701673  11.3912753  72.8968903
  20.1091673  10.9322753  71.8368903  19.5161673  11.3552753  72.1268903
  11.5071673  13.5482753  69.0718903  10.7701673  13.0942753  69.1848903
  12.0781673  13.1462753  69.5948903  11.4821673  13.4212753  69.1658903
  14.2391673  24.3962753  70.8598903  14.4451673  24.6972753  71.6518903
  14.1781673  25.1182753  70.3748903  14.2601673  24.5472753  70.9048903
  13.7731673  28.6102753  75.1058903  13.0201673  28.5922753  74.6648903
  13.9411673  29.4622753  75.1898903  13.6871673  28.7332753  75.0528903
   9.0101673  17.8772753  74.2758903   8.6881673  17.3012753  73.7058903
   8.6511673  18.6322753  74.0298903   8.9101673  17.9032753  74.1558903
   9.8061673  11.1292753  58.9028903   9.8841673  11.3762753  58.0698903
   9.0631673  11.5062753  59.1608903   9.7081673  11.2212753  58.8178903
  19.0511673  23.0352753  70.3178903  19.0191673  22.1732753  70.1828903
  18.3581673  23.3372753  69.8838903  18.9441673  22.9522753  70.2338903
   7.4451673  28.2332753  74.5238903   7.4861673  28.3592753  75.3868903
   8.0961673  27.6732753  74.3678903   7.5471673  28.1692753  74.6288903
  17.1561673  26.2952753  69.1148903  17.6831673  26.2122753  68.4238903
  16.7651673  25.5172753  69.1688903  17.1761673  26.1682753  69.0208903
   4.6241673  12.8832753  71.3458903   4.2811673  12.1162753  71.1118903
   3.9291673  13.4072753  71.4098903   4.4711673  12.8472753  71.3208903
  13.6701673  11.7392753  68.3228903  14.3401673  12.2832753  68.4498903
  13.1671673  12.1632753  67.7498903  13.6951673  11.8822753  68.2568903
   5.0381673  26.6162753  75.8838903   5.6331673  27.0472753  76.3558903
   4.6741673  27.2402753  75.3948903   5.0721673  26.7722753  75.8808903
  13.0291673  17.5472753  65.8158903  13.5801673  16.9402753  66.1158903
  12.6041673  17.8102753  66.5308903  13.0481673  17.4962753  65.9648903
   3.2771673  16.1972753  65.3018903   2.9091673  16.4992753  66.0328903
   3.8111673  15.5682753  65.5858903   3.3011673  16.1492753  65.4518903
   2.9651673  24.6052753  72.8128903   2.3911673  25.0212753  73.3218903
   3.6981673  25.0702753  72.9078903   2.9891673  24.7352753  72.9018903
  14.9991673  19.3782753  62.3778903  15.0671673  18.5282753  62.5588903
  14.1761673  19.4642753  62.0998903  14.8871673  19.2652753  62.3638903
   4.7511673  27.8722753  61.5878903   4.6061673  28.0282753  60.7418903
   5.6171673  27.9512753  61.6658903   4.8581673  27.9072753  61.4748903
   8.9181673  20.2692753  61.3158903   9.0181673  20.4082753  60.4608903
   9.7361673  20.2092753  61.6118903   9.0531673  20.2802753  61.2328903
  18.0781673  28.3332753  58.7958903  18.7151673  28.1992753  59.3768903
  17.7371673  27.5392753  58.6788903  18.1221673  28.1962753  58.8638903
  18.2731673  20.7512753  75.5288903  18.9071673  20.5812753  76.1028903
  18.6901673  21.1542753  74.8768903  18.4281673  20.7862753  75.5178903
  14.1531673  24.5982753  61.1178903  13.9021673  24.4702753  61.9438903
  13.8361673  23.9032753  60.6968903  14.0691673  24.4772753  61.1778903
  18.8981673  15.3152753  76.2668903  18.7021673  15.9592753  76.8218903
  18.1761673  14.8252753  76.2588903  18.7631673  15.3382753  76.3478903
  18.7971673  16.2562753  69.2378903  17.9641673  16.5062753  69.1658903
  18.7411673  15.4162753  69.4668903  18.6661673  16.1692753  69.2608903
   8.0571673  13.2442753  74.4318903   8.2911673  12.6682753  73.8188903
   7.2151673  13.0632753  74.5728903   7.9671673  13.1322753  74.3618903
  15.6841673  20.8622753  76.8838903  16.5551673  20.8262753  76.8478903
  15.4651673  21.2822753  76.1518903  15.7811673  20.9182753  76.7708903
   5.4381673  26.6872753  68.0648903   5.3591673  25.8772753  67.7488903
   4.9941673  27.1742753  67.4928903   5.3611673  26.6392753  67.9338903
  11.0391673  22.8062753  60.5478903  11.7561673  22.4592753  60.1918903
  11.0051673  23.6062753  60.1998903  11.1401673  22.8732753  60.4438903
   3.0101673  28.9312753  71.6458903   3.5031673  28.8752753  72.3638903
   3.1981673  28.1982753  71.2108903   3.1111673  28.8142753  71.6878903
  12.4481673  11.4472753  44.7866493  12.2031673  11.9352753  44.1066493
  13.3111673  11.3742753  44.6866493  12.5391673  11.5082753  44.6716493
  12.2571673  18.3632753  49.4576493  11.7331673  18.9592753  49.8206493
  12.6541673  17.9952753  50.1416493  12.2381673  18.3972753  49.6126493
  18.4011673  25.8042753  42.4286493  19.1021673  25.2852753  42.4246493
  17.8141673  25.3592753  41.9596493  18.4181673  25.6612753  42.3586493
   5.0081673  21.5582753  40.0926493   4.6161673  21.1872753  39.4066493
   4.9281673  20.9602753  40.7216493   4.9381673  21.4152753  40.0836493
  14.9281673  19.4302753  46.1336493  15.0081673  19.4342753  45.2646493
  14.3441673  18.7982753  46.2826493  14.8531673  19.3372753  46.0276493
   4.6351673  23.1992753  43.9926493   5.2431673  23.0292753  44.5956493
   3.8841673  23.0592753  44.4136493   4.6141673  23.1532753  44.1436493
   8.9171673  12.5342753  43.9416493   8.8471673  13.2112753  43.3956493
   9.6581673  12.1462753  43.6926493   9.0161673  12.5772753  43.8236493
   3.5261673  26.2902753  40.0696493   3.9931673  26.3742753  39.3376493
   3.9811673  25.7122753  40.5386493   3.6621673  26.2172753  40.0306493
   8.6401673  22.7632753  56.2356493   8.4041673  22.7602753  57.0756493
   7.8921673  22.6152753  55.8116493   8.4941673  22.7402753  56.2966493
   3.5121673  19.7592753  45.3706493   3.0501673  19.3672753  44.7436493
   4.2121673  19.2462753  45.4626493   3.5471673  19.6262753  45.2916493
   8.0201673  15.3692753  50.7176493   8.6981673  15.3872753  50.1686493
   7.9751673  14.5332753  50.9626493   8.1131673  15.2482753  50.6726493
   8.6221673  25.9552753  53.4986493   8.7601673  26.7152753  53.0916493
   9.4131673  25.5902753  53.5256493   8.7591673  26.0142753  53.4426493
   5.5131673  17.8592753  45.3936493   6.3301673  17.6722753  45.6366493
   5.0361673  17.2452753  45.7896493   5.5631673  17.7412753  45.4886493
   9.7171673  23.8402753  48.0036493  10.0651673  23.0412753  48.0336493
  10.3821673  24.3442753  47.7486493   9.8671673  23.7962753  47.9706493
   9.7741673  23.2892753  44.2146493  10.1051673  22.6452753  44.7006493
  10.0141673  23.0782753  43.4036493   9.8581673  23.1632753  44.1666493
  11.7421673  17.4202753  55.5536493  10.8941673  17.3212753  55.3756493
  11.7711673  18.1652753  56.0076493  11.6211673  17.5162753  55.5946493
   6.1101673  12.9532753  44.6596493   5.8141673  13.4542753  44.0096493
   6.9771673  13.0312753  44.6026493   6.1941673  13.0392753  44.5556493
  16.3001673  10.3802753  54.6676493  16.1421673  11.1492753  54.2856493
  15.5281673  10.1602753  55.0116493  16.1621673  10.4612753  54.6626493
   9.0891673  12.0952753  46.8826493   9.1621673  12.9552753  47.0116493
   9.0511673  12.0202753  46.0146493   9.0941673  12.2112753  46.7736493
  13.7621673  15.0212753  39.1816493  13.3121673  15.7022753  39.4886493
  13.8761673  14.5172753  39.8846493  13.7131673  15.0472753  39.3306493
   7.7181673  25.0742753  43.7636493   7.1391673  24.7992753  44.3556493
   8.3421673  24.4652753  43.7886493   7.7251673  24.9442753  43.8546493
  13.8611673  27.3622753  41.2856493  14.5881673  27.8342753  41.3876493
  14.0901673  26.5682753  41.5656493  14.0031673  27.3152753  41.3426493
  12.0291673  27.7542753  43.2756493  12.2431673  28.2812753  43.9376493
  12.7961673  27.5802753  42.8966493  12.1741673  27.8062753  43.3176493
   4.9971673  12.3372753  48.8746493   4.4761673  11.7092753  48.5666493
   5.5881673  11.9002753  49.3456493   5.0081673  12.1792753  48.8986493
   8.3031673  14.4702753  58.1726493   8.4201673  14.0162753  57.4366493
   8.5911673  15.2682753  57.9696493   8.3631673  14.5212753  58.0336493
   3.4231673  25.9002753  44.2146493   4.0791673  25.3252753  44.2296493
   3.8121673  26.6492753  43.9936493   3.5781673  25.9252753  44.1846493
  19.1561673  14.9942753  45.4766493  18.8101673  15.6722753  45.9026493
  18.5201673  14.3962753  45.4926493  19.0111673  15.0062753  45.5416493
  14.4681673  27.7642753  51.5806493  15.2121673  28.2202753  51.5706493
  14.3471673  27.5502753  50.7436493  14.5601673  27.8002753  51.4556493
   4.0361673  14.0672753  57.1566493   3.2581673  13.6772753  57.0846493
   4.5271673  13.6552753  56.5656493   3.9931673  13.9482753  57.0586493
   4.2411673  24.3872753  47.7146493   4.6641673  24.0312753  47.0406493
   4.5651673  23.9652753  48.4066493   4.3511673  24.2722753  47.7176493
   7.4721673  27.2392753  47.0106493   8.3161673  27.3432753  46.8156493
   7.1751673  28.0572753  47.0786493   7.5531673  27.3752753  46.9916493
  10.6851673  11.7102753  56.3246493  10.8631673  10.9012753  56.0496493
  10.5421673  12.1512753  55.5856493  10.6901673  11.6562753  56.1746493
  11.2791673  16.6362753  45.0976493  11.5661673  16.4042753  44.3076493
  12.0111673  16.7152753  45.5666493  11.4291673  16.6132753  45.0506493
  12.0011673  16.9752753  40.2186493  12.2821673  17.7632753  40.4676493
  11.2251673  17.1402753  39.8556493  11.9281673  17.1162753  40.2016493
  16.0421673  28.9492753  41.6856493  16.7071673  28.8012753  41.1406493
  16.4021673  28.8662753  42.4756493  16.1941673  28.9152753  41.7216493
   6.4701673  28.4582753  52.7506493   6.7621673  28.3912753  53.5706493
   5.8441673  27.8532753  52.7056493   6.4211673  28.3592753  52.8656493
  18.8311673  13.3172753  50.8456493  19.5881673  13.3892753  50.4176493
  18.8941673  12.5442753  51.2446493  18.9521673  13.2142753  50.8406493
  13.7221673  24.9492753  55.2846493  13.6881673  25.3312753  56.0686493
  14.5761673  24.9072753  55.1136493  13.8431673  24.9992753  55.3756493
  10.8601673  25.1462753  40.0346493  10.6791673  25.6912753  40.6916493
  11.6261673  25.4362753  39.7336493  10.9461673  25.2702753  40.0876493
  14.3671673  13.0422753  41.0886493  14.9071673  12.3602753  41.1646493
  14.4291673  13.4402753  41.8626493  14.4561673  13.0002753  41.2146493
   2.3211673  14.2102753  43.6576493   2.2071673  13.3462753  43.6886493
   1.8461673  14.5042753  44.3276493   2.2341673  14.1262753  43.7606493
   4.4631673  26.6202753  51.8726493   3.7651673  26.1122753  51.9986493
   4.7231673  26.4152753  51.0646493   4.3981673  26.5152753  51.7716493
  11.6251673  15.4182753  42.4026493  11.1171673  14.7562753  42.1486493
  11.6771673  15.9222753  41.6926493  11.5581673  15.3952753  42.2606493
  12.1741673  28.1132753  52.7826493  12.9421673  28.0332753  52.3766493
  11.5911673  27.9922753  52.1446493  12.2011673  28.0832753  52.6286493
  11.6251673  12.3592753  42.2936493  11.1701673  11.9572753  41.6676493
  12.3981673  12.5142753  41.9186493  11.6721673  12.3232753  42.1456493
  18.4511673  28.7162753  45.6836493  17.9961673  29.4332753  45.8846493
  17.8371673  28.1452753  45.4416493  18.2931673  28.7382753  45.6776493
  10.2231673  14.7262753  46.8156493  10.2971673  15.2942753  46.1576493
  10.3441673  15.2182753  47.5256493  10.2511673  14.8832753  46.8236493
  15.4481673  24.5612753  45.2276493  16.1491673  24.0792753  45.4166493
  14.7881673  23.9922753  45.2726493  15.4541673  24.4062753  45.2616493
   5.8241673  25.4712753  54.4396493   6.6651673  25.5342753  54.2176493
   5.7871673  25.8682753  55.2156493   5.9431673  25.5392753  54.5216493
   4.8311673  10.5492753  45.1636493   5.3671673  11.2372753  45.1536493
   4.8341673  10.2752753  44.3356493   4.9101673  10.6102753  45.0396493
   7.7871673  20.9822753  49.1886493   7.9591673  20.7722753  50.0176493
   7.1321673  20.4482753  48.9726493   7.7161673  20.8722753  49.2796493
  14.0151673  14.8962753  52.7036493  13.9201673  15.2152753  53.5096493
  13.4221673  14.2572753  52.6656493  13.9131673  14.8482753  52.8176493
   8.5371673  20.9202753  51.7786493   8.5901673  21.7672753  51.9806493
   8.2521673  20.5502753  52.5156493   8.5031673  20.9902753  51.9166493
  14.7141673  21.6152753  50.9086493  14.2001673  21.2032753  51.4796493
  14.5881673  22.4592753  51.0896493  14.6201673  21.6792753  51.0196493
  15.2711673  10.8402753  45.5396493  15.3201673  10.5222753  46.3506493
  15.5941673  10.1962753  45.0466493  15.3261673  10.6982753  45.5866493
  17.7351673  15.0762753  53.8476493  18.5071673  14.8512753  54.1846493
  17.2601673  15.2932753  54.5476493  17.7791673  15.0752753  54.0006493
   5.2791673  14.3592753  46.8176493   5.5511673  13.9292753  46.1096493
   5.1031673  13.7232753  47.3886493   5.2931673  14.2022753  46.7976493
  17.9671673  22.0542753  41.0356493  18.0861673  21.7672753  41.8506493
  18.7741673  22.0752753  40.7056493  18.1031673  22.0152753  41.1076493
   5.1031673  21.7862753  46.3666493   5.9541673  21.7062753  46.1936493
   4.7461673  21.1042753  45.9546493   5.1761673  21.6732753  46.2796493
   3.8701673  28.5112753  47.6036493   3.1971673  28.0132753  47.3586493
   4.2731673  28.6962753  46.8526493   3.8301673  28.4652753  47.4566493
   3.4201673  15.4612753  49.8996493   4.2631673  15.6812753  49.8566493
   3.0311673  16.0342753  49.3686493   3.4871673  15.5782753  49.8146493
  20.2011673  26.5632753  55.2896493  19.5191673  26.8732753  54.8426493
  19.8321673  26.1052753  55.9346493  20.0451673  26.5412753  55.3186493
  15.8621673  18.5912753  40.6206493  15.6421673  19.3222753  40.1986493
  15.4141673  18.6422753  41.3676493  15.7631673  18.7062753  40.6686493
   7.4711673  21.7932753  44.6016493   8.1841673  22.2882753  44.6916493
   7.6931673  21.2262753  43.9756493   7.6091673  21.7822753  44.5226493
  20.0491673  13.4522753  40.0736493  19.3871673  12.8842753  40.0966493
  19.8561673  13.9642753  39.3936493  19.9231673  13.4442753  39.9766493
   9.2741673  17.1462753  58.0176493   8.7901673  17.7232753  58.4596493
   9.2461673  17.4412753  57.1966493   9.1981673  17.2752753  57.9616493
  20.3721673  17.8302753  52.6296493  20.5871673  17.0302753  52.3536493
  19.5221673  17.8902753  52.4406493  20.2781673  17.7212753  52.5606493
  18.0511673  13.0102753  42.3526493  18.7971673  12.6032753  42.5516493
  18.3141673  13.7252753  41.9276493  18.2001673  13.0562753  42.3196493
  11.9941673  25.4962753  46.9286493  11.4711673  26.1302753  46.6356493
  12.3041673  25.1322753  46.1996493  11.9621673  25.5362753  46.7776493
   6.0691673  23.2842753  49.6886493   6.5361673  23.5732753  50.3666493
   6.6411673  22.8062753  49.2346493   6.2231673  23.2562753  49.7216493
  14.5051673  15.2982753  47.4256493  14.8491673  15.4502753  48.2126493
  14.0521673  14.5602753  47.5386493  14.4891673  15.2112753  47.5586493
   2.6351673  20.9542753  48.2326493   3.0661673  20.8252753  47.4856493
   2.4301673  21.8022753  48.2066493   2.6681673  21.0602753  48.1186493
   8.9811673  14.5182753  41.8826493   8.9791673  14.4012753  41.0176493
   8.8001673  15.3662753  41.9746493   8.9541673  14.6262753  41.7686493
  18.0351673  26.9452753  53.3796493  17.3641673  27.4592753  53.5976493
  18.0981673  27.0452753  52.5156493  17.9451673  27.0362753  53.2846493
   6.7191673  24.4702753  46.5146493   6.8451673  25.3132753  46.7016493
   7.3871673  24.0712753  46.9106493   6.8371673  24.5362753  46.6006493
   4.8491673  17.9532753  56.3766493   4.3131673  17.4472753  56.8446493
   4.8691673  17.5632753  55.5966493   4.7721673  17.8202753  56.3306493
   5.3341673  17.3502753  41.5166493   5.2061673  16.9022753  42.2546493
   4.7521673  17.0082753  40.9646493   5.2291673  17.2332753  41.5446493
   5.5011673  19.1802753  48.1156493   4.7201673  19.1212753  47.7326493
   5.5731673  18.4282753  48.5526493   5.3961673  19.0612753  48.1236493
   5.9311673  18.9172753  51.5836493   5.9561673  18.2422753  51.0326493
   5.2851673  19.4132753  51.2716493   5.8401673  18.8902753  51.4566493
  15.8261673  16.6302753  49.9796493  15.1641673  16.9582753  50.4426493
  16.0131673  17.2642753  49.4106493  15.7561673  16.7722753  49.9636493
  10.0311673  27.6942753  50.9756493   9.7541673  27.0532753  50.4526493
   9.8231673  28.4202753  50.5376493   9.9601673  27.7072753  50.8336493
  12.4711673  12.5362753  53.4086493  12.6201673  11.7112753  53.1656493
  12.8501673  12.5912753  54.1926493  12.5491673  12.4222753  53.4886493
  14.0191673  14.5992753  43.4906493  14.5091673  15.3162753  43.4136493
  13.2291673  14.8602753  43.2276493  13.9751673  14.7432753  43.4406493
   3.7301673  20.2722753  57.1426493   3.6931673  20.7732753  56.4286493
   4.0611673  19.5202753  56.8476493   3.7731673  20.2342753  56.9936493
  15.3331673  22.4772753  55.4006493  15.8171673  23.1952753  55.4986493
  15.7271673  22.0502753  54.7496493  15.4631673  22.5202753  55.3186493
   9.6291673  25.3222753  56.5776493   9.9831673  25.1442753  57.3546493
   9.1931673  24.5932753  56.3786493   9.6171673  25.1882753  56.6636493
  10.6011673  16.0692753  49.2156493  11.0811673  16.7682753  49.4236493
  10.9741673  15.4222753  49.6666493  10.7271673  16.0772753  49.3126493
  12.7901673  19.2382753  41.4896493  12.7821673  19.9602753  40.9996493
  12.1511673  19.3732753  42.0666493  12.6951673  19.3652753  41.5026493
  17.7621673  23.1082753  45.4706493  18.1181673  22.7582753  46.1856493
  17.7541673  22.4472753  44.9006493  17.8141673  22.9582753  45.4916493
  13.8071673  26.1742753  49.3146493  13.2041673  25.8782753  48.7576493
  14.3521673  26.6262753  48.8056493  13.7981673  26.1972753  49.1566493
  13.8201673  23.0252753  48.7146493  13.0231673  23.2492753  48.9886493
  14.0781673  22.4312753  49.2996493  13.7401673  22.9702753  48.8416493
   7.7121673  27.8372753  43.1626493   7.5651673  27.0612753  43.5336493
   8.4011673  27.6902753  42.6476493   7.7921673  27.7002753  43.1416493
   7.3831673  11.5802753  41.1506493   7.4801673  11.4732753  42.0116493
   6.6751673  12.0862753  41.0856493   7.2931673  11.6392753  41.2686493
  10.0041673  27.3532753  41.5646493  10.6261673  27.5162753  42.1546493
  10.0401673  28.0442753  41.0326493  10.1011673  27.4792753  41.5736493
  17.0801673  21.0232753  53.5606493  17.1351673  21.1482753  52.6986493
  17.8331673  21.3432753  53.8626493  17.1991673  21.0882753  53.4776493
  13.2711673  26.3722753  57.8376493  13.4351673  26.6552753  58.6466493
  13.5341673  27.0332753  57.3326493  13.3341673  26.5122753  57.8826493
  18.1121673  11.3212753  56.5476493  17.4751673  10.9212753  56.1056493
  18.1381673  10.8902753  57.3056493  18.0221673  11.1992753  56.5936493
   4.5051673  19.8872753  42.3936493   4.8291673  19.1082753  42.1716493
   5.1511673  20.2552753  42.8486493   4.6481673  19.8262753  42.4276493
  12.8111673  20.8292753  53.1606493  12.6561673  21.4392753  53.7646493
  13.3451673  20.2712753  53.5666493  12.8671673  20.8372753  53.3096493
  11.1951673  19.2292753  43.8186493  11.2541673  19.8792753  44.3976493
  11.0061673  18.5332753  44.3096493  11.1761673  19.2222753  43.9766493
  16.4211673  23.5582753  49.6876493  15.9421673  23.8562753  49.0216493
  16.0651673  22.7822753  49.8656493  16.2981673  23.4872753  49.6156493
   5.6911673  13.7462753  40.3306493   5.1801673  13.7992753  39.6246493
   6.4751673  13.9862753  40.0346493   5.7311673  13.7892753  40.1826493
  10.4181673  21.2762753  48.2496493   9.5711673  21.0822753  48.3306493
  10.7421673  21.1112753  49.0426493  10.3401673  21.2232753  48.3786493
   7.1701673  28.0062753  39.1356493   7.6091673  27.3092753  39.4236493
   7.3771673  28.6302753  39.7086493   7.2661673  27.9952753  39.2626493
   4.2661673  20.9692753  50.5656493   4.9881673  21.4572753  50.5286493
   3.9961673  20.9392753  49.7366493   4.3331673  21.0372753  50.4376493
   7.4961673  16.1402753  47.3006493   8.3421673  15.9502753  47.3986493
   7.1261673  15.3632753  47.1626493   7.5661673  15.9972753  47.2946493
  20.1131673  27.7242753  41.6276493  20.8071673  27.2572753  41.3796493
  19.5741673  27.1262753  41.9646493  20.1361673  27.5662753  41.6406493
   2.3171673  17.4782753  43.9556493   2.8061673  17.1862753  44.6166493
   2.4461673  16.8852753  43.3286493   2.4081673  17.3472753  43.9606493
  17.3521673  20.5002753  50.8066493  17.3451673  19.7242753  51.2046493
  16.5111673  20.7342753  50.7996493  17.2271673  20.4202753  50.8646493
   6.8421673  18.9122753  39.4416493   6.2321673  18.5072753  39.9156493
   6.4561673  19.0302753  38.6686493   6.6951673  18.8692753  39.3976493
   3.6611673  22.0212753  54.8436493   3.2401673  21.5032753  54.2826493
   3.3091673  22.8072753  54.7006493   3.5471673  22.0612753  54.7396493
  18.6081673  20.5712753  48.2436493  18.3221673  20.9722753  48.9636493
  19.4681673  20.5092753  48.3706493  18.6931673  20.6212753  48.3686493
   8.2971673  17.3732753  42.1516493   8.5691673  18.1992753  42.2186493
   7.4341673  17.4482753  42.0556493   8.2101673  17.5062753  42.1466493
  16.2701673  14.4952753  56.7836493  15.7451673  14.9542753  57.3076493
  15.9091673  13.7002753  56.7776493  16.1391673  14.4452753  56.8596493
   1.7771673  13.3432753  48.6876493   1.8211673  13.6872753  47.8866493
   2.5321673  13.5802753  49.0546493   1.8951673  13.4292753  48.6236493
  19.7391673  26.2042753  48.7726493  20.0291673  26.4612753  47.9916493
  20.4341673  26.3002753  49.2916493  19.8851673  26.2562753  48.7336493
  14.7621673  18.0642753  56.8596493  14.8351673  18.1682753  57.7226493
  14.1281673  18.6222753  56.6386493  14.6791673  18.1622753  56.9546493
  17.0301673  18.3832753  55.2246493  17.3491673  19.1692753  55.4276493
  16.6601673  18.1132753  55.9676493  17.0231673  18.4592753  55.3646493
  16.3441673  24.8072753  40.7546493  16.6781673  24.0012753  40.7896493
  15.5891673  24.7352753  41.1846493  16.2821673  24.6772753  40.8236493
  16.8261673  16.6412753  46.4136493  16.0811673  16.3182753  46.7316493
  16.8281673  17.4672753  46.6936493  16.7161673  16.7152753  46.5016493
  19.7281673  18.9252753  57.9596493  19.6761673  18.5842753  57.1586493
  20.4651673  19.3922753  57.9376493  19.8291673  18.9442753  57.8376493
  19.2661673  22.6012753  54.1656493  19.8941673  22.0522753  53.9096493
  19.2051673  23.1662753  53.5036493  19.3501673  22.6042753  54.0296493
  13.7181673  22.6822753  40.1576493  14.4021673  22.1682753  39.9886493
  13.3011673  22.7282753  39.3926493  13.7571673  22.6132753  40.0196493
   8.4001673  23.8322753  51.4616493   8.1021673  24.4242753  52.0286493
   8.4551673  24.2742753  50.7126493   8.3641673  23.9852753  51.4346493
   6.3791673  22.7822753  54.8596493   5.5731673  22.4922753  55.0266493
   6.2901673  23.6502753  54.8656493   6.2471673  22.8672753  54.8846493
  15.7381673  12.9712753  53.8746493  16.4821673  13.4232753  53.8116493
  15.1721673  13.4412753  53.4056493  15.7651673  13.1082753  53.7966493
  10.9161673  20.2552753  50.9526493  11.3921673  20.6292753  51.5806493
  10.0931673  20.3892753  51.2116493  10.8651673  20.3302753  51.0836493
   7.6261673  15.8582753  53.6936493   7.7871673  15.1142753  54.1206493
   7.5811673  15.6092753  52.8586493   7.6431673  15.7112753  53.6336493
  10.1801673  27.6482753  46.1806493  10.7261673  28.3272753  46.2346493
   9.8301673  27.7302753  45.3856493  10.2091673  27.7612753  46.0706493
  17.0231673  10.9512753  51.5446493  16.7431673  11.7762753  51.5006493
  17.7391673  11.0042753  52.0406493  17.0881673  11.0812753  51.6116493
   9.3781673  11.6662753  53.5736493  10.0831673  11.9862753  53.1716493
   9.6191673  10.8592753  53.8006493   9.5171673  11.5942753  53.5476493
   8.3631673  25.8762753  49.5696493   7.7391673  26.4582753  49.3876493
   8.6111673  25.5902753  48.7836493   8.3071673  25.9202753  49.4266493
  12.6721673  22.5102753  56.5586493  13.4291673  22.7962753  56.2326493
  12.1251673  22.5622753  55.8806493  12.7031673  22.5602753  56.4096493
  16.5811673  25.0602753  55.0626493  16.9271673  25.3302753  55.8166493
  16.8751673  25.6422753  54.4826493  16.6761673  25.1862753  55.0886493
  18.4441673  17.2062753  40.4016493  18.8221673  17.8832753  40.0016493
  17.6021673  17.4302753  40.4326493  18.3751673  17.3392753  40.3466493
   9.9571673  20.6522753  39.4846493   9.1521673  20.4752753  39.1996493
   9.9241673  21.5032753  39.6766493   9.8331673  20.7512753  39.4716493
   5.8871673  16.7192753  49.6346493   6.3271673  16.6162753  48.8886493
   6.4321673  16.4062753  50.2396493   6.0321673  16.6582753  49.6136493
  13.9031673  15.8212753  55.2266493  13.2551673  16.2912753  55.5746493
  14.4681673  15.7322753  55.8856493  13.8911673  15.8772753  55.3756493
  13.5911673  17.3582753  51.5246493  13.8931673  17.7782753  52.2276493
  13.6271673  16.5182753  51.7566493  13.6411673  17.2962753  51.6626493
  11.0161673  27.5252753  55.4496493  11.4941673  26.9252753  55.0336493
  10.6651673  27.0822753  56.1146493  11.0351673  27.3712753  55.4866493
  16.1391673  16.8052753  43.7766493  16.3461673  16.6042753  44.6006493
  16.8951673  17.0732753  43.4346493  16.2811673  16.8152753  43.8476493
   9.4341673  11.7042753  49.6816493   8.6081673  11.5552753  49.9186493
   9.3941673  11.7392753  48.8106493   9.3061673  11.6872753  49.5876493
  17.1611673  12.8882753  45.2506493  16.4471673  12.4172753  45.4216493
  16.9991673  13.2292753  44.4646493  17.0321673  12.8692753  45.1596493
  17.6041673  20.8322753  43.6306493  18.0801673  20.1032753  43.5826493
  16.7831673  20.5462753  43.5546493  17.5531673  20.6822753  43.6116493
  11.0751673  22.7442753  54.4696493  10.2801673  22.6802753  54.8206493
  11.1461673  23.5912753  54.2746493  10.9681673  22.8592753  54.4926493
   6.9051673  28.9512753  49.7866493   6.9161673  29.0102753  50.6566493
   6.4801673  28.2042753  49.6366493   6.8441673  28.8492753  49.8926493
   5.0631673  14.8462753  42.9416493   5.1891673  14.5172753  42.1436493
   4.2511673  14.5972753  43.1406493   4.9621673  14.7612753  42.8536493
  13.8201673  21.9992753  45.9856493  13.8961673  22.3402753  46.7846493
  13.9891673  21.1522753  46.1066493  13.8561673  21.9242753  46.1216493
  11.3421673  21.2732753  45.5506493  11.0441673  20.9582753  46.3076493
  12.0371673  21.7462753  45.7856493  11.4011673  21.2962753  45.6976493
  11.5641673  25.3912753  53.5776493  12.2511673  25.2772753  54.1026493
  11.6981673  26.1822753  53.2336493  11.6851673  25.4912753  53.6046493
  19.7401673  18.0002753  55.3886493  18.8851673  17.8782753  55.5146493
  19.8931673  17.6052753  54.6256493  19.6361673  17.9232753  55.2946493
  14.2531673  18.6652753  53.9646493  13.9981673  17.9462753  54.3866493
  15.0741673  18.7812753  54.2346493  14.3371673  18.5762753  54.0666493
   3.6691673  28.4492753  55.2286493   3.0151673  27.8802753  55.3266493
   3.2941673  29.2222753  55.3796493   3.5171673  28.4792753  55.2656493
  12.1871673  19.8552753  57.1516493  12.5101673  20.5412753  56.7196493
  11.4831673  20.1782753  57.5536493  12.1301673  20.0042753  57.1466493
  15.2711673  28.2292753  48.0806493  14.8201673  28.8722753  48.4596493
  15.9791673  28.1502753  48.5856493  15.3091673  28.3122753  48.2116493
  11.9721673  23.3192753  51.0106493  11.2781673  23.7212753  51.3536493
  12.6491673  23.7522753  51.3496493  11.9691673  23.4422753  51.1116493
  17.3491673  25.9122753  57.5906493  18.1251673  25.5222753  57.6736493
  16.8801673  25.5762753  58.2456493  17.3941673  25.8052753  57.6996493
   5.0401673  16.8572753  53.3576493   5.4151673  17.4762753  52.8706493
   5.7141673  16.3832753  53.6426493   5.1951673  16.8792753  53.3276493
   2.8151673  15.3052753  52.6326493   2.8921673  15.1362753  51.7796493
   3.5611673  15.7112753  52.8296493   2.9361673  15.3402753  52.5356493
  18.3741673  17.9452753  43.0726493  18.4771673  17.8872753  42.2086493
  19.1151673  17.6132753  43.3906493  18.4991673  17.8882753  42.9916493
   5.3691673  12.7152753  55.0436493   5.2881673  11.8712753  55.2496493
   5.0551673  12.7592753  54.2306493   5.3111673  12.5972753  54.9536493
  12.2941673  24.9102753  44.1796493  12.0891673  25.7432753  44.0206493
  11.5191673  24.5282753  44.3016493  12.1491673  24.9772753  44.1746493
  17.4761673  18.0912753  52.4286493  17.4741673  17.2282753  52.5526493
  17.5431673  18.4152753  53.2356493  17.4861673  18.0112753  52.5656493
   2.2121673  20.5312753  52.8566493   2.5321673  20.7502753  52.0756493
   2.1121673  19.6662753  52.8016493   2.2441673  20.4362753  52.7336493
   3.6681673  16.4672753  39.4746493   2.9961673  16.4812753  40.0306493
   3.7631673  15.6192753  39.2906493   3.5831673  16.3442753  39.5296493
  13.3551673  12.8912753  56.2106493  13.4471673  13.6032753  56.7046493
  12.7181673  12.4462753  56.6076493  13.2741673  12.9302753  56.3426493
  12.3491673  13.0812753  47.0646493  11.6491673  13.5992753  47.0086493
  12.3871673  12.7012753  46.2806493  12.2511673  13.1022753  46.9406493
   7.6561673  25.1722753  40.5886493   8.0971673  25.2522753  41.3366493
   6.8511673  24.9562753  40.8466493   7.6021673  25.1522753  40.7376493
  15.9471673  13.5972753  49.8646493  16.8021673  13.6962753  50.0096493
  15.5781673  14.1502753  50.4296493  16.0191673  13.6942753  49.9696493
   6.9751673  19.8232753  54.2416493   6.5791673  20.5972753  54.3166493
   6.5691673  19.4502753  53.5656493   6.8571673  19.8822753  54.1526493
  16.2511673  18.8772753  48.3556493  16.9171673  19.4182753  48.5156493
  15.9061673  19.1882753  47.6166493  16.2981673  19.0032753  48.2706493
  16.5641673  26.9432753  44.1626493  16.3901673  26.2892753  44.7126493
  17.2771673  26.6722753  43.7396493  16.6441673  26.8062753  44.1816493
   4.9851673  24.2422753  41.1896493   4.7411673  23.9352753  41.9696493
   4.9521673  23.5392753  40.6736493   4.9441673  24.0932753  41.2286493
   7.8041673  22.4872753  39.9326493   6.9861673  22.2192753  40.0726493
   7.7761673  23.3392753  40.1176493   7.6791673  22.5742753  39.9806493
   7.4041673  12.8002753  51.6916493   6.5401673  12.8842753  51.7716493
   7.6241673  12.2862753  52.3606493   7.3091673  12.7372753  51.8026493
  19.4221673  11.4352753  53.0206493  19.3701673  11.3912753  53.8906493
  20.1091673  10.9322753  52.8306493  19.5161673  11.3552753  53.1206493
  11.5071673  13.5482753  50.0656493  10.7701673  13.0942753  50.1786493
  12.0781673  13.1462753  50.5886493  11.4821673  13.4212753  50.1596493
  14.2391673  24.3962753  51.8536493  14.4451673  24.6972753  52.6456493
  14.1781673  25.1182753  51.3686493  14.2601673  24.5472753  51.8986493
  13.7731673  28.6102753  56.0996493  13.0201673  28.5922753  55.6586493
  13.9411673  29.4622753  56.1836493  13.6871673  28.7332753  56.0466493
   9.0101673  17.8772753  55.2696493   8.6881673  17.3012753  54.6996493
   8.6511673  18.6322753  55.0236493   8.9101673  17.9032753  55.1496493
   9.8061673  11.1292753  39.8966493   9.8841673  11.3762753  39.0636493
   9.0631673  11.5062753  40.1546493   9.7081673  11.2212753  39.8116493
  19.0511673  23.0352753  51.3116493  19.0191673  22.1732753  51.1766493
  18.3581673  23.3372753  50.8776493  18.9441673  22.9522753  51.2276493
   7.4451673  28.2332753  55.5176493   7.4861673  28.3592753  56.3806493
   8.0961673  27.6732753  55.3616493   7.5471673  28.1692753  55.6226493
  17.1561673  26.2952753  50.1086493  17.6831673  26.2122753  49.4176493
  16.7651673  25.5172753  50.1626493  17.1761673  26.1682753  50.0146493
   4.6241673  12.8832753  52.3396493   4.2811673  12.1162753  52.1056493
   3.9291673  13.4072753  52.4036493   4.4711673  12.8472753  52.3146493
  13.6701673  11.7392753  49.3166493  14.3401673  12.2832753  49.4436493
  13.1671673  12.1632753  48.7436493  13.6951673  11.8822753  49.2506493
   5.0381673  26.6162753  56.8776493   5.6331673  27.0472753  57.3496493
   4.6741673  27.2402753  56.3886493   5.0721673  26.7722753  56.8746493
  13.0291673  17.5472753  46.8096493  13.5801673  16.9402753  47.1096493
  12.6041673  17.8102753  47.5246493  13.0481673  17.4962753  46.9586493
   3.2771673  16.1972753  46.2956493   2.9091673  16.4992753  47.0266493
   3.8111673  15.5682753  46.5796493   3.3011673  16.1492753  46.4456493
   2.9651673  24.6052753  53.8066493   2.3911673  25.0212753  54.3156493
   3.6981673  25.0702753  53.9016493   2.9891673  24.7352753  53.8956493
  14.9991673  19.3782753  43.3716493  15.0671673  18.5282753  43.5526493
  14.1761673  19.4642753  43.0936493  14.8871673  19.2652753  43.3576493
   4.7511673  27.8722753  42.5816493   4.6061673  28.0282753  41.7356493
   5.6171673  27.9512753  42.6596493   4.8581673  27.9072753  42.4686493
   8.9181673  20.2692753  42.3096493   9.0181673  20.4082753  41.4546493
   9.7361673  20.2092753  42.6056493   9.0531673  20.2802753  42.2266493
  18.0781673  28.3332753  39.7896493  18.7151673  28.1992753  40.3706493
  17.7371673  27.5392753  39.6726493  18.1221673  28.1962753  39.8576493
  18.2731673  20.7512753  56.5226493  18.9071673  20.5812753  57.0966493
  18.6901673  21.1542753  55.8706493  18.4281673  20.7862753  56.5116493
  14.1531673  24.5982753  42.1116493  13.9021673  24.4702753  42.9376493
  13.8361673  23.9032753  41.6906493  14.0691673  24.4772753  42.1716493
  18.8981673  15.3152753  57.2606493  18.7021673  15.9592753  57.8156493
  18.1761673  14.8252753  57.2526493  18.7631673  15.3382753  57.3416493
  18.7971673  16.2562753  50.2316493  17.9641673  16.5062753  50.1596493
  18.7411673  15.4162753  50.4606493  18.6661673  16.1692753  50.2546493
   8.0571673  13.2442753  55.4256493   8.2911673  12.6682753  54.8126493
   7.2151673  13.0632753  55.5666493   7.9671673  13.1322753  55.3556493
  15.6841673  20.8622753  57.8776493  16.5551673  20.8262753  57.8416493
  15.4651673  21.2822753  57.1456493  15.7811673  20.9182753  57.7646493
   5.4381673  26.6872753  49.0586493   5.3591673  25.8772753  48.7426493
   4.9941673  27.1742753  48.4866493   5.3611673  26.6392753  48.9276493
  11.0391673  22.8062753  41.5416493  11.7561673  22.4592753  41.1856493
  11.0051673  23.6062753  41.1936493  11.1401673  22.8732753  41.4376493
   3.0101673  28.9312753  52.6396493   3.5031673  28.8752753  53.3576493
   3.1981673  28.1982753  52.2046493   3.1111673  28.8142753  52.6816493
  12.4481673  11.4472753  25.7804083  12.2031673  11.9352753  25.1004083
  13.3111673  11.3742753  25.6804083  12.5391673  11.5082753  25.6654083
  12.2571673  18.3632753  30.4514083  11.7331673  18.9592753  30.8144083
  12.6541673  17.9952753  31.1354083  12.2381673  18.3972753  30.6064083
  18.4011673  25.8042753  23.4224083  19.1021673  25.2852753  23.4184083
  17.8141673  25.3592753  22.9534083  18.4181673  25.6612753  23.3524083
   5.0081673  21.5582753  21.0864083   4.6161673  21.1872753  20.4004083
   4.9281673  20.9602753  21.7154083   4.9381673  21.4152753  21.0774083
  14.9281673  19.4302753  27.1274083  15.0081673  19.4342753  26.2584083
  14.3441673  18.7982753  27.2764083  14.8531673  19.3372753  27.0214083
   4.6351673  23.1992753  24.9864083   5.2431673  23.0292753  25.5894083
   3.8841673  23.0592753  25.4074083   4.6141673  23.1532753  25.1374083
   8.9171673  12.5342753  24.9354083   8.8471673  13.2112753  24.3894083
   9.6581673  12.1462753  24.6864083   9.0161673  12.5772753  24.8174083
   3.5261673  26.2902753  21.0634083   3.9931673  26.3742753  20.3314083
   3.9811673  25.7122753  21.5324083   3.6621673  26.2172753  21.0244083
   8.6401673  22.7632753  37.2294083   8.4041673  22.7602753  38.0694083
   7.8921673  22.6152753  36.8054083   8.4941673  22.7402753  37.2904083
   3.5121673  19.7592753  26.3644083   3.0501673  19.3672753  25.7374083
   4.2121673  19.2462753  26.4564083   3.5471673  19.6262753  26.2854083
   8.0201673  15.3692753  31.7114083   8.6981673  15.3872753  31.1624083
   7.9751673  14.5332753  31.9564083   8.1131673  15.2482753  31.6664083
   8.6221673  25.9552753  34.4924083   8.7601673  26.7152753  34.0854083
   9.4131673  25.5902753  34.5194083   8.7591673  26.0142753  34.4364083
   5.5131673  17.8592753  26.3874083   6.3301673  17.6722753  26.6304083
   5.0361673  17.2452753  26.7834083   5.5631673  17.7412753  26.4824083
   9.7171673  23.8402753  28.9974083  10.0651673  23.0412753  29.0274083
  10.3821673  24.3442753  28.7424083   9.8671673  23.7962753  28.9644083
   9.7741673  23.2892753  25.2084083  10.1051673  22.6452753  25.6944083
  10.0141673  23.0782753  24.3974083   9.8581673  23.1632753  25.1604083
  11.7421673  17.4202753  36.5474083  10.8941673  17.3212753  36.3694083
  11.7711673  18.1652753  37.0014083  11.6211673  17.5162753  36.5884083
   6.1101673  12.9532753  25.6534083   5.8141673  13.4542753  25.0034083
   6.9771673  13.0312753  25.5964083   6.1941673  13.0392753  25.5494083
  16.3001673  10.3802753  35.6614083  16.1421673  11.1492753  35.2794083
  15.5281673  10.1602753  36.0054083  16.1621673  10.4612753  35.6564083
   9.0891673  12.0952753  27.8764083   9.1621673  12.9552753  28.0054083
   9.0511673  12.0202753  27.0084083   9.0941673  12.2112753  27.7674083
  13.7621673  15.0212753  20.1754083  13.3121673  15.7022753  20.4824083
  13.8761673  14.5172753  20.8784083  13.7131673  15.0472753  20.3244083
   7.7181673  25.0742753  24.7574083   7.1391673  24.7992753  25.3494083
   8.3421673  24.4652753  24.7824083   7.7251673  24.9442753  24.8484083
  13.8611673  27.3622753  22.2794083  14.5881673  27.8342753  22.3814083
  14.0901673  26.5682753  22.5594083  14.0031673  27.3152753  22.3364083
  12.0291673  27.7542753  24.2694083  12.2431673  28.2812753  24.9314083
  12.7961673  27.5802753  23.8904083  12.1741673  27.8062753  24.3114083
   4.9971673  12.3372753  29.8684083   4.4761673  11.7092753  29.5604083
   5.5881673  11.9002753  30.3394083   5.0081673  12.1792753  29.8924083
   8.3031673  14.4702753  39.1664083   8.4201673  14.0162753  38.4304083
   8.5911673  15.2682753  38.9634083   8.3631673  14.5212753  39.0274083
   3.4231673  25.9002753  25.2084083   4.0791673  25.3252753  25.2234083
   3.8121673  26.6492753  24.9874083   3.5781673  25.9252753  25.1784083
  19.1561673  14.9942753  26.4704083  18.8101673  15.6722753  26.8964083
  18.5201673  14.3962753  26.4864083  19.0111673  15.0062753  26.5354083
  14.4681673  27.7642753  32.5744083  15.2121673  28.2202753  32.5644083
  14.3471673  27.5502753  31.7374083  14.5601673  27.8002753  32.4494083
   4.0361673  14.0672753  38.1504083   3.2581673  13.6772753  38.0784083
   4.5271673  13.6552753  37.5594083   3.9931673  13.9482753  38.0524083
   4.2411673  24.3872753  28.7084083   4.6641673  24.0312753  28.0344083
   4.5651673  23.9652753  29.4004083   4.3511673  24.2722753  28.7114083
   7.4721673  27.2392753  28.0044083   8.3161673  27.3432753  27.8094083
   7.1751673  28.0572753  28.0724083   7.5531673  27.3752753  27.9854083
  10.6851673  11.7102753  37.3184083  10.8631673  10.9012753  37.0434083
  10.5421673  12.1512753  36.5794083  10.6901673  11.6562753  37.1684083
  11.2791673  16.6362753  26.0914083  11.5661673  16.4042753  25.3014083
  12.0111673  16.7152753  26.5604083  11.4291673  16.6132753  26.0444083
  12.0011673  16.9752753  21.2124083  12.2821673  17.7632753  21.4614083
  11.2251673  17.1402753  20.8494083  11.9281673  17.1162753  21.1954083
  16.0421673  28.9492753  22.6794083  16.7071673  28.8012753  22.1344083
  16.4021673  28.8662753  23.4694083  16.1941673  28.9152753  22.7154083
   6.4701673  28.4582753  33.7444083   6.7621673  28.3912753  34.5644083
   5.8441673  27.8532753  33.6994083   6.4211673  28.3592753  33.8594083
  18.8311673  13.3172753  31.8394083  19.5881673  13.3892753  31.4114083
  18.8941673  12.5442753  32.2384083  18.9521673  13.2142753  31.8344083
  13.7221673  24.9492753  36.2784083  13.6881673  25.3312753  37.0624083
  14.5761673  24.9072753  36.1074083  13.8431673  24.9992753  36.3694083
  10.8601673  25.1462753  21.0284083  10.6791673  25.6912753  21.6854083
  11.6261673  25.4362753  20.7274083  10.9461673  25.2702753  21.0814083
  14.3671673  13.0422753  22.0824083  14.9071673  12.3602753  22.1584083
  14.4291673  13.4402753  22.8564083  14.4561673  13.0002753  22.2084083
   2.3211673  14.2102753  24.6514083   2.2071673  13.3462753  24.6824083
   1.8461673  14.5042753  25.3214083   2.2341673  14.1262753  24.7544083
   4.4631673  26.6202753  32.8664083   3.7651673  26.1122753  32.9924083
   4.7231673  26.4152753  32.0584083   4.3981673  26.5152753  32.7654083
  11.6251673  15.4182753  23.3964083  11.1171673  14.7562753  23.1424083
  11.6771673  15.9222753  22.6864083  11.5581673  15.3952753  23.2544083
  12.1741673  28.1132753  33.7764083  12.9421673  28.0332753  33.3704083
  11.5911673  27.9922753  33.1384083  12.2011673  28.0832753  33.6224083
  11.6251673  12.3592753  23.2874083  11.1701673  11.9572753  22.6614083
  12.3981673  12.5142753  22.9124083  11.6721673  12.3232753  23.1394083
  18.4511673  28.7162753  26.6774083  17.9961673  29.4332753  26.8784083
  17.8371673  28.1452753  26.4354083  18.2931673  28.7382753  26.6714083
  10.2231673  14.7262753  27.8094083  10.2971673  15.2942753  27.1514083
  10.3441673  15.2182753  28.5194083  10.2511673  14.8832753  27.8174083
  15.4481673  24.5612753  26.2214083  16.1491673  24.0792753  26.4104083
  14.7881673  23.9922753  26.2664083  15.4541673  24.4062753  26.2554083
   5.8241673  25.4712753  35.4334083   6.6651673  25.5342753  35.2114083
   5.7871673  25.8682753  36.2094083   5.9431673  25.5392753  35.5154083
   4.8311673  10.5492753  26.1574083   5.3671673  11.2372753  26.1474083
   4.8341673  10.2752753  25.3294083   4.9101673  10.6102753  26.0334083
   7.7871673  20.9822753  30.1824083   7.9591673  20.7722753  31.0114083
   7.1321673  20.4482753  29.9664083   7.7161673  20.8722753  30.2734083
  14.0151673  14.8962753  33.6974083  13.9201673  15.2152753  34.5034083
  13.4221673  14.2572753  33.6594083  13.9131673  14.8482753  33.8114083
   8.5371673  20.9202753  32.7724083   8.5901673  21.7672753  32.9744083
   8.2521673  20.5502753  33.5094083   8.5031673  20.9902753  32.9104083
  14.7141673  21.6152753  31.9024083  14.2001673  21.2032753  32.4734083
  14.5881673  22.4592753  32.0834083  14.6201673  21.6792753  32.0134083
  15.2711673  10.8402753  26.5334083  15.3201673  10.5222753  27.3444083
  15.5941673  10.1962753  26.0404083  15.3261673  10.6982753  26.5804083
  17.7351673  15.0762753  34.8414083  18.5071673  14.8512753  35.1784083
  17.2601673  15.2932753  35.5414083  17.7791673  15.0752753  34.9944083
   5.2791673  14.3592753  27.8114083   5.5511673  13.9292753  27.1034083
   5.1031673  13.7232753  28.3824083   5.2931673  14.2022753  27.7914083
  17.9671673  22.0542753  22.0294083  18.0861673  21.7672753  22.8444083
  18.7741673  22.0752753  21.6994083  18.1031673  22.0152753  22.1014083
   5.1031673  21.7862753  27.3604083   5.9541673  21.7062753  27.1874083
   4.7461673  21.1042753  26.9484083   5.1761673  21.6732753  27.2734083
   3.8701673  28.5112753  28.5974083   3.1971673  28.0132753  28.3524083
   4.2731673  28.6962753  27.8464083   3.8301673  28.4652753  28.4504083
   3.4201673  15.4612753  30.8934083   4.2631673  15.6812753  30.8504083
   3.0311673  16.0342753  30.3624083   3.4871673  15.5782753  30.8084083
  20.2011673  26.5632753  36.2834083  19.5191673  26.8732753  35.8364083
  19.8321673  26.1052753  36.9284083  20.0451673  26.5412753  36.3124083
  15.8621673  18.5912753  21.6144083  15.6421673  19.3222753  21.1924083
  15.4141673  18.6422753  22.3614083  15.7631673  18.7062753  21.6624083
   7.4711673  21.7932753  25.5954083   8.1841673  22.2882753  25.6854083
   7.6931673  21.2262753  24.9694083   7.6091673  21.7822753  25.5164083
  20.0491673  13.4522753  21.0674083  19.3871673  12.8842753  21.0904083
  19.8561673  13.9642753  20.3874083  19.9231673  13.4442753  20.9704083
   9.2741673  17.1462753  39.0114083   8.7901673  17.7232753  39.4534083
   9.2461673  17.4412753  38.1904083   9.1981673  17.2752753  38.9554083
  20.3721673  17.8302753  33.6234083  20.5871673  17.0302753  33.3474083
  19.5221673  17.8902753  33.4344083  20.2781673  17.7212753  33.5544083
  18.0511673  13.0102753  23.3464083  18.7971673  12.6032753  23.5454083
  18.3141673  13.7252753  22.9214083  18.2001673  13.0562753  23.3134083
  11.9941673  25.4962753  27.9224083  11.4711673  26.1302753  27.6294083
  12.3041673  25.1322753  27.1934083  11.9621673  25.5362753  27.7714083
   6.0691673  23.2842753  30.6824083   6.5361673  23.5732753  31.3604083
   6.6411673  22.8062753  30.2284083   6.2231673  23.2562753  30.7154083
  14.5051673  15.2982753  28.4194083  14.8491673  15.4502753  29.2064083
  14.0521673  14.5602753  28.5324083  14.4891673  15.2112753  28.5524083
   2.6351673  20.9542753  29.2264083   3.0661673  20.8252753  28.4794083
   2.4301673  21.8022753  29.2004083   2.6681673  21.0602753  29.1124083
   8.9811673  14.5182753  22.8764083   8.9791673  14.4012753  22.0114083
   8.8001673  15.3662753  22.9684083   8.9541673  14.6262753  22.7624083
  18.0351673  26.9452753  34.3734083  17.3641673  27.4592753  34.5914083
  18.0981673  27.0452753  33.5094083  17.9451673  27.0362753  34.2784083
   6.7191673  24.4702753  27.5084083   6.8451673  25.3132753  27.6954083
   7.3871673  24.0712753  27.9044083   6.8371673  24.5362753  27.5944083
   4.8491673  17.9532753  37.3704083   4.3131673  17.4472753  37.8384083
   4.8691673  17.5632753  36.5904083   4.7721673  17.8202753  37.3244083
   5.3341673  17.3502753  22.5104083   5.2061673  16.9022753  23.2484083
   4.7521673  17.0082753  21.9584083   5.2291673  17.2332753  22.5384083
   5.5011673  19.1802753  29.1094083   4.7201673  19.1212753  28.7264083
   5.5731673  18.4282753  29.5464083   5.3961673  19.0612753  29.1174083
   5.9311673  18.9172753  32.5774083   5.9561673  18.2422753  32.0264083
   5.2851673  19.4132753  32.2654083   5.8401673  18.8902753  32.4504083
  15.8261673  16.6302753  30.9734083  15.1641673  16.9582753  31.4364083
  16.0131673  17.2642753  30.4044083  15.7561673  16.7722753  30.9574083
  10.0311673  27.6942753  31.9694083   9.7541673  27.0532753  31.4464083
   9.8231673  28.4202753  31.5314083   9.9601673  27.7072753  31.8274083
  12.4711673  12.5362753  34.4024083  12.6201673  11.7112753  34.1594083
  12.8501673  12.5912753  35.1864083  12.5491673  12.4222753  34.4824083
  14.0191673  14.5992753  24.4844083  14.5091673  15.3162753  24.4074083
  13.2291673  14.8602753  24.2214083  13.9751673  14.7432753  24.4344083
   3.7301673  20.2722753  38.1364083   3.6931673  20.7732753  37.4224083
   4.0611673  19.5202753  37.8414083   3.7731673  20.2342753  37.9874083
  15.3331673  22.4772753  36.3944083  15.8171673  23.1952753  36.4924083
  15.7271673  22.0502753  35.7434083  15.4631673  22.5202753  36.3124083
   9.6291673  25.3222753  37.5714083   9.9831673  25.1442753  38.3484083
   9.1931673  24.5932753  37.3724083   9.6171673  25.1882753  37.6574083
  10.6011673  16.0692753  30.2094083  11.0811673  16.7682753  30.4174083
  10.9741673  15.4222753  30.6604083  10.7271673  16.0772753  30.3064083
  12.7901673  19.2382753  22.4834083  12.7821673  19.9602753  21.9934083
  12.1511673  19.3732753  23.0604083  12.6951673  19.3652753  22.4964083
  17.7621673  23.1082753  26.4644083  18.1181673  22.7582753  27.1794083
  17.7541673  22.4472753  25.8944083  17.8141673  22.9582753  26.4854083
  13.8071673  26.1742753  30.3084083  13.2041673  25.8782753  29.7514083
  14.3521673  26.6262753  29.7994083  13.7981673  26.1972753  30.1504083
  13.8201673  23.0252753  29.7084083  13.0231673  23.2492753  29.9824083
  14.0781673  22.4312753  30.2934083  13.7401673  22.9702753  29.8354083
   7.7121673  27.8372753  24.1564083   7.5651673  27.0612753  24.5274083
   8.4011673  27.6902753  23.6414083   7.7921673  27.7002753  24.1354083
   7.3831673  11.5802753  22.1444083   7.4801673  11.4732753  23.0054083
   6.6751673  12.0862753  22.0794083   7.2931673  11.6392753  22.2624083
  10.0041673  27.3532753  22.5584083  10.6261673  27.5162753  23.1484083
  10.0401673  28.0442753  22.0264083  10.1011673  27.4792753  22.5674083
  17.0801673  21.0232753  34.5544083  17.1351673  21.1482753  33.6924083
  17.8331673  21.3432753  34.8564083  17.1991673  21.0882753  34.4714083
  13.2711673  26.3722753  38.8314083  13.4351673  26.6552753  39.6404083
  13.5341673  27.0332753  38.3264083  13.3341673  26.5122753  38.8764083
  18.1121673  11.3212753  37.5414083  17.4751673  10.9212753  37.0994083
  18.1381673  10.8902753  38.2994083  18.0221673  11.1992753  37.5874083
   4.5051673  19.8872753  23.3874083   4.8291673  19.1082753  23.1654083
   5.1511673  20.2552753  23.8424083   4.6481673  19.8262753  23.4214083
  12.8111673  20.8292753  34.1544083  12.6561673  21.4392753  34.7584083
  13.3451673  20.2712753  34.5604083  12.8671673  20.8372753  34.3034083
  11.1951673  19.2292753  24.8124083  11.2541673  19.8792753  25.3914083
  11.0061673  18.5332753  25.3034083  11.1761673  19.2222753  24.9704083
  16.4211673  23.5582753  30.6814083  15.9421673  23.8562753  30.0154083
  16.0651673  22.7822753  30.8594083  16.2981673  23.4872753  30.6094083
   5.6911673  13.7462753  21.3244083   5.1801673  13.7992753  20.6184083
   6.4751673  13.9862753  21.0284083   5.7311673  13.7892753  21.1764083
  10.4181673  21.2762753  29.2434083   9.5711673  21.0822753  29.3244083
  10.7421673  21.1112753  30.0364083  10.3401673  21.2232753  29.3724083
   7.1701673  28.0062753  20.1294083   7.6091673  27.3092753  20.4174083
   7.3771673  28.6302753  20.7024083   7.2661673  27.9952753  20.2564083
   4.2661673  20.9692753  31.5594083   4.9881673  21.4572753  31.5224083
   3.9961673  20.9392753  30.7304083   4.3331673  21.0372753  31.4314083
   7.4961673  16.1402753  28.2944083   8.3421673  15.9502753  28.3924083
   7.1261673  15.3632753  28.1564083   7.5661673  15.9972753  28.2884083
  20.1131673  27.7242753  22.6214083  20.8071673  27.2572753  22.3734083
  19.5741673  27.1262753  22.9584083  20.1361673  27.5662753  22.6344083
   2.3171673  17.4782753  24.9494083   2.8061673  17.1862753  25.6104083
   2.4461673  16.8852753  24.3224083   2.4081673  17.3472753  24.9544083
  17.3521673  20.5002753  31.8004083  17.3451673  19.7242753  32.1984083
  16.5111673  20.7342753  31.7934083  17.2271673  20.4202753  31.8584083
   6.8421673  18.9122753  20.4354083   6.2321673  18.5072753  20.9094083
   6.4561673  19.0302753  19.6624083   6.6951673  18.8692753  20.3914083
   3.6611673  22.0212753  35.8374083   3.2401673  21.5032753  35.2764083
   3.3091673  22.8072753  35.6944083   3.5471673  22.0612753  35.7334083
  18.6081673  20.5712753  29.2374083  18.3221673  20.9722753  29.9574083
  19.4681673  20.5092753  29.3644083  18.6931673  20.6212753  29.3624083
   8.2971673  17.3732753  23.1454083   8.5691673  18.1992753  23.2124083
   7.4341673  17.4482753  23.0494083   8.2101673  17.5062753  23.1404083
  16.2701673  14.4952753  37.7774083  15.7451673  14.9542753  38.3014083
  15.9091673  13.7002753  37.7714083  16.1391673  14.4452753  37.8534083
   1.7771673  13.3432753  29.6814083   1.8211673  13.6872753  28.8804083
   2.5321673  13.5802753  30.0484083   1.8951673  13.4292753  29.6174083
  19.7391673  26.2042753  29.7664083  20.0291673  26.4612753  28.9854083
  20.4341673  26.3002753  30.2854083  19.8851673  26.2562753  29.7274083
  14.7621673  18.0642753  37.8534083  14.8351673  18.1682753  38.7164083
  14.1281673  18.6222753  37.6324083  14.6791673  18.1622753  37.9484083
  17.0301673  18.3832753  36.2184083  17.3491673  19.1692753  36.4214083
  16.6601673  18.1132753  36.9614083  17.0231673  18.4592753  36.3584083
  16.3441673  24.8072753  21.7484083  16.6781673  24.0012753  21.7834083
  15.5891673  24.7352753  22.1784083  16.2821673  24.6772753  21.8174083
  16.8261673  16.6412753  27.4074083  16.0811673  16.3182753  27.7254083
  16.8281673  17.4672753  27.6874083  16.7161673  16.7152753  27.4954083
  19.7281673  18.9252753  38.9534083  19.6761673  18.5842753  38.1524083
  20.4651673  19.3922753  38.9314083  19.8291673  18.9442753  38.8314083
  19.2661673  22.6012753  35.1594083  19.8941673  22.0522753  34.9034083
  19.2051673  23.1662753  34.4974083  19.3501673  22.6042753  35.0234083
  13.7181673  22.6822753  21.1514083  14.4021673  22.1682753  20.9824083
  13.3011673  22.7282753  20.3864083  13.7571673  22.6132753  21.0134083
   8.4001673  23.8322753  32.4554083   8.1021673  24.4242753  33.0224083
   8.4551673  24.2742753  31.7064083   8.3641673  23.9852753  32.4284083
   6.3791673  22.7822753  35.8534083   5.5731673  22.4922753  36.0204083
   6.2901673  23.6502753  35.8594083   6.2471673  22.8672753  35.8784083
  15.7381673  12.9712753  34.8684083  16.4821673  13.4232753  34.8054083
  15.1721673  13.4412753  34.3994083  15.7651673  13.1082753  34.7904083
  10.9161673  20.2552753  31.9464083  11.3921673  20.6292753  32.5744083
  10.0931673  20.3892753  32.2054083  10.8651673  20.3302753  32.0774083
   7.6261673  15.8582753  34.6874083   7.7871673  15.1142753  35.1144083
   7.5811673  15.6092753  33.8524083   7.6431673  15.7112753  34.6274083
  10.1801673  27.6482753  27.1744083  10.7261673  28.3272753  27.2284083
   9.8301673  27.7302753  26.3794083  10.2091673  27.7612753  27.0644083
  17.0231673  10.9512753  32.5384083  16.7431673  11.7762753  32.4944083
  17.7391673  11.0042753  33.0344083  17.0881673  11.0812753  32.6054083
   9.3781673  11.6662753  34.5674083  10.0831673  11.9862753  34.1654083
   9.6191673  10.8592753  34.7944083   9.5171673  11.5942753  34.5414083
   8.3631673  25.8762753  30.5634083   7.7391673  26.4582753  30.3814083
   8.6111673  25.5902753  29.7774083   8.3071673  25.9202753  30.4204083
  12.6721673  22.5102753  37.5524083  13.4291673  22.7962753  37.2264083
  12.1251673  22.5622753  36.8744083  12.7031673  22.5602753  37.4034083
  16.5811673  25.0602753  36.0564083  16.9271673  25.3302753  36.8104083
  16.8751673  25.6422753  35.4764083  16.6761673  25.1862753  36.0824083
  18.4441673  17.2062753  21.3954083  18.8221673  17.8832753  20.9954083
  17.6021673  17.4302753  21.4264083  18.3751673  17.3392753  21.3404083
   9.9571673  20.6522753  20.4784083   9.1521673  20.4752753  20.1934083
   9.9241673  21.5032753  20.6704083   9.8331673  20.7512753  20.4654083
   5.8871673  16.7192753  30.6284083   6.3271673  16.6162753  29.8824083
   6.4321673  16.4062753  31.2334083   6.0321673  16.6582753  30.6074083
  13.9031673  15.8212753  36.2204083  13.2551673  16.2912753  36.5684083
  14.4681673  15.7322753  36.8794083  13.8911673  15.8772753  36.3694083
  13.5911673  17.3582753  32.5184083  13.8931673  17.7782753  33.2214083
  13.6271673  16.5182753  32.7504083  13.6411673  17.2962753  32.6564083
  11.0161673  27.5252753  36.4434083  11.4941673  26.9252753  36.0274083
  10.6651673  27.0822753  37.1084083  11.0351673  27.3712753  36.4804083
  16.1391673  16.8052753  24.7704083  16.3461673  16.6042753  25.5944083
  16.8951673  17.0732753  24.4284083  16.2811673  16.8152753  24.8414083
   9.4341673  11.7042753  30.6754083   8.6081673  11.5552753  30.9124083
   9.3941673  11.7392753  29.8044083   9.3061673  11.6872753  30.5814083
  17.1611673  12.8882753  26.2444083  16.4471673  12.4172753  26.4154083
  16.9991673  13.2292753  25.4584083  17.0321673  12.8692753  26.1534083
  17.6041673  20.8322753  24.6244083  18.0801673  20.1032753  24.5764083
  16.7831673  20.5462753  24.5484083  17.5531673  20.6822753  24.6054083
  11.0751673  22.7442753  35.4634083  10.2801673  22.6802753  35.8144083
  11.1461673  23.5912753  35.2684083  10.9681673  22.8592753  35.4864083
   6.9051673  28.9512753  30.7804083   6.9161673  29.0102753  31.6504083
   6.4801673  28.2042753  30.6304083   6.8441673  28.8492753  30.8864083
   5.0631673  14.8462753  23.9354083   5.1891673  14.5172753  23.1374083
   4.2511673  14.5972753  24.1344083   4.9621673  14.7612753  23.8474083
  13.8201673  21.9992753  26.9794083  13.8961673  22.3402753  27.7784083
  13.9891673  21.1522753  27.1004083  13.8561673  21.9242753  27.1154083
  11.3421673  21.2732753  26.5444083  11.0441673  20.9582753  27.3014083
  12.0371673  21.7462753  26.7794083  11.4011673  21.2962753  26.6914083
  11.5641673  25.3912753  34.5714083  12.2511673  25.2772753  35.0964083
  11.6981673  26.1822753  34.2274083  11.6851673  25.4912753  34.5984083
  19.7401673  18.0002753  36.3824083  18.8851673  17.8782753  36.5084083
  19.8931673  17.6052753  35.6194083  19.6361673  17.9232753  36.2884083
  14.2531673  18.6652753  34.9584083  13.9981673  17.9462753  35.3804083
  15.0741673  18.7812753  35.2284083  14.3371673  18.5762753  35.0604083
   3.6691673  28.4492753  36.2224083   3.0151673  27.8802753  36.3204083
   3.2941673  29.2222753  36.3734083   3.5171673  28.4792753  36.2594083
  12.1871673  19.8552753  38.1454083  12.5101673  20.5412753  37.7134083
  11.4831673  20.1782753  38.5474083  12.1301673  20.0042753  38.1404083
  15.2711673  28.2292753  29.0744083  14.8201673  28.8722753  29.4534083
  15.9791673  28.1502753  29.5794083  15.3091673  28.3122753  29.2054083
  11.9721673  23.3192753  32.0044083  11.2781673  23.7212753  32.3474083
  12.6491673  23.7522753  32.3434083  11.9691673  23.4422753  32.1054083
  17.3491673  25.9122753  38.5844083  18.1251673  25.5222753  38.6674083
  16.8801673  25.5762753  39.2394083  17.3941673  25.8052753  38.6934083
   5.0401673  16.8572753  34.3514083   5.4151673  17.4762753  33.8644083
   5.7141673  16.3832753  34.6364083   5.1951673  16.8792753  34.3214083
   2.8151673  15.3052753  33.6264083   2.8921673  15.1362753  32.7734083
   3.5611673  15.7112753  33.8234083   2.9361673  15.3402753  33.5294083
  18.3741673  17.9452753  24.0664083  18.4771673  17.8872753  23.2024083
  19.1151673  17.6132753  24.3844083  18.4991673  17.8882753  23.9854083
   5.3691673  12.7152753  36.0374083   5.2881673  11.8712753  36.2434083
   5.0551673  12.7592753  35.2244083   5.3111673  12.5972753  35.9474083
  12.2941673  24.9102753  25.1734083  12.0891673  25.7432753  25.0144083
  11.5191673  24.5282753  25.2954083  12.1491673  24.9772753  25.1684083
  17.4761673  18.0912753  33.4224083  17.4741673  17.2282753  33.5464083
  17.5431673  18.4152753  34.2294083  17.4861673  18.0112753  33.5594083
   2.2121673  20.5312753  33.8504083   2.5321673  20.7502753  33.0694083
   2.1121673  19.6662753  33.7954083   2.2441673  20.4362753  33.7274083
   3.6681673  16.4672753  20.4684083   2.9961673  16.4812753  21.0244083
   3.7631673  15.6192753  20.2844083   3.5831673  16.3442753  20.5234083
  13.3551673  12.8912753  37.2044083  13.4471673  13.6032753  37.6984083
  12.7181673  12.4462753  37.6014083  13.2741673  12.9302753  37.3364083
  12.3491673  13.0812753  28.0584083  11.6491673  13.5992753  28.0024083
  12.3871673  12.7012753  27.2744083  12.2511673  13.1022753  27.9344083
   7.6561673  25.1722753  21.5824083   8.0971673  25.2522753  22.3304083
   6.8511673  24.9562753  21.8404083   7.6021673  25.1522753  21.7314083
  15.9471673  13.5972753  30.8584083  16.8021673  13.6962753  31.0034083
  15.5781673  14.1502753  31.4234083  16.0191673  13.6942753  30.9634083
   6.9751673  19.8232753  35.2354083   6.5791673  20.5972753  35.3104083
   6.5691673  19.4502753  34.5594083   6.8571673  19.8822753  35.1464083
  16.2511673  18.8772753  29.3494083  16.9171673  19.4182753  29.5094083
  15.9061673  19.1882753  28.6104083  16.2981673  19.0032753  29.2644083
  16.5641673  26.9432753  25.1564083  16.3901673  26.2892753  25.7064083
  17.2771673  26.6722753  24.7334083  16.6441673  26.8062753  25.1754083
   4.9851673  24.2422753  22.1834083   4.7411673  23.9352753  22.9634083
   4.9521673  23.5392753  21.6674083   4.9441673  24.0932753  22.2224083
   7.8041673  22.4872753  20.9264083   6.9861673  22.2192753  21.0664083
   7.7761673  23.3392753  21.1114083   7.6791673  22.5742753  20.9744083
   7.4041673  12.8002753  32.6854083   6.5401673  12.8842753  32.7654083
   7.6241673  12.2862753  33.3544083   7.3091673  12.7372753  32.7964083
  19.4221673  11.4352753  34.0144083  19.3701673  11.3912753  34.8844083
  20.1091673  10.9322753  33.8244083  19.5161673  11.3552753  34.1144083
  11.5071673  13.5482753  31.0594083  10.7701673  13.0942753  31.1724083
  12.0781673  13.1462753  31.5824083  11.4821673  13.4212753  31.1534083
  14.2391673  24.3962753  32.8474083  14.4451673  24.6972753  33.6394083
  14.1781673  25.1182753  32.3624083  14.2601673  24.5472753  32.8924083
  13.7731673  28.6102753  37.0934083  13.0201673  28.5922753  36.6524083
  13.9411673  29.4622753  37.1774083  13.6871673  28.7332753  37.0404083
   9.0101673  17.8772753  36.2634083   8.6881673  17.3012753  35.6934083
   8.6511673  18.6322753  36.0174083   8.9101673  17.9032753  36.1434083
   9.8061673  11.1292753  20.8904083   9.8841673  11.3762753  20.0574083
   9.0631673  11.5062753  21.1484083   9.7081673  11.2212753  20.8054083
  19.0511673  23.0352753  32.3054083  19.0191673  22.1732753  32.1704083
  18.3581673  23.3372753  31.8714083  18.9441673  22.9522753  32.2214083
   7.4451673  28.2332753  36.5114083   7.4861673  28.3592753  37.3744083
   8.0961673  27.6732753  36.3554083   7.5471673  28.1692753  36.6164083
  17.1561673  26.2952753  31.1024083  17.6831673  26.2122753  30.4114083
  16.7651673  25.5172753  31.1564083  17.1761673  26.1682753  31.0084083
   4.6241673  12.8832753  33.3334083   4.2811673  12.1162753  33.0994083
   3.9291673  13.4072753  33.3974083   4.4711673  12.8472753  33.3084083
  13.6701673  11.7392753  30.3104083  14.3401673  12.2832753  30.4374083
  13.1671673  12.1632753  29.7374083  13.6951673  11.8822753  30.2444083
   5.0381673  26.6162753  37.8714083   5.6331673  27.0472753  38.3434083
   4.6741673  27.2402753  37.3824083   5.0721673  26.7722753  37.8684083
  13.0291673  17.5472753  27.8034083  13.5801673  16.9402753  28.1034083
  12.6041673  17.8102753  28.5184083  13.0481673  17.4962753  27.9524083
   3.2771673  16.1972753  27.2894083   2.9091673  16.4992753  28.0204083
   3.8111673  15.5682753  27.5734083   3.3011673  16.1492753  27.4394083
   2.9651673  24.6052753  34.8004083   2.3911673  25.0212753  35.3094083
   3.6981673  25.0702753  34.8954083   2.9891673  24.7352753  34.8894083
  14.9991673  19.3782753  24.3654083  15.0671673  18.5282753  24.5464083
  14.1761673  19.4642753  24.0874083  14.8871673  19.2652753  24.3514083
   4.7511673  27.8722753  23.5754083   4.6061673  28.0282753  22.7294083
   5.6171673  27.9512753  23.6534083   4.8581673  27.9072753  23.4624083
   8.9181673  20.2692753  23.3034083   9.0181673  20.4082753  22.4484083
   9.7361673  20.2092753  23.5994083   9.0531673  20.2802753  23.2204083
  18.0781673  28.3332753  20.7834083  18.7151673  28.1992753  21.3644083
  17.7371673  27.5392753  20.6664083  18.1221673  28.1962753  20.8514083
  18.2731673  20.7512753  37.5164083  18.9071673  20.5812753  38.0904083
  18.6901673  21.1542753  36.8644083  18.4281673  20.7862753  37.5054083
  14.1531673  24.5982753  23.1054083  13.9021673  24.4702753  23.9314083
  13.8361673  23.9032753  22.6844083  14.0691673  24.4772753  23.1654083
  18.8981673  15.3152753  38.2544083  18.7021673  15.9592753  38.8094083
  18.1761673  14.8252753  38.2464083  18.7631673  15.3382753  38.3354083
  18.7971673  16.2562753  31.2254083  17.9641673  16.5062753  31.1534083
  18.7411673  15.4162753  31.4544083  18.6661673  16.1692753  31.2484083
   8.0571673  13.2442753  36.4194083   8.2911673  12.6682753  35.8064083
   7.2151673  13.0632753  36.5604083   7.9671673  13.1322753  36.3494083
  15.6841673  20.8622753  38.8714083  16.5551673  20.8262753  38.8354083
  15.4651673  21.2822753  38.1394083  15.7811673  20.9182753  38.7584083
   5.4381673  26.6872753  30.0524083   5.3591673  25.8772753  29.7364083
   4.9941673  27.1742753  29.4804083   5.3611673  26.6392753  29.9214083
  11.0391673  22.8062753  22.5354083  11.7561673  22.4592753  22.1794083
  11.0051673  23.6062753  22.1874083  11.1401673  22.8732753  22.4314083
   3.0101673  28.9312753  33.6334083   3.5031673  28.8752753  34.3514083
   3.1981673  28.1982753  33.1984083   3.1111673  28.8142753  33.6754083
  12.4481673  11.4472753   6.7741673  12.2031673  11.9352753   6.0941673
  13.3111673  11.3742753   6.6741673  12.5391673  11.5082753   6.6591673
  12.2571673  18.3632753  11.4451673  11.7331673  18.9592753  11.8081673
  12.6541673  17.9952753  12.1291673  12.2381673  18.3972753  11.6001673
  18.4011673  25.8042753   4.4161673  19.1021673  25.2852753   4.4121673
  17.8141673  25.3592753   3.9471673  18.4181673  25.6612753   4.3461673
   5.0081673  21.5582753   2.0801673   4.6161673  21.1872753   1.3941673
   4.9281673  20.9602753   2.7091673   4.9381673  21.4152753   2.0711673
  14.9281673  19.4302753   8.1211673  15.0081673  19.4342753   7.2521673
  14.3441673  18.7982753   8.2701673  14.8531673  19.3372753   8.0151673
   4.6351673  23.1992753   5.9801673   5.2431673  23.0292753   6.5831673
   3.8841673  23.0592753   6.4011673   4.6141673  23.1532753   6.1311673
   8.9171673  12.5342753   5.9291673   8.8471673  13.2112753   5.3831673
   9.6581673  12.1462753   5.6801673   9.0161673  12.5772753   5.8111673
   3.5261673  26.2902753   2.0571673   3.9931673  26.3742753   1.3251673
   3.9811673  25.7122753   2.5261673   3.6621673  26.2172753   2.0181673
   8.6401673  22.7632753  18.2231673   8.4041673  22.7602753  19.0631673
   7.8921673  22.6152753  17.7991673   8.4941673  22.7402753  18.2841673
   3.5121673  19.7592753   7.3581673   3.0501673  19.3672753   6.7311673
   4.2121673  19.2462753   7.4501673   3.5471673  19.6262753   7.2791673
   8.0201673  15.3692753  12.7051673   8.6981673  15.3872753  12.1561673
   7.9751673  14.5332753  12.9501673   8.1131673  15.2482753  12.6601673
   8.6221673  25.9552753  15.4861673   8.7601673  26.7152753  15.0791673
   9.4131673  25.5902753  15.5131673   8.7591673  26.0142753  15.4301673
   5.5131673  17.8592753   7.3811673   6.3301673  17.6722753   7.6241673
   5.0361673  17.2452753   7.7771673   5.5631673  17.7412753   7.4761673
   9.7171673  23.8402753   9.9911673  10.0651673  23.0412753  10.0211673
  10.3821673  24.3442753   9.7361673   9.8671673  23.7962753   9.9581673
   9.7741673  23.2892753   6.2021673  10.1051673  22.6452753   6.6881673
  10.0141673  23.0782753   5.3911673   9.8581673  23.1632753   6.1541673
  11.7421673  17.4202753  17.5411673  10.8941673  17.3212753  17.3631673
  11.7711673  18.1652753  17.9951673  11.6211673  17.5162753  17.5821673
   6.1101673  12.9532753   6.6471673   5.8141673  13.4542753   5.9971673
   6.9771673  13.0312753   6.5901673   6.1941673  13.0392753   6.5431673
  16.3001673  10.3802753  16.6551673  16.1421673  11.1492753  16.2731673
  15.5281673  10.1602753  16.9991673  16.1621673  10.4612753  16.6501673
   9.0891673  12.0952753   8.8701673   9.1621673  12.9552753   8.9991673
   9.0511673  12.0202753   8.0021673   9.0941673  12.2112753   8.7611673
   7.7181673  25.0742753   5.7511673   7.1391673  24.7992753   6.3431673
   8.3421673  24.4652753   5.7761673   7.7251673  24.9442753   5.8421673
  13.8611673  27.3622753   3.2731673  14.5881673  27.8342753   3.3751673
  14.0901673  26.5682753   3.5531673  14.0031673  27.3152753   3.3301673
  12.0291673  27.7542753   5.2631673  12.2431673  28.2812753   5.9251673
  12.7961673  27.5802753   4.8841673  12.1741673  27.8062753   5.3051673
   4.9971673  12.3372753  10.8621673   4.4761673  11.7092753  10.5541673
   5.5881673  11.9002753  11.3331673   5.0081673  12.1792753  10.8861673
   8.3031673  14.4702753  20.1601673   8.4201673  14.0162753  19.4241673
   8.5911673  15.2682753  19.9571673   8.3631673  14.5212753  20.0211673
   3.4231673  25.9002753   6.2021673   4.0791673  25.3252753   6.2171673
   3.8121673  26.6492753   5.9811673   3.5781673  25.9252753   6.1721673
  19.1561673  14.9942753   7.4641673  18.8101673  15.6722753   7.8901673
  18.5201673  14.3962753   7.4801673  19.0111673  15.0062753   7.5291673
  14.4681673  27.7642753  13.5681673  15.2121673  28.2202753  13.5581673
  14.3471673  27.5502753  12.7311673  14.5601673  27.8002753  13.4431673
   4.0361673  14.0672753  19.1441673   3.2581673  13.6772753  19.0721673
   4.5271673  13.6552753  18.5531673   3.9931673  13.9482753  19.0461673
   4.2411673  24.3872753   9.7021673   4.6641673  24.0312753   9.0281673
   4.5651673  23.9652753  10.3941673   4.3511673  24.2722753   9.7051673
   7.4721673  27.2392753   8.9981673   8.3161673  27.3432753   8.8031673
   7.1751673  28.0572753   9.0661673   7.5531673  27.3752753   8.9791673
  10.6851673  11.7102753  18.3121673  10.8631673  10.9012753  18.0371673
  10.5421673  12.1512753  17.5731673  10.6901673  11.6562753  18.1621673
  11.2791673  16.6362753   7.0851673  11.5661673  16.4042753   6.2951673
  12.0111673  16.7152753   7.5541673  11.4291673  16.6132753   7.0381673
  12.0011673  16.9752753   2.2061673  12.2821673  17.7632753   2.4551673
  11.2251673  17.1402753   1.8431673  11.9281673  17.1162753   2.1891673
  16.0421673  28.9492753   3.6731673  16.7071673  28.8012753   3.1281673
  16.4021673  28.8662753   4.4631673  16.1941673  28.9152753   3.7091673
   6.4701673  28.4582753  14.7381673   6.7621673  28.3912753  15.5581673
   5.8441673  27.8532753  14.6931673   6.4211673  28.3592753  14.8531673
  18.8311673  13.3172753  12.8331673  19.5881673  13.3892753  12.4051673
  18.8941673  12.5442753  13.2321673  18.9521673  13.2142753  12.8281673
  13.7221673  24.9492753  17.2721673  13.6881673  25.3312753  18.0561673
  14.5761673  24.9072753  17.1011673  13.8431673  24.9992753  17.3631673
  10.8601673  25.1462753   2.0221673  10.6791673  25.6912753   2.6791673
  11.6261673  25.4362753   1.7211673  10.9461673  25.2702753   2.0751673
  14.3671673  13.0422753   3.0761673  14.9071673  12.3602753   3.1521673
  14.4291673  13.4402753   3.8501673  14.4561673  13.0002753   3.2021673
   2.3211673  14.2102753   5.6451673   2.2071673  13.3462753   5.6761673
   1.8461673  14.5042753   6.3151673   2.2341673  14.1262753   5.7481673
   4.4631673  26.6202753  13.8601673   3.7651673  26.1122753  13.9861673
   4.7231673  26.4152753  13.0521673   4.3981673  26.5152753  13.7591673
  11.6251673  15.4182753   4.3901673  11.1171673  14.7562753   4.1361673
  11.6771673  15.9222753   3.6801673  11.5581673  15.3952753   4.2481673
  12.1741673  28.1132753  14.7701673  12.9421673  28.0332753  14.3641673
  11.5911673  27.9922753  14.1321673  12.2011673  28.0832753  14.6161673
  11.6251673  12.3592753   4.2811673  11.1701673  11.9572753   3.6551673
  12.3981673  12.5142753   3.9061673  11.6721673  12.3232753   4.1331673
  18.4511673  28.7162753   7.6711673  17.9961673  29.4332753   7.8721673
  17.8371673  28.1452753   7.4291673  18.2931673  28.7382753   7.6651673
  10.2231673  14.7262753   8.8031673  10.2971673  15.2942753   8.1451673
  10.3441673  15.2182753   9.5131673  10.2511673  14.8832753   8.8111673
  15.4481673  24.5612753   7.2151673  16.1491673  24.0792753   7.4041673
  14.7881673  23.9922753   7.2601673  15.4541673  24.4062753   7.2491673
   5.8241673  25.4712753  16.4271673   6.6651673  25.5342753  16.2051673
   5.7871673  25.8682753  17.2031673   5.9431673  25.5392753  16.5091673
   4.8311673  10.5492753   7.1511673   5.3671673  11.2372753   7.1411673
   4.8341673  10.2752753   6.3231673   4.9101673  10.6102753   7.0271673
   7.7871673  20.9822753  11.1761673   7.9591673  20.7722753  12.0051673
   7.1321673  20.4482753  10.9601673   7.7161673  20.8722753  11.2671673
  14.0151673  14.8962753  14.6911673  13.9201673  15.2152753  15.4971673
  13.4221673  14.2572753  14.6531673  13.9131673  14.8482753  14.8051673
   8.5371673  20.9202753  13.7661673   8.5901673  21.7672753  13.9681673
   8.2521673  20.5502753  14.5031673   8.5031673  20.9902753  13.9041673
  14.7141673  21.6152753  12.8961673  14.2001673  21.2032753  13.4671673
  14.5881673  22.4592753  13.0771673  14.6201673  21.6792753  13.0071673
  15.2711673  10.8402753   7.5271673  15.3201673  10.5222753   8.3381673
  15.5941673  10.1962753   7.0341673  15.3261673  10.6982753   7.5741673
  17.7351673  15.0762753  15.8351673  18.5071673  14.8512753  16.1721673
  17.2601673  15.2932753  16.5351673  17.7791673  15.0752753  15.9881673
   5.2791673  14.3592753   8.8051673   5.5511673  13.9292753   8.0971673
   5.1031673  13.7232753   9.3761673   5.2931673  14.2022753   8.7851673
  17.9671673  22.0542753   3.0231673  18.0861673  21.7672753   3.8381673
  18.7741673  22.0752753   2.6931673  18.1031673  22.0152753   3.0951673
   5.1031673  21.7862753   8.3541673   5.9541673  21.7062753   8.1811673
   4.7461673  21.1042753   7.9421673   5.1761673  21.6732753   8.2671673
   3.8701673  28.5112753   9.5911673   3.1971673  28.0132753   9.3461673
   4.2731673  28.6962753   8.8401673   3.8301673  28.4652753   9.4441673
   3.4201673  15.4612753  11.8871673   4.2631673  15.6812753  11.8441673
   3.0311673  16.0342753  11.3561673   3.4871673  15.5782753  11.8021673
  20.2011673  26.5632753  17.2771673  19.5191673  26.8732753  16.8301673
  19.8321673  26.1052753  17.9221673  20.0451673  26.5412753  17.3061673
  15.8621673  18.5912753   2.6081673  15.6421673  19.3222753   2.1861673
  15.4141673  18.6422753   3.3551673  15.7631673  18.7062753   2.6561673
   7.4711673  21.7932753   6.5891673   8.1841673  22.2882753   6.6791673
   7.6931673  21.2262753   5.9631673   7.6091673  21.7822753   6.5101673
  20.0491673  13.4522753   2.0611673  19.3871673  12.8842753   2.0841673
  19.8561673  13.9642753   1.3811673  19.9231673  13.4442753   1.9641673
   9.2741673  17.1462753  20.0051673   8.7901673  17.7232753  20.4471673
   9.2461673  17.4412753  19.1841673   9.1981673  17.2752753  19.9491673
  20.3721673  17.8302753  14.6171673  20.5871673  17.0302753  14.3411673
  19.5221673  17.8902753  14.4281673  20.2781673  17.7212753  14.5481673
  18.0511673  13.0102753   4.3401673  18.7971673  12.6032753   4.5391673
  18.3141673  13.7252753   3.9151673  18.2001673  13.0562753   4.3071673
  11.9941673  25.4962753   8.9161673  11.4711673  26.1302753   8.6231673
  12.3041673  25.1322753   8.1871673  11.9621673  25.5362753   8.7651673
   6.0691673  23.2842753  11.6761673   6.5361673  23.5732753  12.3541673
   6.6411673  22.8062753  11.2221673   6.2231673  23.2562753  11.7091673
  14.5051673  15.2982753   9.4131673  14.8491673  15.4502753  10.2001673
  14.0521673  14.5602753   9.5261673  14.4891673  15.2112753   9.5461673
   2.6351673  20.9542753  10.2201673   3.0661673  20.8252753   9.4731673
   2.4301673  21.8022753  10.1941673   2.6681673  21.0602753  10.1061673
   8.9811673  14.5182753   3.8701673   8.9791673  14.4012753   3.0051673
   8.8001673  15.3662753   3.9621673   8.9541673  14.6262753   3.7561673
  18.0351673  26.9452753  15.3671673  17.3641673  27.4592753  15.5851673
  18.0981673  27.0452753  14.5031673  17.9451673  27.0362753  15.2721673
   6.7191673  24.4702753   8.5021673   6.8451673  25.3132753   8.6891673
   7.3871673  24.0712753   8.8981673   6.8371673  24.5362753   8.5881673
   4.8491673  17.9532753  18.3641673   4.3131673  17.4472753  18.8321673
   4.8691673  17.5632753  17.5841673   4.7721673  17.8202753  18.3181673
   5.3341673  17.3502753   3.5041673   5.2061673  16.9022753   4.2421673
   4.7521673  17.0082753   2.9521673   5.2291673  17.2332753   3.5321673
   5.5011673  19.1802753  10.1031673   4.7201673  19.1212753   9.7201673
   5.5731673  18.4282753  10.5401673   5.3961673  19.0612753  10.1111673
   5.9311673  18.9172753  13.5711673   5.9561673  18.2422753  13.0201673
   5.2851673  19.4132753  13.2591673   5.8401673  18.8902753  13.4441673
  15.8261673  16.6302753  11.9671673  15.1641673  16.9582753  12.4301673
  16.0131673  17.2642753  11.3981673  15.7561673  16.7722753  11.9511673
  10.0311673  27.6942753  12.9631673   9.7541673  27.0532753  12.4401673
   9.8231673  28.4202753  12.5251673   9.9601673  27.7072753  12.8211673
  12.4711673  12.5362753  15.3961673  12.6201673  11.7112753  15.1531673
  12.8501673  12.5912753  16.1801673  12.5491673  12.4222753  15.4761673
  14.0191673  14.5992753   5.4781673  14.5091673  15.3162753   5.4011673
  13.2291673  14.8602753   5.2151673  13.9751673  14.7432753   5.4281673
   3.7301673  20.2722753  19.1301673   3.6931673  20.7732753  18.4161673
   4.0611673  19.5202753  18.8351673   3.7731673  20.2342753  18.9811673
  15.3331673  22.4772753  17.3881673  15.8171673  23.1952753  17.4861673
  15.7271673  22.0502753  16.7371673  15.4631673  22.5202753  17.3061673
   9.6291673  25.3222753  18.5651673   9.9831673  25.1442753  19.3421673
   9.1931673  24.5932753  18.3661673   9.6171673  25.1882753  18.6511673
  10.6011673  16.0692753  11.2031673  11.0811673  16.7682753  11.4111673
  10.9741673  15.4222753  11.6541673  10.7271673  16.0772753  11.3001673
  12.7901673  19.2382753   3.4771673  12.7821673  19.9602753   2.9871673
  12.1511673  19.3732753   4.0541673  12.6951673  19.3652753   3.4901673
  17.7621673  23.1082753   7.4581673  18.1181673  22.7582753   8.1731673
  17.7541673  22.4472753   6.8881673  17.8141673  22.9582753   7.4791673
  13.8071673  26.1742753  11.3021673  13.2041673  25.8782753  10.7451673
  14.3521673  26.6262753  10.7931673  13.7981673  26.1972753  11.1441673
  13.8201673  23.0252753  10.7021673  13.0231673  23.2492753  10.9761673
  14.0781673  22.4312753  11.2871673  13.7401673  22.9702753  10.8291673
   7.7121673  27.8372753   5.1501673   7.5651673  27.0612753   5.5211673
   8.4011673  27.6902753   4.6351673   7.7921673  27.7002753   5.1291673
   7.3831673  11.5802753   3.1381673   7.4801673  11.4732753   3.9991673
   6.6751673  12.0862753   3.0731673   7.2931673  11.6392753   3.2561673
  10.0041673  27.3532753   3.5521673  10.6261673  27.5162753   4.1421673
  10.0401673  28.0442753   3.0201673  10.1011673  27.4792753   3.5611673
  17.0801673  21.0232753  15.5481673  17.1351673  21.1482753  14.6861673
  17.8331673  21.3432753  15.8501673  17.1991673  21.0882753  15.4651673
  13.2711673  26.3722753  19.8251673  13.4351673  26.6552753  20.6341673
  13.5341673  27.0332753  19.3201673  13.3341673  26.5122753  19.8701673
  18.1121673  11.3212753  18.5351673  17.4751673  10.9212753  18.0931673
  18.1381673  10.8902753  19.2931673  18.0221673  11.1992753  18.5811673
   4.5051673  19.8872753   4.3811673   4.8291673  19.1082753   4.1591673
   5.1511673  20.2552753   4.8361673   4.6481673  19.8262753   4.4151673
  12.8111673  20.8292753  15.1481673  12.6561673  21.4392753  15.7521673
  13.3451673  20.2712753  15.5541673  12.8671673  20.8372753  15.2971673
  11.1951673  19.2292753   5.8061673  11.2541673  19.8792753   6.3851673
  11.0061673  18.5332753   6.2971673  11.1761673  19.2222753   5.9641673
  16.4211673  23.5582753  11.6751673  15.9421673  23.8562753  11.0091673
  16.0651673  22.7822753  11.8531673  16.2981673  23.4872753  11.6031673
   5.6911673  13.7462753   2.3181673   5.1801673  13.7992753   1.6121673
   6.4751673  13.9862753   2.0221673   5.7311673  13.7892753   2.1701673
  10.4181673  21.2762753  10.2371673   9.5711673  21.0822753  10.3181673
  10.7421673  21.1112753  11.0301673  10.3401673  21.2232753  10.3661673
   4.2661673  20.9692753  12.5531673   4.9881673  21.4572753  12.5161673
   3.9961673  20.9392753  11.7241673   4.3331673  21.0372753  12.4251673
   7.4961673  16.1402753   9.2881673   8.3421673  15.9502753   9.3861673
   7.1261673  15.3632753   9.1501673   7.5661673  15.9972753   9.2821673
  20.1131673  27.7242753   3.6151673  20.8071673  27.2572753   3.3671673
  19.5741673  27.1262753   3.9521673  20.1361673  27.5662753   3.6281673
   2.3171673  17.4782753   5.9431673   2.8061673  17.1862753   6.6041673
   2.4461673  16.8852753   5.3161673   2.4081673  17.3472753   5.9481673
  17.3521673  20.5002753  12.7941673  17.3451673  19.7242753  13.1921673
  16.5111673  20.7342753  12.7871673  17.2271673  20.4202753  12.8521673
   3.6611673  22.0212753  16.8311673   3.2401673  21.5032753  16.2701673
   3.3091673  22.8072753  16.6881673   3.5471673  22.0612753  16.7271673
  18.6081673  20.5712753  10.2311673  18.3221673  20.9722753  10.9511673
  19.4681673  20.5092753  10.3581673  18.6931673  20.6212753  10.3561673
   8.2971673  17.3732753   4.1391673   8.5691673  18.1992753   4.2061673
   7.4341673  17.4482753   4.0431673   8.2101673  17.5062753   4.1341673
  16.2701673  14.4952753  18.7711673  15.7451673  14.9542753  19.2951673
  15.9091673  13.7002753  18.7651673  16.1391673  14.4452753  18.8471673
   1.7771673  13.3432753  10.6751673   1.8211673  13.6872753   9.8741673
   2.5321673  13.5802753  11.0421673   1.8951673  13.4292753  10.6111673
  19.7391673  26.2042753  10.7601673  20.0291673  26.4612753   9.9791673
  20.4341673  26.3002753  11.2791673  19.8851673  26.2562753  10.7211673
  14.7621673  18.0642753  18.8471673  14.8351673  18.1682753  19.7101673
  14.1281673  18.6222753  18.6261673  14.6791673  18.1622753  18.9421673
  17.0301673  18.3832753  17.2121673  17.3491673  19.1692753  17.4151673
  16.6601673  18.1132753  17.9551673  17.0231673  18.4592753  17.3521673
  16.3441673  24.8072753   2.7421673  16.6781673  24.0012753   2.7771673
  15.5891673  24.7352753   3.1721673  16.2821673  24.6772753   2.8111673
  16.8261673  16.6412753   8.4011673  16.0811673  16.3182753   8.7191673
  16.8281673  17.4672753   8.6811673  16.7161673  16.7152753   8.4891673
  19.7281673  18.9252753  19.9471673  19.6761673  18.5842753  19.1461673
  20.4651673  19.3922753  19.9251673  19.8291673  18.9442753  19.8251673
  19.2661673  22.6012753  16.1531673  19.8941673  22.0522753  15.8971673
  19.2051673  23.1662753  15.4911673  19.3501673  22.6042753  16.0171673
  13.7181673  22.6822753   2.1451673  14.4021673  22.1682753   1.9761673
  13.3011673  22.7282753   1.3801673  13.7571673  22.6132753   2.0071673
   8.4001673  23.8322753  13.4491673   8.1021673  24.4242753  14.0161673
   8.4551673  24.2742753  12.7001673   8.3641673  23.9852753  13.4221673
   6.3791673  22.7822753  16.8471673   5.5731673  22.4922753  17.0141673
   6.2901673  23.6502753  16.8531673   6.2471673  22.8672753  16.8721673
  15.7381673  12.9712753  15.8621673  16.4821673  13.4232753  15.7991673
  15.1721673  13.4412753  15.3931673  15.7651673  13.1082753  15.7841673
  10.9161673  20.2552753  12.9401673  11.3921673  20.6292753  13.5681673
  10.0931673  20.3892753  13.1991673  10.8651673  20.3302753  13.0711673
   7.6261673  15.8582753  15.6811673   7.7871673  15.1142753  16.1081673
   7.5811673  15.6092753  14.8461673   7.6431673  15.7112753  15.6211673
  10.1801673  27.6482753   8.1681673  10.7261673  28.3272753   8.2221673
   9.8301673  27.7302753   7.3731673  10.2091673  27.7612753   8.0581673
  17.0231673  10.9512753  13.5321673  16.7431673  11.7762753  13.4881673
  17.7391673  11.0042753  14.0281673  17.0881673  11.0812753  13.5991673
   9.3781673  11.6662753  15.5611673  10.0831673  11.9862753  15.1591673
   9.6191673  10.8592753  15.7881673   9.5171673  11.5942753  15.5351673
   8.3631673  25.8762753  11.5571673   7.7391673  26.4582753  11.3751673
   8.6111673  25.5902753  10.7711673   8.3071673  25.9202753  11.4141673
  12.6721673  22.5102753  18.5461673  13.4291673  22.7962753  18.2201673
  12.1251673  22.5622753  17.8681673  12.7031673  22.5602753  18.3971673
  16.5811673  25.0602753  17.0501673  16.9271673  25.3302753  17.8041673
  16.8751673  25.6422753  16.4701673  16.6761673  25.1862753  17.0761673
  18.4441673  17.2062753   2.3891673  18.8221673  17.8832753   1.9891673
  17.6021673  17.4302753   2.4201673  18.3751673  17.3392753   2.3341673
   5.8871673  16.7192753  11.6221673   6.3271673  16.6162753  10.8761673
   6.4321673  16.4062753  12.2271673   6.0321673  16.6582753  11.6011673
  13.9031673  15.8212753  17.2141673  13.2551673  16.2912753  17.5621673
  14.4681673  15.7322753  17.8731673  13.8911673  15.8772753  17.3631673
  13.5911673  17.3582753  13.5121673  13.8931673  17.7782753  14.2151673
  13.6271673  16.5182753  13.7441673  13.6411673  17.2962753  13.6501673
  11.0161673  27.5252753  17.4371673  11.4941673  26.9252753  17.0211673
  10.6651673  27.0822753  18.1021673  11.0351673  27.3712753  17.4741673
  16.1391673  16.8052753   5.7641673  16.3461673  16.6042753   6.5881673
  16.8951673  17.0732753   5.4221673  16.2811673  16.8152753   5.8351673
   9.4341673  11.7042753  11.6691673   8.6081673  11.5552753  11.9061673
   9.3941673  11.7392753  10.7981673   9.3061673  11.6872753  11.5751673
  17.1611673  12.8882753   7.2381673  16.4471673  12.4172753   7.4091673
  16.9991673  13.2292753   6.4521673  17.0321673  12.8692753   7.1471673
  17.6041673  20.8322753   5.6181673  18.0801673  20.1032753   5.5701673
  16.7831673  20.5462753   5.5421673  17.5531673  20.6822753   5.5991673
  11.0751673  22.7442753  16.4571673  10.2801673  22.6802753  16.8081673
  11.1461673  23.5912753  16.2621673  10.9681673  22.8592753  16.4801673
   6.9051673  28.9512753  11.7741673   6.9161673  29.0102753  12.6441673
   6.4801673  28.2042753  11.6241673   6.8441673  28.8492753  11.8801673
   5.0631673  14.8462753   4.9291673   5.1891673  14.5172753   4.1311673
   4.2511673  14.5972753   5.1281673   4.9621673  14.7612753   4.8411673
  13.8201673  21.9992753   7.9731673  13.8961673  22.3402753   8.7721673
  13.9891673  21.1522753   8.0941673  13.8561673  21.9242753   8.1091673
  11.3421673  21.2732753   7.5381673  11.0441673  20.9582753   8.2951673
  12.0371673  21.7462753   7.7731673  11.4011673  21.2962753   7.6851673
  11.5641673  25.3912753  15.5651673  12.2511673  25.2772753  16.0901673
  11.6981673  26.1822753  15.2211673  11.6851673  25.4912753  15.5921673
  19.7401673  18.0002753  17.3761673  18.8851673  17.8782753  17.5021673
  19.8931673  17.6052753  16.6131673  19.6361673  17.9232753  17.2821673
  14.2531673  18.6652753  15.9521673  13.9981673  17.9462753  16.3741673
  15.0741673  18.7812753  16.2221673  14.3371673  18.5762753  16.0541673
   3.6691673  28.4492753  17.2161673   3.0151673  27.8802753  17.3141673
   3.2941673  29.2222753  17.3671673   3.5171673  28.4792753  17.2531673
  12.1871673  19.8552753  19.1391673  12.5101673  20.5412753  18.7071673
  11.4831673  20.1782753  19.5411673  12.1301673  20.0042753  19.1341673
  15.2711673  28.2292753  10.0681673  14.8201673  28.8722753  10.4471673
  15.9791673  28.1502753  10.5731673  15.3091673  28.3122753  10.1991673
  11.9721673  23.3192753  12.9981673  11.2781673  23.7212753  13.3411673
  12.6491673  23.7522753  13.3371673  11.9691673  23.4422753  13.0991673
  17.3491673  25.9122753  19.5781673  18.1251673  25.5222753  19.6611673
  16.8801673  25.5762753  20.2331673  17.3941673  25.8052753  19.6871673
   5.0401673  16.8572753  15.3451673   5.4151673  17.4762753  14.8581673
   5.7141673  16.3832753  15.6301673   5.1951673  16.8792753  15.3151673
   2.8151673  15.3052753  14.6201673   2.8921673  15.1362753  13.7671673
   3.5611673  15.7112753  14.8171673   2.9361673  15.3402753  14.5231673
  18.3741673  17.9452753   5.0601673  18.4771673  17.8872753   4.1961673
  19.1151673  17.6132753   5.3781673  18.4991673  17.8882753   4.9791673
   5.3691673  12.7152753  17.0311673   5.2881673  11.8712753  17.2371673
   5.0551673  12.7592753  16.2181673   5.3111673  12.5972753  16.9411673
  12.2941673  24.9102753   6.1671673  12.0891673  25.7432753   6.0081673
  11.5191673  24.5282753   6.2891673  12.1491673  24.9772753   6.1621673
  17.4761673  18.0912753  14.4161673  17.4741673  17.2282753  14.5401673
  17.5431673  18.4152753  15.2231673  17.4861673  18.0112753  14.5531673
   2.2121673  20.5312753  14.8441673   2.5321673  20.7502753  14.0631673
   2.1121673  19.6662753  14.7891673   2.2441673  20.4362753  14.7211673
  13.3551673  12.8912753  18.1981673  13.4471673  13.6032753  18.6921673
  12.7181673  12.4462753  18.5951673  13.2741673  12.9302753  18.3301673
  12.3491673  13.0812753   9.0521673  11.6491673  13.5992753   8.9961673
  12.3871673  12.7012753   8.2681673  12.2511673  13.1022753   8.9281673
   7.6561673  25.1722753   2.5761673   8.0971673  25.2522753   3.3241673
   6.8511673  24.9562753   2.8341673   7.6021673  25.1522753   2.7251673
  15.9471673  13.5972753  11.8521673  16.8021673  13.6962753  11.9971673
  15.5781673  14.1502753  12.4171673  16.0191673  13.6942753  11.9571673
   6.9751673  19.8232753  16.2291673   6.5791673  20.5972753  16.3041673
   6.5691673  19.4502753  15.5531673   6.8571673  19.8822753  16.1401673
  16.2511673  18.8772753  10.3431673  16.9171673  19.4182753  10.5031673
  15.9061673  19.1882753   9.6041673  16.2981673  19.0032753  10.2581673
  16.5641673  26.9432753   6.1501673  16.3901673  26.2892753   6.7001673
  17.2771673  26.6722753   5.7271673  16.6441673  26.8062753   6.1691673
   4.9851673  24.2422753   3.1771673   4.7411673  23.9352753   3.9571673
   4.9521673  23.5392753   2.6611673   4.9441673  24.0932753   3.2161673
   7.8041673  22.4872753   1.9201673   6.9861673  22.2192753   2.0601673
   7.7761673  23.3392753   2.1051673   7.6791673  22.5742753   1.9681673
   7.4041673  12.8002753  13.6791673   6.5401673  12.8842753  13.7591673
   7.6241673  12.2862753  14.3481673   7.3091673  12.7372753  13.7901673
  19.4221673  11.4352753  15.0081673  19.3701673  11.3912753  15.8781673
  20.1091673  10.9322753  14.8181673  19.5161673  11.3552753  15.1081673
  11.5071673  13.5482753  12.0531673  10.7701673  13.0942753  12.1661673
  12.0781673  13.1462753  12.5761673  11.4821673  13.4212753  12.1471673
  14.2391673  24.3962753  13.8411673  14.4451673  24.6972753  14.6331673
  14.1781673  25.1182753  13.3561673  14.2601673  24.5472753  13.8861673
  13.7731673  28.6102753  18.0871673  13.0201673  28.5922753  17.6461673
  13.9411673  29.4622753  18.1711673  13.6871673  28.7332753  18.0341673
   9.0101673  17.8772753  17.2571673   8.6881673  17.3012753  16.6871673
   8.6511673  18.6322753  17.0111673   8.9101673  17.9032753  17.1371673
  19.0511673  23.0352753  13.2991673  19.0191673  22.1732753  13.1641673
  18.3581673  23.3372753  12.8651673  18.9441673  22.9522753  13.2151673
   7.4451673  28.2332753  17.5051673   7.4861673  28.3592753  18.3681673
   8.0961673  27.6732753  17.3491673   7.5471673  28.1692753  17.6101673
  17.1561673  26.2952753  12.0961673  17.6831673  26.2122753  11.4051673
  16.7651673  25.5172753  12.1501673  17.1761673  26.1682753  12.0021673
   4.6241673  12.8832753  14.3271673   4.2811673  12.1162753  14.0931673
   3.9291673  13.4072753  14.3911673   4.4711673  12.8472753  14.3021673
  13.6701673  11.7392753  11.3041673  14.3401673  12.2832753  11.4311673
  13.1671673  12.1632753  10.7311673  13.6951673  11.8822753  11.2381673
   5.0381673  26.6162753  18.8651673   5.6331673  27.0472753  19.3371673
   4.6741673  27.2402753  18.3761673   5.0721673  26.7722753  18.8621673
  13.0291673  17.5472753   8.7971673  13.5801673  16.9402753   9.0971673
  12.6041673  17.8102753   9.5121673  13.0481673  17.4962753   8.9461673
   3.2771673  16.1972753   8.2831673   2.9091673  16.4992753   9.0141673
   3.8111673  15.5682753   8.5671673   3.3011673  16.1492753   8.4331673
   2.9651673  24.6052753  15.7941673   2.3911673  25.0212753  16.3031673
   3.6981673  25.0702753  15.8891673   2.9891673  24.7352753  15.8831673
  14.9991673  19.3782753   5.3591673  15.0671673  18.5282753   5.5401673
  14.1761673  19.4642753   5.0811673  14.8871673  19.2652753   5.3451673
   4.7511673  27.8722753   4.5691673   4.6061673  28.0282753   3.7231673
   5.6171673  27.9512753   4.6471673   4.8581673  27.9072753   4.4561673
   8.9181673  20.2692753   4.2971673   9.0181673  20.4082753   3.4421673
   9.7361673  20.2092753   4.5931673   9.0531673  20.2802753   4.2141673
  18.0781673  28.3332753   1.7771673  18.7151673  28.1992753   2.3581673
  17.7371673  27.5392753   1.6601673  18.1221673  28.1962753   1.8451673
  18.2731673  20.7512753  18.5101673  18.9071673  20.5812753  19.0841673
  18.6901673  21.1542753  17.8581673  18.4281673  20.7862753  18.4991673
  14.1531673  24.5982753   4.0991673  13.9021673  24.4702753   4.9251673
  13.8361673  23.9032753   3.6781673  14.0691673  24.4772753   4.1591673
  18.8981673  15.3152753  19.2481673  18.7021673  15.9592753  19.8031673
  18.1761673  14.8252753  19.2401673  18.7631673  15.3382753  19.3291673
  18.7971673  16.2562753  12.2191673  17.9641673  16.5062753  12.1471673
  18.7411673  15.4162753  12.4481673  18.6661673  16.1692753  12.2421673
   8.0571673  13.2442753  17.4131673   8.2911673  12.6682753  16.8001673
   7.2151673  13.0632753  17.5541673   7.9671673  13.1322753  17.3431673
  15.6841673  20.8622753  19.8651673  16.5551673  20.8262753  19.8291673
  15.4651673  21.2822753  19.1331673  15.7811673  20.9182753  19.7521673
   5.4381673  26.6872753  11.0461673   5.3591673  25.8772753  10.7301673
   4.9941673  27.1742753  10.4741673   5.3611673  26.6392753  10.9151673
  11.0391673  22.8062753   3.5291673  11.7561673  22.4592753   3.1731673
  11.0051673  23.6062753   3.1811673  11.1401673  22.8732753   3.4251673
   3.0101673  28.9312753  14.6271673   3.5031673  28.8752753  15.3451673
   3.1981673  28.1982753  14.1921673   3.1111673  28.8142753  14.6691673
  18.4011673   7.3261673  61.4348903  19.1021673   6.8071673  61.4308903
  17.8141673   6.8811673  60.9658903  18.4181673   7.1831673  61.3648903
   5.0081673   3.0801673  59.0988903   4.6161673   2.7091673  58.4128903
   4.9281673   2.4821673  59.7278903   4.9381673   2.9371673  59.0898903
   4.6351673   4.7211673  62.9988903   5.2431673   4.5511673  63.6018903
   3.8841673   4.5811673  63.4198903   4.6141673   4.6751673  63.1498903
   3.5261673   7.8121673  59.0758903   3.9931673   7.8961673  58.3438903
   3.9811673   7.2341673  59.5448903   3.6621673   7.7391673  59.0368903
   8.6401673   4.2851673  75.2418903   8.4041673   4.2821673  76.0818903
   7.8921673   4.1371673  74.8178903   8.4941673   4.2621673  75.3028903
   8.6221673   7.4771673  72.5048903   8.7601673   8.2371673  72.0978903
   9.4131673   7.1121673  72.5318903   8.7591673   7.5361673  72.4488903
   9.7171673   5.3621673  67.0098903  10.0651673   4.5631673  67.0398903
  10.3821673   5.8661673  66.7548903   9.8671673   5.3181673  66.9768903
   9.7741673   4.8111673  63.2208903  10.1051673   4.1671673  63.7068903
  10.0141673   4.6001673  62.4098903   9.8581673   4.6851673  63.1728903
   7.7181673   6.5961673  62.7698903   7.1391673   6.3211673  63.3618903
   8.3421673   5.9871673  62.7948903   7.7251673   6.4661673  62.8608903
  13.8611673   8.8841673  60.2918903  14.5881673   9.3561673  60.3938903
  14.0901673   8.0901673  60.5718903  14.0031673   8.8371673  60.3488903
  12.0291673   9.2761673  62.2818903  12.2431673   9.8031673  62.9438903
  12.7961673   9.1021673  61.9028903  12.1741673   9.3281673  62.3238903
   3.4231673   7.4221673  63.2208903   4.0791673   6.8471673  63.2358903
   3.8121673   8.1711673  62.9998903   3.5781673   7.4471673  63.1908903
  14.4681673   9.2861673  70.5868903  15.2121673   9.7421673  70.5768903
  14.3471673   9.0721673  69.7498903  14.5601673   9.3221673  70.4618903
   4.2411673   5.9091673  66.7208903   4.6641673   5.5531673  66.0468903
   4.5651673   5.4871673  67.4128903   4.3511673   5.7941673  66.7238903
   7.4721673   8.7611673  66.0168903   8.3161673   8.8651673  65.8218903
   7.1751673   9.5791673  66.0848903   7.5531673   8.8971673  65.9978903
  16.0421673  10.4711673  60.6918903  16.7071673  10.3231673  60.1468903
  16.4021673  10.3881673  61.4818903  16.1941673  10.4371673  60.7278903
   6.4701673   9.9801673  71.7568903   6.7621673   9.9131673  72.5768903
   5.8441673   9.3751673  71.7118903   6.4211673   9.8811673  71.8718903
  13.7221673   6.4711673  74.2908903  13.6881673   6.8531673  75.0748903
  14.5761673   6.4291673  74.1198903  13.8431673   6.5211673  74.3818903
  10.8601673   6.6681673  59.0408903  10.6791673   7.2131673  59.6978903
  11.6261673   6.9581673  58.7398903  10.9461673   6.7921673  59.0938903
   4.4631673   8.1421673  70.8788903   3.7651673   7.6341673  71.0048903
   4.7231673   7.9371673  70.0708903   4.3981673   8.0371673  70.7778903
  12.1741673   9.6351673  71.7888903  12.9421673   9.5551673  71.3828903
  11.5911673   9.5141673  71.1508903  12.2011673   9.6051673  71.6348903
  18.4511673  10.2381673  64.6898903  17.9961673  10.9551673  64.8908903
  17.8371673   9.6671673  64.4478903  18.2931673  10.2601673  64.6838903
  15.4481673   6.0831673  64.2338903  16.1491673   5.6011673  64.4228903
  14.7881673   5.5141673  64.2788903  15.4541673   5.9281673  64.2678903
   5.8241673   6.9931673  73.4458903   6.6651673   7.0561673  73.2238903
   5.7871673   7.3901673  74.2218903   5.9431673   7.0611673  73.5278903
   7.7871673   2.5041673  68.1948903   7.9591673   2.2941673  69.0238903
   7.1321673   1.9701673  67.9788903   7.7161673   2.3941673  68.2858903
   8.5371673   2.4421673  70.7848903   8.5901673   3.2891673  70.9868903
   8.2521673   2.0721673  71.5218903   8.5031673   2.5121673  70.9228903
  14.7141673   3.1371673  69.9148903  14.2001673   2.7251673  70.4858903
  14.5881673   3.9811673  70.0958903  14.6201673   3.2011673  70.0258903
  17.9671673   3.5761673  60.0418903  18.0861673   3.2891673  60.8568903
  18.7741673   3.5971673  59.7118903  18.1031673   3.5371673  60.1138903
   5.1031673   3.3081673  65.3728903   5.9541673   3.2281673  65.1998903
   4.7461673   2.6261673  64.9608903   5.1761673   3.1951673  65.2858903
   3.8701673  10.0331673  66.6098903   3.1971673   9.5351673  66.3648903
   4.2731673  10.2181673  65.8588903   3.8301673   9.9871673  66.4628903
  20.2011673   8.0851673  74.2958903  19.5191673   8.3951673  73.8488903
  19.8321673   7.6271673  74.9408903  20.0451673   8.0631673  74.3248903
   7.4711673   3.3151673  63.6078903   8.1841673   3.8101673  63.6978903
   7.6931673   2.7481673  62.9818903   7.6091673   3.3041673  63.5288903
  11.9941673   7.0181673  65.9348903  11.4711673   7.6521673  65.6418903
  12.3041673   6.6541673  65.2058903  11.9621673   7.0581673  65.7838903
   6.0691673   4.8061673  68.6948903   6.5361673   5.0951673  69.3728903
   6.6411673   4.3281673  68.2408903   6.2231673   4.7781673  68.7278903
   2.6351673   2.4761673  67.2388903   3.0661673   2.3471673  66.4918903
   2.4301673   3.3241673  67.2128903   2.6681673   2.5821673  67.1248903
  18.0351673   8.4671673  72.3858903  17.3641673   8.9811673  72.6038903
  18.0981673   8.5671673  71.5218903  17.9451673   8.5581673  72.2908903
   6.7191673   5.9921673  65.5208903   6.8451673   6.8351673  65.7078903
   7.3871673   5.5931673  65.9168903   6.8371673   6.0581673  65.6068903
  10.0311673   9.2161673  69.9818903   9.7541673   8.5751673  69.4588903
   9.8231673   9.9421673  69.5438903   9.9601673   9.2291673  69.8398903
  15.3331673   3.9991673  74.4068903  15.8171673   4.7171673  74.5048903
  15.7271673   3.5721673  73.7558903  15.4631673   4.0421673  74.3248903
   9.6291673   6.8441673  75.5838903   9.9831673   6.6661673  76.3608903
   9.1931673   6.1151673  75.3848903   9.6171673   6.7101673  75.6698903
  17.7621673   4.6301673  64.4768903  18.1181673   4.2801673  65.1918903
  17.7541673   3.9691673  63.9068903  17.8141673   4.4801673  64.4978903
  13.8071673   7.6961673  68.3208903  13.2041673   7.4001673  67.7638903
  14.3521673   8.1481673  67.8118903  13.7981673   7.7191673  68.1628903
  13.8201673   4.5471673  67.7208903  13.0231673   4.7711673  67.9948903
  14.0781673   3.9531673  68.3058903  13.7401673   4.4921673  67.8478903
   7.7121673   9.3591673  62.1688903   7.5651673   8.5831673  62.5398903
   8.4011673   9.2121673  61.6538903   7.7921673   9.2221673  62.1478903
  10.0041673   8.8751673  60.5708903  10.6261673   9.0381673  61.1608903
  10.0401673   9.5661673  60.0388903  10.1011673   9.0011673  60.5798903
  17.0801673   2.5451673  72.5668903  17.1351673   2.6701673  71.7048903
  17.8331673   2.8651673  72.8688903  17.1991673   2.6101673  72.4838903
  12.8111673   2.3511673  72.1668903  12.6561673   2.9611673  72.7708903
  13.3451673   1.7931673  72.5728903  12.8671673   2.3591673  72.3158903
  16.4211673   5.0801673  68.6938903  15.9421673   5.3781673  68.0278903
  16.0651673   4.3041673  68.8718903  16.2981673   5.0091673  68.6218903
  10.4181673   2.7981673  67.2558903   9.5711673   2.6041673  67.3368903
  10.7421673   2.6331673  68.0488903  10.3401673   2.7451673  67.3848903
   7.1701673   9.5281673  58.1418903   7.6091673   8.8311673  58.4298903
   7.3771673  10.1521673  58.7148903   7.2661673   9.5171673  58.2688903
   4.2661673   2.4911673  69.5718903   4.9881673   2.9791673  69.5348903
   3.9961673   2.4611673  68.7428903   4.3331673   2.5591673  69.4438903
  20.1131673   9.2461673  60.6338903  20.8071673   8.7791673  60.3858903
  19.5741673   8.6481673  60.9708903  20.1361673   9.0881673  60.6468903
   3.6611673   3.5431673  73.8498903   3.2401673   3.0251673  73.2888903
   3.3091673   4.3291673  73.7068903   3.5471673   3.5831673  73.7458903
  18.6081673   2.0931673  67.2498903  18.3221673   2.4941673  67.9698903
  19.4681673   2.0311673  67.3768903  18.6931673   2.1431673  67.3748903
  19.7391673   7.7261673  67.7788903  20.0291673   7.9831673  66.9978903
  20.4341673   7.8221673  68.2978903  19.8851673   7.7781673  67.7398903
  16.3441673   6.3291673  59.7608903  16.6781673   5.5231673  59.7958903
  15.5891673   6.2571673  60.1908903  16.2821673   6.1991673  59.8298903
  19.2661673   4.1231673  73.1718903  19.8941673   3.5741673  72.9158903
  19.2051673   4.6881673  72.5098903  19.3501673   4.1261673  73.0358903
  13.7181673   4.2041673  59.1638903  14.4021673   3.6901673  58.9948903
  13.3011673   4.2501673  58.3988903  13.7571673   4.1351673  59.0258903
   8.4001673   5.3541673  70.4678903   8.1021673   5.9461673  71.0348903
   8.4551673   5.7961673  69.7188903   8.3641673   5.5071673  70.4408903
   6.3791673   4.3041673  73.8658903   5.5731673   4.0141673  74.0328903
   6.2901673   5.1721673  73.8718903   6.2471673   4.3891673  73.8908903
  10.9161673   1.7771673  69.9588903  11.3921673   2.1511673  70.5868903
  10.0931673   1.9111673  70.2178903  10.8651673   1.8521673  70.0898903
  10.1801673   9.1701673  65.1868903  10.7261673   9.8491673  65.2408903
   9.8301673   9.2521673  64.3918903  10.2091673   9.2831673  65.0768903
   8.3631673   7.3981673  68.5758903   7.7391673   7.9801673  68.3938903
   8.6111673   7.1121673  67.7898903   8.3071673   7.4421673  68.4328903
  12.6721673   4.0321673  75.5648903  13.4291673   4.3181673  75.2388903
  12.1251673   4.0841673  74.8868903  12.7031673   4.0821673  75.4158903
  16.5811673   6.5821673  74.0688903  16.9271673   6.8521673  74.8228903
  16.8751673   7.1641673  73.4888903  16.6761673   6.7081673  74.0948903
   9.9571673   2.1741673  58.4908903   9.1521673   1.9971673  58.2058903
   9.9241673   3.0251673  58.6828903   9.8331673   2.2731673  58.4778903
  11.0161673   9.0471673  74.4558903  11.4941673   8.4471673  74.0398903
  10.6651673   8.6041673  75.1208903  11.0351673   8.8931673  74.4928903
  17.6041673   2.3541673  62.6368903  18.0801673   1.6251673  62.5888903
  16.7831673   2.0681673  62.5608903  17.5531673   2.2041673  62.6178903
  11.0751673   4.2661673  73.4758903  10.2801673   4.2021673  73.8268903
  11.1461673   5.1131673  73.2808903  10.9681673   4.3811673  73.4988903
   6.9051673  10.4731673  68.7928903   6.9161673  10.5321673  69.6628903
   6.4801673   9.7261673  68.6428903   6.8441673  10.3711673  68.8988903
  13.8201673   3.5211673  64.9918903  13.8961673   3.8621673  65.7908903
  13.9891673   2.6741673  65.1128903  13.8561673   3.4461673  65.1278903
  11.3421673   2.7951673  64.5568903  11.0441673   2.4801673  65.3138903
  12.0371673   3.2681673  64.7918903  11.4011673   2.8181673  64.7038903
  11.5641673   6.9131673  72.5838903  12.2511673   6.7991673  73.1088903
  11.6981673   7.7041673  72.2398903  11.6851673   7.0131673  72.6108903
   3.6691673   9.9711673  74.2348903   3.0151673   9.4021673  74.3328903
   3.2941673  10.7441673  74.3858903   3.5171673  10.0011673  74.2718903
  15.2711673   9.7511673  67.0868903  14.8201673  10.3941673  67.4658903
  15.9791673   9.6721673  67.5918903  15.3091673   9.8341673  67.2178903
  11.9721673   4.8411673  70.0168903  11.2781673   5.2431673  70.3598903
  12.6491673   5.2741673  70.3558903  11.9691673   4.9641673  70.1178903
  12.2941673   6.4321673  63.1858903  12.0891673   7.2651673  63.0268903
  11.5191673   6.0501673  63.3078903  12.1491673   6.4991673  63.1808903
   7.6561673   6.6941673  59.5948903   8.0971673   6.7741673  60.3428903
   6.8511673   6.4781673  59.8528903   7.6021673   6.6741673  59.7438903
  16.5641673   8.4651673  63.1688903  16.3901673   7.8111673  63.7188903
  17.2771673   8.1941673  62.7458903  16.6441673   8.3281673  63.1878903
   4.9851673   5.7641673  60.1958903   4.7411673   5.4571673  60.9758903
   4.9521673   5.0611673  59.6798903   4.9441673   5.6151673  60.2348903
   7.8041673   4.0091673  58.9388903   6.9861673   3.7411673  59.0788903
   7.7761673   4.8611673  59.1238903   7.6791673   4.0961673  58.9868903
  14.2391673   5.9181673  70.8598903  14.4451673   6.2191673  71.6518903
  14.1781673   6.6401673  70.3748903  14.2601673   6.0691673  70.9048903
  13.7731673  10.1321673  75.1058903  13.0201673  10.1141673  74.6648903
  13.9411673  10.9841673  75.1898903  13.6871673  10.2551673  75.0528903
  19.0511673   4.5571673  70.3178903  19.0191673   3.6951673  70.1828903
  18.3581673   4.8591673  69.8838903  18.9441673   4.4741673  70.2338903
   7.4451673   9.7551673  74.5238903   7.4861673   9.8811673  75.3868903
   8.0961673   9.1951673  74.3678903   7.5471673   9.6911673  74.6288903
  17.1561673   7.8171673  69.1148903  17.6831673   7.7341673  68.4238903
  16.7651673   7.0391673  69.1688903  17.1761673   7.6901673  69.0208903
   5.0381673   8.1381673  75.8838903   5.6331673   8.5691673  76.3558903
   4.6741673   8.7621673  75.3948903   5.0721673   8.2941673  75.8808903
   2.9651673   6.1271673  72.8128903   2.3911673   6.5431673  73.3218903
   3.6981673   6.5921673  72.9078903   2.9891673   6.2571673  72.9018903
   4.7511673   9.3941673  61.5878903   4.6061673   9.5501673  60.7418903
   5.6171673   9.4731673  61.6658903   4.8581673   9.4291673  61.4748903
   8.9181673   1.7911673  61.3158903   9.0181673   1.9301673  60.4608903
   9.7361673   1.7311673  61.6118903   9.0531673   1.8021673  61.2328903
  18.0781673   9.8551673  58.7958903  18.7151673   9.7211673  59.3768903
  17.7371673   9.0611673  58.6788903  18.1221673   9.7181673  58.8638903
  18.2731673   2.2731673  75.5288903  18.9071673   2.1031673  76.1028903
  18.6901673   2.6761673  74.8768903  18.4281673   2.3081673  75.5178903
  14.1531673   6.1201673  61.1178903  13.9021673   5.9921673  61.9438903
  13.8361673   5.4251673  60.6968903  14.0691673   5.9991673  61.1778903
  15.6841673   2.3841673  76.8838903  16.5551673   2.3481673  76.8478903
  15.4651673   2.8041673  76.1518903  15.7811673   2.4401673  76.7708903
   5.4381673   8.2091673  68.0648903   5.3591673   7.3991673  67.7488903
   4.9941673   8.6961673  67.4928903   5.3611673   8.1611673  67.9338903
  11.0391673   4.3281673  60.5478903  11.7561673   3.9811673  60.1918903
  11.0051673   5.1281673  60.1998903  11.1401673   4.3951673  60.4438903
   3.0101673  10.4531673  71.6458903   3.5031673  10.3971673  72.3638903
   3.1981673   9.7201673  71.2108903   3.1111673  10.3361673  71.6878903
  18.4011673   7.3261673  42.4286493  19.1021673   6.8071673  42.4246493
  17.8141673   6.8811673  41.9596493  18.4181673   7.1831673  42.3586493
   5.0081673   3.0801673  40.0926493   4.6161673   2.7091673  39.4066493
   4.9281673   2.4821673  40.7216493   4.9381673   2.9371673  40.0836493
   4.6351673   4.7211673  43.9926493   5.2431673   4.5511673  44.5956493
   3.8841673   4.5811673  44.4136493   4.6141673   4.6751673  44.1436493
   3.5261673   7.8121673  40.0696493   3.9931673   7.8961673  39.3376493
   3.9811673   7.2341673  40.5386493   3.6621673   7.7391673  40.0306493
   8.6401673   4.2851673  56.2356493   8.4041673   4.2821673  57.0756493
   7.8921673   4.1371673  55.8116493   8.4941673   4.2621673  56.2966493
   8.6221673   7.4771673  53.4986493   8.7601673   8.2371673  53.0916493
   9.4131673   7.1121673  53.5256493   8.7591673   7.5361673  53.4426493
   9.7171673   5.3621673  48.0036493  10.0651673   4.5631673  48.0336493
  10.3821673   5.8661673  47.7486493   9.8671673   5.3181673  47.9706493
   9.7741673   4.8111673  44.2146493  10.1051673   4.1671673  44.7006493
  10.0141673   4.6001673  43.4036493   9.8581673   4.6851673  44.1666493
   7.7181673   6.5961673  43.7636493   7.1391673   6.3211673  44.3556493
   8.3421673   5.9871673  43.7886493   7.7251673   6.4661673  43.8546493
  13.8611673   8.8841673  41.2856493  14.5881673   9.3561673  41.3876493
  14.0901673   8.0901673  41.5656493  14.0031673   8.8371673  41.3426493
  12.0291673   9.2761673  43.2756493  12.2431673   9.8031673  43.9376493
  12.7961673   9.1021673  42.8966493  12.1741673   9.3281673  43.3176493
   3.4231673   7.4221673  44.2146493   4.0791673   6.8471673  44.2296493
   3.8121673   8.1711673  43.9936493   3.5781673   7.4471673  44.1846493
  14.4681673   9.2861673  51.5806493  15.2121673   9.7421673  51.5706493
  14.3471673   9.0721673  50.7436493  14.5601673   9.3221673  51.4556493
   4.2411673   5.9091673  47.7146493   4.6641673   5.5531673  47.0406493
   4.5651673   5.4871673  48.4066493   4.3511673   5.7941673  47.7176493
   7.4721673   8.7611673  47.0106493   8.3161673   8.8651673  46.8156493
   7.1751673   9.5791673  47.0786493   7.5531673   8.8971673  46.9916493
  16.0421673  10.4711673  41.6856493  16.7071673  10.3231673  41.1406493
  16.4021673  10.3881673  42.4756493  16.1941673  10.4371673  41.7216493
   6.4701673   9.9801673  52.7506493   6.7621673   9.9131673  53.5706493
   5.8441673   9.3751673  52.7056493   6.4211673   9.8811673  52.8656493
  13.7221673   6.4711673  55.2846493  13.6881673   6.8531673  56.0686493
  14.5761673   6.4291673  55.1136493  13.8431673   6.5211673  55.3756493
  10.8601673   6.6681673  40.0346493  10.6791673   7.2131673  40.6916493
  11.6261673   6.9581673  39.7336493  10.9461673   6.7921673  40.0876493
   4.4631673   8.1421673  51.8726493   3.7651673   7.6341673  51.9986493
   4.7231673   7.9371673  51.0646493   4.3981673   8.0371673  51.7716493
  12.1741673   9.6351673  52.7826493  12.9421673   9.5551673  52.3766493
  11.5911673   9.5141673  52.1446493  12.2011673   9.6051673  52.6286493
  18.4511673  10.2381673  45.6836493  17.9961673  10.9551673  45.8846493
  17.8371673   9.6671673  45.4416493  18.2931673  10.2601673  45.6776493
  15.4481673   6.0831673  45.2276493  16.1491673   5.6011673  45.4166493
  14.7881673   5.5141673  45.2726493  15.4541673   5.9281673  45.2616493
   5.8241673   6.9931673  54.4396493   6.6651673   7.0561673  54.2176493
   5.7871673   7.3901673  55.2156493   5.9431673   7.0611673  54.5216493
   7.7871673   2.5041673  49.1886493   7.9591673   2.2941673  50.0176493
   7.1321673   1.9701673  48.9726493   7.7161673   2.3941673  49.2796493
   8.5371673   2.4421673  51.7786493   8.5901673   3.2891673  51.9806493
   8.2521673   2.0721673  52.5156493   8.5031673   2.5121673  51.9166493
  14.7141673   3.1371673  50.9086493  14.2001673   2.7251673  51.4796493
  14.5881673   3.9811673  51.0896493  14.6201673   3.2011673  51.0196493
  17.9671673   3.5761673  41.0356493  18.0861673   3.2891673  41.8506493
  18.7741673   3.5971673  40.7056493  18.1031673   3.5371673  41.1076493
   5.1031673   3.3081673  46.3666493   5.9541673   3.2281673  46.1936493
   4.7461673   2.6261673  45.9546493   5.1761673   3.1951673  46.2796493
   3.8701673  10.0331673  47.6036493   3.1971673   9.5351673  47.3586493
   4.2731673  10.2181673  46.8526493   3.8301673   9.9871673  47.4566493
  20.2011673   8.0851673  55.2896493  19.5191673   8.3951673  54.8426493
  19.8321673   7.6271673  55.9346493  20.0451673   8.0631673  55.3186493
   7.4711673   3.3151673  44.6016493   8.1841673   3.8101673  44.6916493
   7.6931673   2.7481673  43.9756493   7.6091673   3.3041673  44.5226493
  11.9941673   7.0181673  46.9286493  11.4711673   7.6521673  46.6356493
  12.3041673   6.6541673  46.1996493  11.9621673   7.0581673  46.7776493
   6.0691673   4.8061673  49.6886493   6.5361673   5.0951673  50.3666493
   6.6411673   4.3281673  49.2346493   6.2231673   4.7781673  49.7216493
   2.6351673   2.4761673  48.2326493   3.0661673   2.3471673  47.4856493
   2.4301673   3.3241673  48.2066493   2.6681673   2.5821673  48.1186493
  18.0351673   8.4671673  53.3796493  17.3641673   8.9811673  53.5976493
  18.0981673   8.5671673  52.5156493  17.9451673   8.5581673  53.2846493
   6.7191673   5.9921673  46.5146493   6.8451673   6.8351673  46.7016493
   7.3871673   5.5931673  46.9106493   6.8371673   6.0581673  46.6006493
  10.0311673   9.2161673  50.9756493   9.7541673   8.5751673  50.4526493
   9.8231673   9.9421673  50.5376493   9.9601673   9.2291673  50.8336493
  15.3331673   3.9991673  55.4006493  15.8171673   4.7171673  55.4986493
  15.7271673   3.5721673  54.7496493  15.4631673   4.0421673  55.3186493
   9.6291673   6.8441673  56.5776493   9.9831673   6.6661673  57.3546493
   9.1931673   6.1151673  56.3786493   9.6171673   6.7101673  56.6636493
  17.7621673   4.6301673  45.4706493  18.1181673   4.2801673  46.1856493
  17.7541673   3.9691673  44.9006493  17.8141673   4.4801673  45.4916493
  13.8071673   7.6961673  49.3146493  13.2041673   7.4001673  48.7576493
  14.3521673   8.1481673  48.8056493  13.7981673   7.7191673  49.1566493
  13.8201673   4.5471673  48.7146493  13.0231673   4.7711673  48.9886493
  14.0781673   3.9531673  49.2996493  13.7401673   4.4921673  48.8416493
   7.7121673   9.3591673  43.1626493   7.5651673   8.5831673  43.5336493
   8.4011673   9.2121673  42.6476493   7.7921673   9.2221673  43.1416493
  10.0041673   8.8751673  41.5646493  10.6261673   9.0381673  42.1546493
  10.0401673   9.5661673  41.0326493  10.1011673   9.0011673  41.5736493
  17.0801673   2.5451673  53.5606493  17.1351673   2.6701673  52.6986493
  17.8331673   2.8651673  53.8626493  17.1991673   2.6101673  53.4776493
  13.2711673   7.8941673  57.8376493  13.4351673   8.1771673  58.6466493
  13.5341673   8.5551673  57.3326493  13.3341673   8.0341673  57.8826493
  12.8111673   2.3511673  53.1606493  12.6561673   2.9611673  53.7646493
  13.3451673   1.7931673  53.5666493  12.8671673   2.3591673  53.3096493
  16.4211673   5.0801673  49.6876493  15.9421673   5.3781673  49.0216493
  16.0651673   4.3041673  49.8656493  16.2981673   5.0091673  49.6156493
  10.4181673   2.7981673  48.2496493   9.5711673   2.6041673  48.3306493
  10.7421673   2.6331673  49.0426493  10.3401673   2.7451673  48.3786493
   7.1701673   9.5281673  39.1356493   7.6091673   8.8311673  39.4236493
   7.3771673  10.1521673  39.7086493   7.2661673   9.5171673  39.2626493
   4.2661673   2.4911673  50.5656493   4.9881673   2.9791673  50.5286493
   3.9961673   2.4611673  49.7366493   4.3331673   2.5591673  50.4376493
  20.1131673   9.2461673  41.6276493  20.8071673   8.7791673  41.3796493
  19.5741673   8.6481673  41.9646493  20.1361673   9.0881673  41.6406493
   3.6611673   3.5431673  54.8436493   3.2401673   3.0251673  54.2826493
   3.3091673   4.3291673  54.7006493   3.5471673   3.5831673  54.7396493
  18.6081673   2.0931673  48.2436493  18.3221673   2.4941673  48.9636493
  19.4681673   2.0311673  48.3706493  18.6931673   2.1431673  48.3686493
  19.7391673   7.7261673  48.7726493  20.0291673   7.9831673  47.9916493
  20.4341673   7.8221673  49.2916493  19.8851673   7.7781673  48.7336493
  16.3441673   6.3291673  40.7546493  16.6781673   5.5231673  40.7896493
  15.5891673   6.2571673  41.1846493  16.2821673   6.1991673  40.8236493
  19.2661673   4.1231673  54.1656493  19.8941673   3.5741673  53.9096493
  19.2051673   4.6881673  53.5036493  19.3501673   4.1261673  54.0296493
  13.7181673   4.2041673  40.1576493  14.4021673   3.6901673  39.9886493
  13.3011673   4.2501673  39.3926493  13.7571673   4.1351673  40.0196493
   8.4001673   5.3541673  51.4616493   8.1021673   5.9461673  52.0286493
   8.4551673   5.7961673  50.7126493   8.3641673   5.5071673  51.4346493
   6.3791673   4.3041673  54.8596493   5.5731673   4.0141673  55.0266493
   6.2901673   5.1721673  54.8656493   6.2471673   4.3891673  54.8846493
  10.9161673   1.7771673  50.9526493  11.3921673   2.1511673  51.5806493
  10.0931673   1.9111673  51.2116493  10.8651673   1.8521673  51.0836493
  10.1801673   9.1701673  46.1806493  10.7261673   9.8491673  46.2346493
   9.8301673   9.2521673  45.3856493  10.2091673   9.2831673  46.0706493
   8.3631673   7.3981673  49.5696493   7.7391673   7.9801673  49.3876493
   8.6111673   7.1121673  48.7836493   8.3071673   7.4421673  49.4266493
  12.6721673   4.0321673  56.5586493  13.4291673   4.3181673  56.2326493
  12.1251673   4.0841673  55.8806493  12.7031673   4.0821673  56.4096493
  16.5811673   6.5821673  55.0626493  16.9271673   6.8521673  55.8166493
  16.8751673   7.1641673  54.4826493  16.6761673   6.7081673  55.0886493
   9.9571673   2.1741673  39.4846493   9.1521673   1.9971673  39.1996493
   9.9241673   3.0251673  39.6766493   9.8331673   2.2731673  39.4716493
  11.0161673   9.0471673  55.4496493  11.4941673   8.4471673  55.0336493
  10.6651673   8.6041673  56.1146493  11.0351673   8.8931673  55.4866493
  17.6041673   2.3541673  43.6306493  18.0801673   1.6251673  43.5826493
  16.7831673   2.0681673  43.5546493  17.5531673   2.2041673  43.6116493
  11.0751673   4.2661673  54.4696493  10.2801673   4.2021673  54.8206493
  11.1461673   5.1131673  54.2746493  10.9681673   4.3811673  54.4926493
   6.9051673  10.4731673  49.7866493   6.9161673  10.5321673  50.6566493
   6.4801673   9.7261673  49.6366493   6.8441673  10.3711673  49.8926493
  13.8201673   3.5211673  45.9856493  13.8961673   3.8621673  46.7846493
  13.9891673   2.6741673  46.1066493  13.8561673   3.4461673  46.1216493
  11.3421673   2.7951673  45.5506493  11.0441673   2.4801673  46.3076493
  12.0371673   3.2681673  45.7856493  11.4011673   2.8181673  45.6976493
  11.5641673   6.9131673  53.5776493  12.2511673   6.7991673  54.1026493
  11.6981673   7.7041673  53.2336493  11.6851673   7.0131673  53.6046493
   3.6691673   9.9711673  55.2286493   3.0151673   9.4021673  55.3266493
   3.2941673  10.7441673  55.3796493   3.5171673  10.0011673  55.2656493
  15.2711673   9.7511673  48.0806493  14.8201673  10.3941673  48.4596493
  15.9791673   9.6721673  48.5856493  15.3091673   9.8341673  48.2116493
  11.9721673   4.8411673  51.0106493  11.2781673   5.2431673  51.3536493
  12.6491673   5.2741673  51.3496493  11.9691673   4.9641673  51.1116493
  17.3491673   7.4341673  57.5906493  18.1251673   7.0441673  57.6736493
  16.8801673   7.0981673  58.2456493  17.3941673   7.3271673  57.6996493
  12.2941673   6.4321673  44.1796493  12.0891673   7.2651673  44.0206493
  11.5191673   6.0501673  44.3016493  12.1491673   6.4991673  44.1746493
   7.6561673   6.6941673  40.5886493   8.0971673   6.7741673  41.3366493
   6.8511673   6.4781673  40.8466493   7.6021673   6.6741673  40.7376493
  16.5641673   8.4651673  44.1626493  16.3901673   7.8111673  44.7126493
  17.2771673   8.1941673  43.7396493  16.6441673   8.3281673  44.1816493
   4.9851673   5.7641673  41.1896493   4.7411673   5.4571673  41.9696493
   4.9521673   5.0611673  40.6736493   4.9441673   5.6151673  41.2286493
   7.8041673   4.0091673  39.9326493   6.9861673   3.7411673  40.0726493
   7.7761673   4.8611673  40.1176493   7.6791673   4.0961673  39.9806493
  14.2391673   5.9181673  51.8536493  14.4451673   6.2191673  52.6456493
  14.1781673   6.6401673  51.3686493  14.2601673   6.0691673  51.8986493
  13.7731673  10.1321673  56.0996493  13.0201673  10.1141673  55.6586493
  13.9411673  10.9841673  56.1836493  13.6871673  10.2551673  56.0466493
  19.0511673   4.5571673  51.3116493  19.0191673   3.6951673  51.1766493
  18.3581673   4.8591673  50.8776493  18.9441673   4.4741673  51.2276493
   7.4451673   9.7551673  55.5176493   7.4861673   9.8811673  56.3806493
   8.0961673   9.1951673  55.3616493   7.5471673   9.6911673  55.6226493
  17.1561673   7.8171673  50.1086493  17.6831673   7.7341673  49.4176493
  16.7651673   7.0391673  50.1626493  17.1761673   7.6901673  50.0146493
   5.0381673   8.1381673  56.8776493   5.6331673   8.5691673  57.3496493
   4.6741673   8.7621673  56.3886493   5.0721673   8.2941673  56.8746493
   2.9651673   6.1271673  53.8066493   2.3911673   6.5431673  54.3156493
   3.6981673   6.5921673  53.9016493   2.9891673   6.2571673  53.8956493
   4.7511673   9.3941673  42.5816493   4.6061673   9.5501673  41.7356493
   5.6171673   9.4731673  42.6596493   4.8581673   9.4291673  42.4686493
   8.9181673   1.7911673  42.3096493   9.0181673   1.9301673  41.4546493
   9.7361673   1.7311673  42.6056493   9.0531673   1.8021673  42.2266493
  18.0781673   9.8551673  39.7896493  18.7151673   9.7211673  40.3706493
  17.7371673   9.0611673  39.6726493  18.1221673   9.7181673  39.8576493
  18.2731673   2.2731673  56.5226493  18.9071673   2.1031673  57.0966493
  18.6901673   2.6761673  55.8706493  18.4281673   2.3081673  56.5116493
  14.1531673   6.1201673  42.1116493  13.9021673   5.9921673  42.9376493
  13.8361673   5.4251673  41.6906493  14.0691673   5.9991673  42.1716493
  15.6841673   2.3841673  57.8776493  16.5551673   2.3481673  57.8416493
  15.4651673   2.8041673  57.1456493  15.7811673   2.4401673  57.7646493
   5.4381673   8.2091673  49.0586493   5.3591673   7.3991673  48.7426493
   4.9941673   8.6961673  48.4866493   5.3611673   8.1611673  48.9276493
  11.0391673   4.3281673  41.5416493  11.7561673   3.9811673  41.1856493
  11.0051673   5.1281673  41.1936493  11.1401673   4.3951673  41.4376493
   3.0101673  10.4531673  52.6396493   3.5031673  10.3971673  53.3576493
   3.1981673   9.7201673  52.2046493   3.1111673  10.3361673  52.6816493
  18.4011673   7.3261673  23.4224083  19.1021673   6.8071673  23.4184083
  17.8141673   6.8811673  22.9534083  18.4181673   7.1831673  23.3524083
   5.0081673   3.0801673  21.0864083   4.6161673   2.7091673  20.4004083
   4.9281673   2.4821673  21.7154083   4.9381673   2.9371673  21.0774083
   4.6351673   4.7211673  24.9864083   5.2431673   4.5511673  25.5894083
   3.8841673   4.5811673  25.4074083   4.6141673   4.6751673  25.1374083
   3.5261673   7.8121673  21.0634083   3.9931673   7.8961673  20.3314083
   3.9811673   7.2341673  21.5324083   3.6621673   7.7391673  21.0244083
   8.6401673   4.2851673  37.2294083   8.4041673   4.2821673  38.0694083
   7.8921673   4.1371673  36.8054083   8.4941673   4.2621673  37.2904083
   8.6221673   7.4771673  34.4924083   8.7601673   8.2371673  34.0854083
   9.4131673   7.1121673  34.5194083   8.7591673   7.5361673  34.4364083
   9.7171673   5.3621673  28.9974083  10.0651673   4.5631673  29.0274083
  10.3821673   5.8661673  28.7424083   9.8671673   5.3181673  28.9644083
   9.7741673   4.8111673  25.2084083  10.1051673   4.1671673  25.6944083
  10.0141673   4.6001673  24.3974083   9.8581673   4.6851673  25.1604083
   7.7181673   6.5961673  24.7574083   7.1391673   6.3211673  25.3494083
   8.3421673   5.9871673  24.7824083   7.7251673   6.4661673  24.8484083
  13.8611673   8.8841673  22.2794083  14.5881673   9.3561673  22.3814083
  14.0901673   8.0901673  22.5594083  14.0031673   8.8371673  22.3364083
  12.0291673   9.2761673  24.2694083  12.2431673   9.8031673  24.9314083
  12.7961673   9.1021673  23.8904083  12.1741673   9.3281673  24.3114083
   3.4231673   7.4221673  25.2084083   4.0791673   6.8471673  25.2234083
   3.8121673   8.1711673  24.9874083   3.5781673   7.4471673  25.1784083
  14.4681673   9.2861673  32.5744083  15.2121673   9.7421673  32.5644083
  14.3471673   9.0721673  31.7374083  14.5601673   9.3221673  32.4494083
   4.2411673   5.9091673  28.7084083   4.6641673   5.5531673  28.0344083
   4.5651673   5.4871673  29.4004083   4.3511673   5.7941673  28.7114083
   7.4721673   8.7611673  28.0044083   8.3161673   8.8651673  27.8094083
   7.1751673   9.5791673  28.0724083   7.5531673   8.8971673  27.9854083
  16.0421673  10.4711673  22.6794083  16.7071673  10.3231673  22.1344083
  16.4021673  10.3881673  23.4694083  16.1941673  10.4371673  22.7154083
   6.4701673   9.9801673  33.7444083   6.7621673   9.9131673  34.5644083
   5.8441673   9.3751673  33.6994083   6.4211673   9.8811673  33.8594083
  13.7221673   6.4711673  36.2784083  13.6881673   6.8531673  37.0624083
  14.5761673   6.4291673  36.1074083  13.8431673   6.5211673  36.3694083
  10.8601673   6.6681673  21.0284083  10.6791673   7.2131673  21.6854083
  11.6261673   6.9581673  20.7274083  10.9461673   6.7921673  21.0814083
   4.4631673   8.1421673  32.8664083   3.7651673   7.6341673  32.9924083
   4.7231673   7.9371673  32.0584083   4.3981673   8.0371673  32.7654083
  12.1741673   9.6351673  33.7764083  12.9421673   9.5551673  33.3704083
  11.5911673   9.5141673  33.1384083  12.2011673   9.6051673  33.6224083
  18.4511673  10.2381673  26.6774083  17.9961673  10.9551673  26.8784083
  17.8371673   9.6671673  26.4354083  18.2931673  10.2601673  26.6714083
  15.4481673   6.0831673  26.2214083  16.1491673   5.6011673  26.4104083
  14.7881673   5.5141673  26.2664083  15.4541673   5.9281673  26.2554083
   5.8241673   6.9931673  35.4334083   6.6651673   7.0561673  35.2114083
   5.7871673   7.3901673  36.2094083   5.9431673   7.0611673  35.5154083
   7.7871673   2.5041673  30.1824083   7.9591673   2.2941673  31.0114083
   7.1321673   1.9701673  29.9664083   7.7161673   2.3941673  30.2734083
   8.5371673   2.4421673  32.7724083   8.5901673   3.2891673  32.9744083
   8.2521673   2.0721673  33.5094083   8.5031673   2.5121673  32.9104083
  14.7141673   3.1371673  31.9024083  14.2001673   2.7251673  32.4734083
  14.5881673   3.9811673  32.0834083  14.6201673   3.2011673  32.0134083
  17.9671673   3.5761673  22.0294083  18.0861673   3.2891673  22.8444083
  18.7741673   3.5971673  21.6994083  18.1031673   3.5371673  22.1014083
   5.1031673   3.3081673  27.3604083   5.9541673   3.2281673  27.1874083
   4.7461673   2.6261673  26.9484083   5.1761673   3.1951673  27.2734083
   3.8701673  10.0331673  28.5974083   3.1971673   9.5351673  28.3524083
   4.2731673  10.2181673  27.8464083   3.8301673   9.9871673  28.4504083
  20.2011673   8.0851673  36.2834083  19.5191673   8.3951673  35.8364083
  19.8321673   7.6271673  36.9284083  20.0451673   8.0631673  36.3124083
   7.4711673   3.3151673  25.5954083   8.1841673   3.8101673  25.6854083
   7.6931673   2.7481673  24.9694083   7.6091673   3.3041673  25.5164083
  11.9941673   7.0181673  27.9224083  11.4711673   7.6521673  27.6294083
  12.3041673   6.6541673  27.1934083  11.9621673   7.0581673  27.7714083
   6.0691673   4.8061673  30.6824083   6.5361673   5.0951673  31.3604083
   6.6411673   4.3281673  30.2284083   6.2231673   4.7781673  30.7154083
   2.6351673   2.4761673  29.2264083   3.0661673   2.3471673  28.4794083
   2.4301673   3.3241673  29.2004083   2.6681673   2.5821673  29.1124083
  18.0351673   8.4671673  34.3734083  17.3641673   8.9811673  34.5914083
  18.0981673   8.5671673  33.5094083  17.9451673   8.5581673  34.2784083
   6.7191673   5.9921673  27.5084083   6.8451673   6.8351673  27.6954083
   7.3871673   5.5931673  27.9044083   6.8371673   6.0581673  27.5944083
  10.0311673   9.2161673  31.9694083   9.7541673   8.5751673  31.4464083
   9.8231673   9.9421673  31.5314083   9.9601673   9.2291673  31.8274083
  15.3331673   3.9991673  36.3944083  15.8171673   4.7171673  36.4924083
  15.7271673   3.5721673  35.7434083  15.4631673   4.0421673  36.3124083
   9.6291673   6.8441673  37.5714083   9.9831673   6.6661673  38.3484083
   9.1931673   6.1151673  37.3724083   9.6171673   6.7101673  37.6574083
  17.7621673   4.6301673  26.4644083  18.1181673   4.2801673  27.1794083
  17.7541673   3.9691673  25.8944083  17.8141673   4.4801673  26.4854083
  13.8071673   7.6961673  30.3084083  13.2041673   7.4001673  29.7514083
  14.3521673   8.1481673  29.7994083  13.7981673   7.7191673  30.1504083
  13.8201673   4.5471673  29.7084083  13.0231673   4.7711673  29.9824083
  14.0781673   3.9531673  30.2934083  13.7401673   4.4921673  29.8354083
   7.7121673   9.3591673  24.1564083   7.5651673   8.5831673  24.5274083
   8.4011673   9.2121673  23.6414083   7.7921673   9.2221673  24.1354083
  10.0041673   8.8751673  22.5584083  10.6261673   9.0381673  23.1484083
  10.0401673   9.5661673  22.0264083  10.1011673   9.0011673  22.5674083
  17.0801673   2.5451673  34.5544083  17.1351673   2.6701673  33.6924083
  17.8331673   2.8651673  34.8564083  17.1991673   2.6101673  34.4714083
  13.2711673   7.8941673  38.8314083  13.4351673   8.1771673  39.6404083
  13.5341673   8.5551673  38.3264083  13.3341673   8.0341673  38.8764083
  12.8111673   2.3511673  34.1544083  12.6561673   2.9611673  34.7584083
  13.3451673   1.7931673  34.5604083  12.8671673   2.3591673  34.3034083
  16.4211673   5.0801673  30.6814083  15.9421673   5.3781673  30.0154083
  16.0651673   4.3041673  30.8594083  16.2981673   5.0091673  30.6094083
  10.4181673   2.7981673  29.2434083   9.5711673   2.6041673  29.3244083
  10.7421673   2.6331673  30.0364083  10.3401673   2.7451673  29.3724083
   7.1701673   9.5281673  20.1294083   7.6091673   8.8311673  20.4174083
   7.3771673  10.1521673  20.7024083   7.2661673   9.5171673  20.2564083
   4.2661673   2.4911673  31.5594083   4.9881673   2.9791673  31.5224083
   3.9961673   2.4611673  30.7304083   4.3331673   2.5591673  31.4314083
  20.1131673   9.2461673  22.6214083  20.8071673   8.7791673  22.3734083
  19.5741673   8.6481673  22.9584083  20.1361673   9.0881673  22.6344083
   3.6611673   3.5431673  35.8374083   3.2401673   3.0251673  35.2764083
   3.3091673   4.3291673  35.6944083   3.5471673   3.5831673  35.7334083
  18.6081673   2.0931673  29.2374083  18.3221673   2.4941673  29.9574083
  19.4681673   2.0311673  29.3644083  18.6931673   2.1431673  29.3624083
  19.7391673   7.7261673  29.7664083  20.0291673   7.9831673  28.9854083
  20.4341673   7.8221673  30.2854083  19.8851673   7.7781673  29.7274083
  16.3441673   6.3291673  21.7484083  16.6781673   5.5231673  21.7834083
  15.5891673   6.2571673  22.1784083  16.2821673   6.1991673  21.8174083
  19.2661673   4.1231673  35.1594083  19.8941673   3.5741673  34.9034083
  19.2051673   4.6881673  34.4974083  19.3501673   4.1261673  35.0234083
  13.7181673   4.2041673  21.1514083  14.4021673   3.6901673  20.9824083
  13.3011673   4.2501673  20.3864083  13.7571673   4.1351673  21.0134083
   8.4001673   5.3541673  32.4554083   8.1021673   5.9461673  33.0224083
   8.4551673   5.7961673  31.7064083   8.3641673   5.5071673  32.4284083
   6.3791673   4.3041673  35.8534083   5.5731673   4.0141673  36.0204083
   6.2901673   5.1721673  35.8594083   6.2471673   4.3891673  35.8784083
  10.9161673   1.7771673  31.9464083  11.3921673   2.1511673  32.5744083
  10.0931673   1.9111673  32.2054083  10.8651673   1.8521673  32.0774083
  10.1801673   9.1701673  27.1744083  10.7261673   9.8491673  27.2284083
   9.8301673   9.2521673  26.3794083  10.2091673   9.2831673  27.0644083
   8.3631673   7.3981673  30.5634083   7.7391673   7.9801673  30.3814083
   8.6111673   7.1121673  29.7774083   8.3071673   7.4421673  30.4204083
  12.6721673   4.0321673  37.5524083  13.4291673   4.3181673  37.2264083
  12.1251673   4.0841673  36.8744083  12.7031673   4.0821673  37.4034083
  16.5811673   6.5821673  36.0564083  16.9271673   6.8521673  36.8104083
  16.8751673   7.1641673  35.4764083  16.6761673   6.7081673  36.0824083
   9.9571673   2.1741673  20.4784083   9.1521673   1.9971673  20.1934083
   9.9241673   3.0251673  20.6704083   9.8331673   2.2731673  20.4654083
  11.0161673   9.0471673  36.4434083  11.4941673   8.4471673  36.0274083
  10.6651673   8.6041673  37.1084083  11.0351673   8.8931673  36.4804083
  17.6041673   2.3541673  24.6244083  18.0801673   1.6251673  24.5764083
  16.7831673   2.0681673  24.5484083  17.5531673   2.2041673  24.6054083
  11.0751673   4.2661673  35.4634083  10.2801673   4.2021673  35.8144083
  11.1461673   5.1131673  35.2684083  10.9681673   4.3811673  35.4864083
   6.9051673  10.4731673  30.7804083   6.9161673  10.5321673  31.6504083
   6.4801673   9.7261673  30.6304083   6.8441673  10.3711673  30.8864083
  13.8201673   3.5211673  26.9794083  13.8961673   3.8621673  27.7784083
  13.9891673   2.6741673  27.1004083  13.8561673   3.4461673  27.1154083
  11.3421673   2.7951673  26.5444083  11.0441673   2.4801673  27.3014083
  12.0371673   3.2681673  26.7794083  11.4011673   2.8181673  26.6914083
  11.5641673   6.9131673  34.5714083  12.2511673   6.7991673  35.0964083
  11.6981673   7.7041673  34.2274083  11.6851673   7.0131673  34.5984083
   3.6691673   9.9711673  36.2224083   3.0151673   9.4021673  36.3204083
   3.2941673  10.7441673  36.3734083   3.5171673  10.0011673  36.2594083
  15.2711673   9.7511673  29.0744083  14.8201673  10.3941673  29.4534083
  15.9791673   9.6721673  29.5794083  15.3091673   9.8341673  29.2054083
  11.9721673   4.8411673  32.0044083  11.2781673   5.2431673  32.3474083
  12.6491673   5.2741673  32.3434083  11.9691673   4.9641673  32.1054083
  17.3491673   7.4341673  38.5844083  18.1251673   7.0441673  38.6674083
  16.8801673   7.0981673  39.2394083  17.3941673   7.3271673  38.6934083
  12.2941673   6.4321673  25.1734083  12.0891673   7.2651673  25.0144083
  11.5191673   6.0501673  25.2954083  12.1491673   6.4991673  25.1684083
   7.6561673   6.6941673  21.5824083   8.0971673   6.7741673  22.3304083
   6.8511673   6.4781673  21.8404083   7.6021673   6.6741673  21.7314083
  16.5641673   8.4651673  25.1564083  16.3901673   7.8111673  25.7064083
  17.2771673   8.1941673  24.7334083  16.6441673   8.3281673  25.1754083
   4.9851673   5.7641673  22.1834083   4.7411673   5.4571673  22.9634083
   4.9521673   5.0611673  21.6674083   4.9441673   5.6151673  22.2224083
   7.8041673   4.0091673  20.9264083   6.9861673   3.7411673  21.0664083
   7.7761673   4.8611673  21.1114083   7.6791673   4.0961673  20.9744083
  14.2391673   5.9181673  32.8474083  14.4451673   6.2191673  33.6394083
  14.1781673   6.6401673  32.3624083  14.2601673   6.0691673  32.8924083
  13.7731673  10.1321673  37.0934083  13.0201673  10.1141673  36.6524083
  13.9411673  10.9841673  37.1774083  13.6871673  10.2551673  37.0404083
  19.0511673   4.5571673  32.3054083  19.0191673   3.6951673  32.1704083
  18.3581673   4.8591673  31.8714083  18.9441673   4.4741673  32.2214083
   7.4451673   9.7551673  36.5114083   7.4861673   9.8811673  37.3744083
   8.0961673   9.1951673  36.3554083   7.5471673   9.6911673  36.6164083
  17.1561673   7.8171673  31.1024083  17.6831673   7.7341673  30.4114083
  16.7651673   7.0391673  31.1564083  17.1761673   7.6901673  31.0084083
   5.0381673   8.1381673  37.8714083   5.6331673   8.5691673  38.3434083
   4.6741673   8.7621673  37.3824083   5.0721673   8.2941673  37.8684083
   2.9651673   6.1271673  34.8004083   2.3911673   6.5431673  35.3094083
   3.6981673   6.5921673  34.8954083   2.9891673   6.2571673  34.8894083
   4.7511673   9.3941673  23.5754083   4.6061673   9.5501673  22.7294083
   5.6171673   9.4731673  23.6534083   4.8581673   9.4291673  23.4624083
   8.9181673   1.7911673  23.3034083   9.0181673   1.9301673  22.4484083
   9.7361673   1.7311673  23.5994083   9.0531673   1.8021673  23.2204083
  18.0781673   9.8551673  20.7834083  18.7151673   9.7211673  21.3644083
  17.7371673   9.0611673  20.6664083  18.1221673   9.7181673  20.8514083
  18.2731673   2.2731673  37.5164083  18.9071673   2.1031673  38.0904083
  18.6901673   2.6761673  36.8644083  18.4281673   2.3081673  37.5054083
  14.1531673   6.1201673  23.1054083  13.9021673   5.9921673  23.9314083
  13.8361673   5.4251673  22.6844083  14.0691673   5.9991673  23.1654083
  15.6841673   2.3841673  38.8714083  16.5551673   2.3481673  38.8354083
  15.4651673   2.8041673  38.1394083  15.7811673   2.4401673  38.7584083
   5.4381673   8.2091673  30.0524083   5.3591673   7.3991673  29.7364083
   4.9941673   8.6961673  29.4804083   5.3611673   8.1611673  29.9214083
  11.0391673   4.3281673  22.5354083  11.7561673   3.9811673  22.1794083
  11.0051673   5.1281673  22.1874083  11.1401673   4.3951673  22.4314083
   3.0101673  10.4531673  33.6334083   3.5031673  10.3971673  34.3514083
   3.1981673   9.7201673  33.1984083   3.1111673  10.3361673  33.6754083
  18.4011673   7.3261673   4.4161673  19.1021673   6.8071673   4.4121673
  17.8141673   6.8811673   3.9471673  18.4181673   7.1831673   4.3461673
   5.0081673   3.0801673   2.0801673   4.6161673   2.7091673   1.3941673
   4.9281673   2.4821673   2.7091673   4.9381673   2.9371673   2.0711673
   4.6351673   4.7211673   5.9801673   5.2431673   4.5511673   6.5831673
   3.8841673   4.5811673   6.4011673   4.6141673   4.6751673   6.1311673
   3.5261673   7.8121673   2.0571673   3.9931673   7.8961673   1.3251673
   3.9811673   7.2341673   2.5261673   3.6621673   7.7391673   2.0181673
   8.6401673   4.2851673  18.2231673   8.4041673   4.2821673  19.0631673
   7.8921673   4.1371673  17.7991673   8.4941673   4.2621673  18.2841673
   8.6221673   7.4771673  15.4861673   8.7601673   8.2371673  15.0791673
   9.4131673   7.1121673  15.5131673   8.7591673   7.5361673  15.4301673
   9.7171673   5.3621673   9.9911673  10.0651673   4.5631673  10.0211673
  10.3821673   5.8661673   9.7361673   9.8671673   5.3181673   9.9581673
   9.7741673   4.8111673   6.2021673  10.1051673   4.1671673   6.6881673
  10.0141673   4.6001673   5.3911673   9.8581673   4.6851673   6.1541673
   7.7181673   6.5961673   5.7511673   7.1391673   6.3211673   6.3431673
   8.3421673   5.9871673   5.7761673   7.7251673   6.4661673   5.8421673
  13.8611673   8.8841673   3.2731673  14.5881673   9.3561673   3.3751673
  14.0901673   8.0901673   3.5531673  14.0031673   8.8371673   3.3301673
  12.0291673   9.2761673   5.2631673  12.2431673   9.8031673   5.9251673
  12.7961673   9.1021673   4.8841673  12.1741673   9.3281673   5.3051673
   3.4231673   7.4221673   6.2021673   4.0791673   6.8471673   6.2171673
   3.8121673   8.1711673   5.9811673   3.5781673   7.4471673   6.1721673
  14.4681673   9.2861673  13.5681673  15.2121673   9.7421673  13.5581673
  14.3471673   9.0721673  12.7311673  14.5601673   9.3221673  13.4431673
   4.2411673   5.9091673   9.7021673   4.6641673   5.5531673   9.0281673
   4.5651673   5.4871673  10.3941673   4.3511673   5.7941673   9.7051673
   7.4721673   8.7611673   8.9981673   8.3161673   8.8651673   8.8031673
   7.1751673   9.5791673   9.0661673   7.5531673   8.8971673   8.9791673
  16.0421673  10.4711673   3.6731673  16.7071673  10.3231673   3.1281673
  16.4021673  10.3881673   4.4631673  16.1941673  10.4371673   3.7091673
   6.4701673   9.9801673  14.7381673   6.7621673   9.9131673  15.5581673
   5.8441673   9.3751673  14.6931673   6.4211673   9.8811673  14.8531673
  13.7221673   6.4711673  17.2721673  13.6881673   6.8531673  18.0561673
  14.5761673   6.4291673  17.1011673  13.8431673   6.5211673  17.3631673
  10.8601673   6.6681673   2.0221673  10.6791673   7.2131673   2.6791673
  11.6261673   6.9581673   1.7211673  10.9461673   6.7921673   2.0751673
   4.4631673   8.1421673  13.8601673   3.7651673   7.6341673  13.9861673
   4.7231673   7.9371673  13.0521673   4.3981673   8.0371673  13.7591673
  12.1741673   9.6351673  14.7701673  12.9421673   9.5551673  14.3641673
  11.5911673   9.5141673  14.1321673  12.2011673   9.6051673  14.6161673
  18.4511673  10.2381673   7.6711673  17.9961673  10.9551673   7.8721673
  17.8371673   9.6671673   7.4291673  18.2931673  10.2601673   7.6651673
  15.4481673   6.0831673   7.2151673  16.1491673   5.6011673   7.4041673
  14.7881673   5.5141673   7.2601673  15.4541673   5.9281673   7.2491673
   5.8241673   6.9931673  16.4271673   6.6651673   7.0561673  16.2051673
   5.7871673   7.3901673  17.2031673   5.9431673   7.0611673  16.5091673
   7.7871673   2.5041673  11.1761673   7.9591673   2.2941673  12.0051673
   7.1321673   1.9701673  10.9601673   7.7161673   2.3941673  11.2671673
   8.5371673   2.4421673  13.7661673   8.5901673   3.2891673  13.9681673
   8.2521673   2.0721673  14.5031673   8.5031673   2.5121673  13.9041673
  14.7141673   3.1371673  12.8961673  14.2001673   2.7251673  13.4671673
  14.5881673   3.9811673  13.0771673  14.6201673   3.2011673  13.0071673
  17.9671673   3.5761673   3.0231673  18.0861673   3.2891673   3.8381673
  18.7741673   3.5971673   2.6931673  18.1031673   3.5371673   3.0951673
   5.1031673   3.3081673   8.3541673   5.9541673   3.2281673   8.1811673
   4.7461673   2.6261673   7.9421673   5.1761673   3.1951673   8.2671673
   3.8701673  10.0331673   9.5911673   3.1971673   9.5351673   9.3461673
   4.2731673  10.2181673   8.8401673   3.8301673   9.9871673   9.4441673
  20.2011673   8.0851673  17.2771673  19.5191673   8.3951673  16.8301673
  19.8321673   7.6271673  17.9221673  20.0451673   8.0631673  17.3061673
   7.4711673   3.3151673   6.5891673   8.1841673   3.8101673   6.6791673
   7.6931673   2.7481673   5.9631673   7.6091673   3.3041673   6.5101673
  11.9941673   7.0181673   8.9161673  11.4711673   7.6521673   8.6231673
  12.3041673   6.6541673   8.1871673  11.9621673   7.0581673   8.7651673
   6.0691673   4.8061673  11.6761673   6.5361673   5.0951673  12.3541673
   6.6411673   4.3281673  11.2221673   6.2231673   4.7781673  11.7091673
   2.6351673   2.4761673  10.2201673   3.0661673   2.3471673   9.4731673
   2.4301673   3.3241673  10.1941673   2.6681673   2.5821673  10.1061673
  18.0351673   8.4671673  15.3671673  17.3641673   8.9811673  15.5851673
  18.0981673   8.5671673  14.5031673  17.9451673   8.5581673  15.2721673
   6.7191673   5.9921673   8.5021673   6.8451673   6.8351673   8.6891673
   7.3871673   5.5931673   8.8981673   6.8371673   6.0581673   8.5881673
  10.0311673   9.2161673  12.9631673   9.7541673   8.5751673  12.4401673
   9.8231673   9.9421673  12.5251673   9.9601673   9.2291673  12.8211673
  15.3331673   3.9991673  17.3881673  15.8171673   4.7171673  17.4861673
  15.7271673   3.5721673  16.7371673  15.4631673   4.0421673  17.3061673
   9.6291673   6.8441673  18.5651673   9.9831673   6.6661673  19.3421673
   9.1931673   6.1151673  18.3661673   9.6171673   6.7101673  18.6511673
  17.7621673   4.6301673   7.4581673  18.1181673   4.2801673   8.1731673
  17.7541673   3.9691673   6.8881673  17.8141673   4.4801673   7.4791673
  13.8071673   7.6961673  11.3021673  13.2041673   7.4001673  10.7451673
  14.3521673   8.1481673  10.7931673  13.7981673   7.7191673  11.1441673
  13.8201673   4.5471673  10.7021673  13.0231673   4.7711673  10.9761673
  14.0781673   3.9531673  11.2871673  13.7401673   4.4921673  10.8291673
   7.7121673   9.3591673   5.1501673   7.5651673   8.5831673   5.5211673
   8.4011673   9.2121673   4.6351673   7.7921673   9.2221673   5.1291673
  10.0041673   8.8751673   3.5521673  10.6261673   9.0381673   4.1421673
  10.0401673   9.5661673   3.0201673  10.1011673   9.0011673   3.5611673
  17.0801673   2.5451673  15.5481673  17.1351673   2.6701673  14.6861673
  17.8331673   2.8651673  15.8501673  17.1991673   2.6101673  15.4651673
  13.2711673   7.8941673  19.8251673  13.4351673   8.1771673  20.6341673
  13.5341673   8.5551673  19.3201673  13.3341673   8.0341673  19.8701673
  12.8111673   2.3511673  15.1481673  12.6561673   2.9611673  15.7521673
  13.3451673   1.7931673  15.5541673  12.8671673   2.3591673  15.2971673
  16.4211673   5.0801673  11.6751673  15.9421673   5.3781673  11.0091673
  16.0651673   4.3041673  11.8531673  16.2981673   5.0091673  11.6031673
  10.4181673   2.7981673  10.2371673   9.5711673   2.6041673  10.3181673
  10.7421673   2.6331673  11.0301673  10.3401673   2.7451673  10.3661673
   4.2661673   2.4911673  12.5531673   4.9881673   2.9791673  12.5161673
   3.9961673   2.4611673  11.7241673   4.3331673   2.5591673  12.4251673
  20.1131673   9.2461673   3.6151673  20.8071673   8.7791673   3.3671673
  19.5741673   8.6481673   3.9521673  20.1361673   9.0881673   3.6281673
   3.6611673   3.5431673  16.8311673   3.2401673   3.0251673  16.2701673
   3.3091673   4.3291673  16.6881673   3.5471673   3.5831673  16.7271673
  18.6081673   2.0931673  10.2311673  18.3221673   2.4941673  10.9511673
  19.4681673   2.0311673  10.3581673  18.6931673   2.1431673  10.3561673
  19.7391673   7.7261673  10.7601673  20.0291673   7.9831673   9.9791673
  20.4341673   7.8221673  11.2791673  19.8851673   7.7781673  10.7211673
  16.3441673   6.3291673   2.7421673  16.6781673   5.5231673   2.7771673
  15.5891673   6.2571673   3.1721673  16.2821673   6.1991673   2.8111673
  19.2661673   4.1231673  16.1531673  19.8941673   3.5741673  15.8971673
  19.2051673   4.6881673  15.4911673  19.3501673   4.1261673  16.0171673
  13.7181673   4.2041673   2.1451673  14.4021673   3.6901673   1.9761673
  13.3011673   4.2501673   1.3801673  13.7571673   4.1351673   2.0071673
   8.4001673   5.3541673  13.4491673   8.1021673   5.9461673  14.0161673
   8.4551673   5.7961673  12.7001673   8.3641673   5.5071673  13.4221673
   6.3791673   4.3041673  16.8471673   5.5731673   4.0141673  17.0141673
   6.2901673   5.1721673  16.8531673   6.2471673   4.3891673  16.8721673
  10.9161673   1.7771673  12.9401673  11.3921673   2.1511673  13.5681673
  10.0931673   1.9111673  13.1991673  10.8651673   1.8521673  13.0711673
  10.1801673   9.1701673   8.1681673  10.7261673   9.8491673   8.2221673
   9.8301673   9.2521673   7.3731673  10.2091673   9.2831673   8.0581673
   8.3631673   7.3981673  11.5571673   7.7391673   7.9801673  11.3751673
   8.6111673   7.1121673  10.7711673   8.3071673   7.4421673  11.4141673
  12.6721673   4.0321673  18.5461673  13.4291673   4.3181673  18.2201673
  12.1251673   4.0841673  17.8681673  12.7031673   4.0821673  18.3971673
  16.5811673   6.5821673  17.0501673  16.9271673   6.8521673  17.8041673
  16.8751673   7.1641673  16.4701673  16.6761673   6.7081673  17.0761673
  11.0161673   9.0471673  17.4371673  11.4941673   8.4471673  17.0211673
  10.6651673   8.6041673  18.1021673  11.0351673   8.8931673  17.4741673
  17.6041673   2.3541673   5.6181673  18.0801673   1.6251673   5.5701673
  16.7831673   2.0681673   5.5421673  17.5531673   2.2041673   5.5991673
  11.0751673   4.2661673  16.4571673  10.2801673   4.2021673  16.8081673
  11.1461673   5.1131673  16.2621673  10.9681673   4.3811673  16.4801673
   6.9051673  10.4731673  11.7741673   6.9161673  10.5321673  12.6441673
   6.4801673   9.7261673  11.6241673   6.8441673  10.3711673  11.8801673
  13.8201673   3.5211673   7.9731673  13.8961673   3.8621673   8.7721673
  13.9891673   2.6741673   8.0941673  13.8561673   3.4461673   8.1091673
  11.3421673   2.7951673   7.5381673  11.0441673   2.4801673   8.2951673
  12.0371673   3.2681673   7.7731673  11.4011673   2.8181673   7.6851673
  11.5641673   6.9131673  15.5651673  12.2511673   6.7991673  16.0901673
  11.6981673   7.7041673  15.2211673  11.6851673   7.0131673  15.5921673
   3.6691673   9.9711673  17.2161673   3.0151673   9.4021673  17.3141673
   3.2941673  10.7441673  17.3671673   3.5171673  10.0011673  17.2531673
  15.2711673   9.7511673  10.0681673  14.8201673  10.3941673  10.4471673
  15.9791673   9.6721673  10.5731673  15.3091673   9.8341673  10.1991673
  11.9721673   4.8411673  12.9981673  11.2781673   5.2431673  13.3411673
  12.6491673   5.2741673  13.3371673  11.9691673   4.9641673  13.0991673
  17.3491673   7.4341673  19.5781673  18.1251673   7.0441673  19.6611673
  16.8801673   7.0981673  20.2331673  17.3941673   7.3271673  19.6871673
  12.2941673   6.4321673   6.1671673  12.0891673   7.2651673   6.0081673
  11.5191673   6.0501673   6.2891673  12.1491673   6.4991673   6.1621673
   7.6561673   6.6941673   2.5761673   8.0971673   6.7741673   3.3241673
   6.8511673   6.4781673   2.8341673   7.6021673   6.6741673   2.7251673
  16.5641673   8.4651673   6.1501673  16.3901673   7.8111673   6.7001673
  17.2771673   8.1941673   5.7271673  16.6441673   8.3281673   6.1691673
   4.9851673   5.7641673   3.1771673   4.7411673   5.4571673   3.9571673
   4.9521673   5.0611673   2.6611673   4.9441673   5.6151673   3.2161673
   7.8041673   4.0091673   1.9201673   6.9861673   3.7411673   2.0601673
   7.7761673   4.8611673   2.1051673   7.6791673   4.0961673   1.9681673
  14.2391673   5.9181673  13.8411673  14.4451673   6.2191673  14.6331673
  14.1781673   6.6401673  13.3561673  14.2601673   6.0691673  13.8861673
  13.7731673  10.1321673  18.0871673  13.0201673  10.1141673  17.6461673
  13.9411673  10.9841673  18.1711673  13.6871673  10.2551673  18.0341673
  19.0511673   4.5571673  13.2991673  19.0191673   3.6951673  13.1641673
  18.3581673   4.8591673  12.8651673  18.9441673   4.4741673  13.2151673
   7.4451673   9.7551673  17.5051673   7.4861673   9.8811673  18.3681673
   8.0961673   9.1951673  17.3491673   7.5471673   9.6911673  17.6101673
  17.1561673   7.8171673  12.0961673  17.6831673   7.7341673  11.4051673
  16.7651673   7.0391673  12.1501673  17.1761673   7.6901673  12.0021673
   5.0381673   8.1381673  18.8651673   5.6331673   8.5691673  19.3371673
   4.6741673   8.7621673  18.3761673   5.0721673   8.2941673  18.8621673
   2.9651673   6.1271673  15.7941673   2.3911673   6.5431673  16.3031673
   3.6981673   6.5921673  15.8891673   2.9891673   6.2571673  15.8831673
   4.7511673   9.3941673   4.5691673   4.6061673   9.5501673   3.7231673
   5.6171673   9.4731673   4.6471673   4.8581673   9.4291673   4.4561673
   8.9181673   1.7911673   4.2971673   9.0181673   1.9301673   3.4421673
   9.7361673   1.7311673   4.5931673   9.0531673   1.8021673   4.2141673
  18.0781673   9.8551673   1.7771673  18.7151673   9.7211673   2.3581673
  17.7371673   9.0611673   1.6601673  18.1221673   9.7181673   1.8451673
  18.2731673   2.2731673  18.5101673  18.9071673   2.1031673  19.0841673
  18.6901673   2.6761673  17.8581673  18.4281673   2.3081673  18.4991673
  14.1531673   6.1201673   4.0991673  13.9021673   5.9921673   4.9251673
  13.8361673   5.4251673   3.6781673  14.0691673   5.9991673   4.1591673
  15.6841673   2.3841673  19.8651673  16.5551673   2.3481673  19.8291673
  15.4651673   2.8041673  19.1331673  15.7811673   2.4401673  19.7521673
   5.4381673   8.2091673  11.0461673   5.3591673   7.3991673  10.7301673
   4.9941673   8.6961673  10.4741673   5.3611673   8.1611673  10.9151673
  11.0391673   4.3281673   3.5291673  11.7561673   3.9811673   3.1731673
  11.0051673   5.1281673   3.1811673  11.1401673   4.3951673   3.4251673
   3.0101673  10.4531673  14.6271673   3.5031673  10.3971673  15.3451673
   3.1981673   9.7201673  14.1921673   3.1111673  10.3361673  14.6691673
  77.5278665  76.9707665  78.6610575  90.0000000  90.0000000  90.0000000
