GROningen MAchine for Chemical Simulation
   18
   34pq0     N1    1   3.736   3.646   3.522
   34pq0     C2    2   3.655   3.517   3.567
   34pq0     N3    3   3.703   3.465   3.672
   34pq0     C4    4   3.809   3.500   3.748
   34pq0     C5    5   3.884   3.607   3.717
   34pq0     C6    6   3.841   3.691   3.589
   34pq0     O6    7   3.908   3.785   3.563
   34pq0     C7    8   3.999   3.631   3.816
   34pq0    C10    9   4.099   3.740   3.810
   34pq0    N11   10   4.173   3.828   3.801
   34pq0     C8   11   3.988   3.532   3.906
   34pq0     N9   12   3.885   3.446   3.885
   34pq0     N2   13   3.546   3.476   3.492
   34pq0     H1   14   3.698   3.679   3.452
   34pq0     H2   15   4.042   3.516   3.976
   34pq0     H3   16   3.840   3.376   3.907
   34pq0     H4   17   3.525   3.540   3.436
   34pq0     H5   18   3.502   3.411   3.545
   7.75279   7.69708   7.86611
