GROningen MAchine for Chemical Simulation
 1062
    1C5    HO5'    1   3.340   5.199   3.350
    1C5     O5'    2   3.357   5.209   3.444
    1C5     C5'    3   3.425   5.326   3.489
    1C5     H5'    4   3.364   5.409   3.454
    1C5    H5''    5   3.520   5.324   3.434
    1C5     C4'    6   3.454   5.344   3.637
    1C5     H4'    7   3.475   5.450   3.652
    1C5     O4'    8   3.334   5.320   3.715
    1C5     C1'    9   3.370   5.288   3.848
    1C5     H1'   10   3.326   5.361   3.916
    1C5      N1   11   3.306   5.162   3.887
    1C5      C6   12   3.252   5.077   3.795
    1C5      H6   13   3.258   5.102   3.690
    1C5      C5   14   3.191   4.964   3.832
    1C5      H5   15   3.148   4.898   3.756
    1C5      C4   16   3.186   4.935   3.971
    1C5      N4   17   3.125   4.823   4.015
    1C5     H41   18   3.124   4.807   4.114
    1C5     H42   19   3.083   4.760   3.949
    1C5      N3   20   3.240   5.016   4.062
    1C5      C2   21   3.302   5.130   4.022
    1C5      O2   22   3.355   5.209   4.102
    1C5     C3'   23   3.552   5.251   3.705
    1C5     H3'   24   3.592   5.150   3.693
    1C5     C2'   25   3.522   5.276   3.851
    1C5     H2'   26   3.577   5.193   3.894
    1C5     O2'   27   3.576   5.398   3.898
    1C5    HO2'   28   3.569   5.397   3.994
    1C5     O3'   29   3.685   5.288   3.679
    2U        P   30   3.800   5.178   3.696
    2U      OP1   31   3.928   5.245   3.660
    2U      OP2   32   3.757   5.054   3.626
    2U      O5'   33   3.803   5.150   3.853
    2U      C5'   34   3.843   5.253   3.942
    2U      H5'   35   3.780   5.341   3.928
    2U     H5''   36   3.947   5.279   3.921
    2U      C4'   37   3.831   5.207   4.085
    2U      H4'   38   3.859   5.290   4.150
    2U      O4'   39   3.692   5.181   4.116
    2U      C1'   40   3.685   5.083   4.219
    2U      H1'   41   3.626   5.118   4.304
    2U       N1   42   3.607   4.969   4.169
    2U       C6   43   3.580   4.952   4.036
    2U       H6   44   3.622   5.021   3.965
    2U       C5   45   3.508   4.849   3.991
    2U       H5   46   3.492   4.835   3.884
    2U       C4   47   3.457   4.752   4.082
    2U       O4   48   3.394   4.650   4.052
    2U       N3   49   3.489   4.774   4.213
    2U       H3   50   3.451   4.701   4.285
    2U       C2   51   3.562   4.878   4.263
    2U       O2   52   3.587   4.888   4.382
    2U      C3'   53   3.899   5.076   4.121
    2U      H3'   54   3.933   4.984   4.073
    2U      C2'   55   3.829   5.043   4.251
    2U      H2'   56   3.864   4.941   4.263
    2U      O2'   57   3.875   5.122   4.359
    2U     HO2'   58   3.841   5.083   4.439
    2U      O3'   59   4.039   5.095   4.141
    3G        P   60   4.139   4.969   4.133
    3G      OP1   61   4.275   5.030   4.139
    3G      OP2   62   4.102   4.878   4.020
    3G      O5'   63   4.112   4.887   4.268
    3G      C5'   64   4.124   4.947   4.396
    3G      H5'   65   4.061   5.036   4.406
    3G     H5''   66   4.228   4.975   4.410
    3G      C4'   67   4.085   4.848   4.503
    3G      H4'   68   4.106   4.886   4.603
    3G      O4'   69   3.942   4.825   4.502
    3G      C1'   70   3.915   4.691   4.538
    3G      H1'   71   3.846   4.689   4.623
    3G       N9   72   3.839   4.628   4.430
    3G       C8   73   3.836   4.664   4.299
    3G       H8   74   3.894   4.747   4.262
    3G       N7   75   3.757   4.587   4.229
    3G       C5   76   3.706   4.498   4.320
    3G       C6   77   3.615   4.392   4.303
    3G       O6   78   3.558   4.356   4.200
    3G       N1   79   3.590   4.326   4.422
    3G       H1   80   3.525   4.250   4.420
    3G       C2   81   3.647   4.356   4.543
    3G       N2   82   3.608   4.279   4.648
    3G      H21   83   3.541   4.203   4.647
    3G      H22   84   3.648   4.301   4.738
    3G       N3   85   3.734   4.455   4.559
    3G       C4   86   3.758   4.520   4.445
    3G      C3'   87   4.141   4.710   4.478
    3G      H3'   88   4.185   4.654   4.396
    3G      C2'   89   4.048   4.620   4.557
    3G      H2'   90   4.076   4.525   4.510
    3G      O2'   91   4.078   4.614   4.695
    3G     HO2'   92   4.027   4.541   4.731
    3G      O3'   93   4.271   4.701   4.528
    4G        P   94   4.367   4.588   4.471
    4G      OP1   95   4.506   4.633   4.495
    4G      OP2   96   4.320   4.552   4.334
    4G      O5'   97   4.337   4.465   4.565
    4G      C5'   98   4.326   4.337   4.511
    4G      H5'   99   4.421   4.284   4.519
    4G     H5''  100   4.297   4.343   4.406
    4G      C4'  101   4.222   4.262   4.586
    4G      H4'  102   4.239   4.272   4.693
    4G      O4'  103   4.093   4.321   4.564
    4G      C1'  104   3.994   4.219   4.560
    4G      H1'  105   3.911   4.247   4.624
    4G       N9  106   3.937   4.220   4.427
    4G       C8  107   3.969   4.304   4.324
    4G       H8  108   4.044   4.381   4.337
    4G       N7  109   3.901   4.281   4.216
    4G       C5  110   3.819   4.174   4.249
    4G       C6  111   3.725   4.106   4.171
    4G       O6  112   3.698   4.120   4.051
    4G       N1  113   3.660   4.008   4.246
    4G       H1  114   3.588   3.955   4.200
    4G       C2  115   3.687   3.978   4.376
    4G       N2  116   3.614   3.878   4.430
    4G      H21  117   3.541   3.824   4.385
    4G      H22  118   3.633   3.856   4.527
    4G       N3  119   3.778   4.040   4.449
    4G       C4  120   3.840   4.137   4.379
    4G      C3'  121   4.206   4.119   4.543
    4G      H3'  122   4.236   4.050   4.464
    4G      C2'  123   4.064   4.086   4.588
    4G      H2'  124   4.052   3.996   4.528
    4G      O2'  125   4.053   4.053   4.725
    4G     HO2'  126   3.965   4.015   4.737
    4G      O3'  127   4.305   4.044   4.611
    5G        P  128   4.386   3.931   4.533
    5G      OP1  129   4.493   3.882   4.624
    5G      OP2  130   4.422   3.990   4.401
    5G      O5'  131   4.279   3.816   4.515
    5G      C5'  132   4.220   3.755   4.628
    5G      H5'  133   4.187   3.831   4.699
    5G     H5''  134   4.293   3.690   4.676
    5G      C4'  135   4.101   3.672   4.586
    5G      H4'  136   4.050   3.635   4.675
    5G      O4'  137   4.004   3.759   4.522
    5G      C1'  138   3.930   3.685   4.425
    5G      H1'  139   3.824   3.683   4.449
    5G       N9  140   3.936   3.755   4.297
    5G       C8  141   4.019   3.856   4.258
    5G       H8  142   4.098   3.891   4.323
    5G       N7  143   3.991   3.904   4.139
    5G       C5  144   3.884   3.827   4.096
    5G       C6  145   3.806   3.833   3.975
    5G       O6  146   3.818   3.911   3.879
    5G       N1  147   3.707   3.735   3.974
    5G       H1  148   3.647   3.731   3.894
    5G       C2  149   3.684   3.644   4.075
    5G       N2  150   3.583   3.556   4.055
    5G      H21  151   3.522   3.552   3.974
    5G      H22  152   3.566   3.490   4.129
    5G       N3  153   3.755   3.638   4.187
    5G       C4  154   3.851   3.732   4.191
    5G      C3'  155   4.126   3.565   4.481
    5G      H3'  156   4.201   3.539   4.406
    5G      C2'  157   3.987   3.543   4.422
    5G      H2'  158   4.016   3.490   4.332
    5G      O2'  159   3.907   3.459   4.504
    5G     HO2'  160   3.830   3.435   4.452
    5G      O3'  161   4.172   3.445   4.541
    6U        P  162   4.261   3.341   4.456
    6U      OP1  163   4.387   3.319   4.531
    6U      OP2  164   4.266   3.394   4.317
    6U      O5'  165   4.178   3.205   4.462
    6U      C5'  166   4.172   3.132   4.584
    6U      H5'  167   4.153   3.201   4.667
    6U     H5''  168   4.268   3.082   4.599
    6U      C4'  169   4.062   3.029   4.579
    6U      H4'  170   4.054   2.981   4.676
    6U      O4'  171   3.935   3.095   4.560
    6U      C1'  172   3.851   3.014   4.480
    6U      H1'  173   3.751   3.007   4.521
    6U       N1  174   3.830   3.084   4.354
    6U       C6  175   3.913   3.185   4.316
    6U       H6  176   3.997   3.211   4.380
    6U       C5  177   3.897   3.250   4.202
    6U       H5  178   3.964   3.332   4.174
    6U       C4  179   3.791   3.213   4.114
    6U       O4  180   3.764   3.265   4.006
    6U       N3  181   3.712   3.110   4.159
    6U       H3  182   3.630   3.079   4.094
    6U       C2  183   3.726   3.042   4.276
    6U       O2  184   3.651   2.951   4.309
    6U      C3'  185   4.070   2.932   4.464
    6U      H3'  186   4.118   2.924   4.366
    6U      C2'  187   3.926   2.884   4.452
    6U      H2'  188   3.935   2.835   4.356
    6U      O2'  189   3.886   2.790   4.549
    6U     HO2'  190   3.801   2.754   4.521
    6U      O3'  191   4.159   2.827   4.495
    7C        P  192   4.275   2.789   4.392
    7C      OP1  193   4.354   2.675   4.449
    7C      OP2  194   4.343   2.915   4.352
    7C      O5'  195   4.193   2.734   4.267
    7C      C5'  196   4.095   2.634   4.286
    7C      H5'  197   4.044   2.646   4.381
    7C     H5''  198   4.145   2.537   4.283
    7C      C4'  199   3.993   2.640   4.174
    7C      H4'  200   3.909   2.575   4.196
    7C      O4'  201   3.937   2.774   4.172
    7C      C1'  202   3.904   2.809   4.039
    7C      H1'  203   3.801   2.845   4.037
    7C       N1  204   3.982   2.924   3.998
    7C       C6  205   4.087   2.972   4.072
    7C       H6  206   4.113   2.923   4.165
    7C       C5  207   4.158   3.077   4.032
    7C       H5  208   4.241   3.113   4.093
    7C       C4  209   4.120   3.138   3.909
    7C       N4  210   4.185   3.245   3.863
    7C      H41  211   4.154   3.285   3.775
    7C      H42  212   4.263   3.284   3.914
    7C       N3  213   4.018   3.092   3.837
    7C       C2  214   3.948   2.985   3.880
    7C       O2  215   3.852   2.938   3.816
    7C      C3'  216   4.048   2.623   4.033
    7C      H3'  217   4.143   2.631   3.981
    7C      C2'  218   3.939   2.690   3.950
    7C      H2'  219   3.994   2.695   3.856
    7C      O2'  220   3.824   2.611   3.933
    7C     HO2'  221   3.771   2.654   3.865
    7C      O3'  222   4.061   2.486   4.000
    8G        P  223   4.201   2.431   3.945
    8G      OP1  224   4.173   2.353   3.821
    8G      OP2  225   4.271   2.366   4.059
    8G      O5'  226   4.282   2.562   3.905
    8G      C5'  227   4.348   2.566   3.781
    8G      H5'  228   4.414   2.479   3.771
    8G     H5''  229   4.407   2.657   3.773
    8G      C4'  230   4.246   2.564   3.669
    8G      H4'  231   4.181   2.478   3.684
    8G      O4'  232   4.159   2.678   3.682
    8G      C1'  233   4.193   2.778   3.587
    8G      H1'  234   4.102   2.832   3.562
    8G       N9  235   4.272   2.876   3.659
    8G       C8  236   4.328   2.857   3.784
    8G       H8  237   4.307   2.768   3.840
    8G       N7  238   4.403   2.956   3.822
    8G       C5  239   4.396   3.047   3.717
    8G       C6  240   4.459   3.172   3.700
    8G       O6  241   4.539   3.229   3.776
    8G       N1  242   4.421   3.232   3.581
    8G       H1  243   4.459   3.323   3.561
    8G       C2  244   4.336   3.179   3.489
    8G       N2  245   4.311   3.256   3.381
    8G      H21  246   4.347   3.348   3.362
    8G      H22  247   4.247   3.218   3.312
    8G       N3  248   4.279   3.060   3.501
    8G       C4  249   4.313   3.000   3.617
    8G      C3'  250   4.299   2.575   3.530
    8G      H3'  251   4.404   2.549   3.546
    8G      C2'  252   4.289   2.718   3.483
    8G      H2'  253   4.395   2.743   3.478
    8G      O2'  254   4.234   2.720   3.354
    8G     HO2'  255   4.246   2.808   3.319
    8G      O3'  256   4.319   2.463   3.449
    9C        P  257   4.459   2.391   3.458
    9C      OP1  258   4.466   2.285   3.354
    9C      OP2  259   4.483   2.356   3.601
    9C      O5'  260   4.561   2.507   3.424
    9C      C5'  261   4.696   2.492   3.460
    9C      H5'  262   4.730   2.388   3.460
    9C     H5''  263   4.706   2.533   3.560
    9C      C4'  264   4.781   2.571   3.366
    9C      H4'  265   4.888   2.554   3.380
    9C      O4'  266   4.755   2.527   3.231
    9C      C1'  267   4.771   2.636   3.142
    9C      H1'  268   4.847   2.615   3.067
    9C       N1  269   4.649   2.653   3.063
    9C       C6  270   4.540   2.572   3.082
    9C       H6  271   4.539   2.500   3.162
    9C       C5  272   4.433   2.582   3.002
    9C       H5  273   4.348   2.516   3.019
    9C       C4  274   4.438   2.679   2.897
    9C       N4  275   4.337   2.691   2.812
    9C      H41  276   4.345   2.761   2.740
    9C      H42  277   4.256   2.630   2.821
    9C       N3  278   4.542   2.761   2.881
    9C       C2  279   4.648   2.751   2.964
    9C       O2  280   4.744   2.828   2.956
    9C      C3'  281   4.743   2.717   3.360
    9C      H3'  282   4.656   2.779   3.381
    9C      C2'  283   4.803   2.759   3.227
    9C      H2'  284   4.756   2.857   3.217
    9C      O2'  285   4.943   2.775   3.232
    9C     HO2'  286   4.970   2.817   3.150
    9C      O3'  287   4.799   2.789   3.467
   10A        P  288   4.708   2.891   3.549
   10A      OP1  289   4.792   2.942   3.661
   10A      OP2  290   4.581   2.820   3.579
   10A      O5'  291   4.685   3.012   3.448
   10A      C5'  292   4.796   3.082   3.396
   10A      H5'  293   4.881   3.015   3.381
   10A     H5''  294   4.825   3.160   3.467
   10A      C4'  295   4.760   3.145   3.265
   10A      H4'  296   4.848   3.182   3.214
   10A      O4'  297   4.708   3.041   3.179
   10A      C1'  298   4.604   3.094   3.098
   10A      H1'  299   4.623   3.086   2.991
   10A       N9  300   4.484   3.013   3.117
   10A       C8  301   4.457   2.921   3.216
   10A       H8  302   4.527   2.908   3.297
   10A       N7  303   4.341   2.861   3.203
   10A       C5  304   4.286   2.918   3.088
   10A       C6  305   4.163   2.896   3.019
   10A       N6  306   4.070   2.808   3.057
   10A      H61  307   3.985   2.798   3.003
   10A      H62  308   4.085   2.751   3.139
   10A       N1  309   4.140   2.971   2.909
   10A       C2  310   4.234   3.058   2.871
   10A       H2  311   4.217   3.119   2.783
   10A       N3  312   4.353   3.086   2.925
   10A       C4  313   4.373   3.012   3.035
   10A      C3'  314   4.648   3.247   3.273
   10A      H3'  315   4.572   3.281   3.343
   10A      C2'  316   4.588   3.242   3.132
   10A      H2'  317   4.494   3.291   3.157
   10A      O2'  318   4.658   3.320   3.036
   10A     HO2'  319   4.601   3.326   2.959
   10A      O3'  320   4.701   3.375   3.305
   11G        P  321   4.646   3.455   3.434
   11G      OP1  322   4.739   3.567   3.467
   11G      OP2  323   4.610   3.355   3.537
   11G      O5'  324   4.513   3.524   3.382
   11G      C5'  325   4.522   3.636   3.295
   11G      H5'  326   4.538   3.605   3.192
   11G     H5''  327   4.606   3.697   3.329
   11G      C4'  328   4.396   3.716   3.305
   11G      H4'  329   4.385   3.785   3.221
   11G      O4'  330   4.289   3.621   3.287
   11G      C1'  331   4.179   3.660   3.366
   11G      H1'  332   4.091   3.675   3.304
   11G       N9  333   4.142   3.547   3.449
   11G       C8  334   4.207   3.498   3.559
   11G       H8  335   4.297   3.544   3.597
   11G       N7  336   4.148   3.393   3.610
   11G       C5  337   4.038   3.373   3.528
   11G       C6  338   3.936   3.274   3.532
   11G       O6  339   3.920   3.182   3.614
   11G       N1  340   3.846   3.290   3.427
   11G       H1  341   3.771   3.224   3.421
   11G       C2  342   3.852   3.389   3.332
   11G       N2  343   3.757   3.387   3.236
   11G      H21  344   3.682   3.319   3.226
   11G      H22  345   3.762   3.459   3.165
   11G       N3  346   3.944   3.483   3.329
   11G       C4  347   4.034   3.468   3.429
   11G      C3'  348   4.369   3.780   3.440
   11G      H3'  349   4.408   3.776   3.542
   11G      C2'  350   4.216   3.785   3.444
   11G      H2'  351   4.208   3.798   3.551
   11G      O2'  352   4.159   3.897   3.378
   11G     HO2'  353   4.067   3.902   3.405
   11G      O3'  354   4.415   3.915   3.446
   12U        P  355   4.553   3.959   3.376
   12U      OP1  356   4.561   3.911   3.234
   12U      OP2  357   4.660   3.922   3.473
   12U      O5'  358   4.540   4.118   3.369
   12U      C5'  359   4.413   4.182   3.380
   12U      H5'  360   4.403   4.229   3.478
   12U     H5''  361   4.335   4.107   3.367
   12U      C4'  362   4.398   4.288   3.273
   12U      H4'  363   4.328   4.365   3.305
   12U      O4'  364   4.525   4.355   3.266
   12U      C1'  365   4.550   4.398   3.134
   12U      H1'  366   4.547   4.506   3.122
   12U       N1  367   4.688   4.364   3.100
   12U       C6  368   4.751   4.253   3.152
   12U       H6  369   4.693   4.184   3.212
   12U       C5  370   4.879   4.225   3.128
   12U       H5  371   4.927   4.136   3.171
   12U       C4  372   4.957   4.312   3.044
   12U       O4  373   5.076   4.298   3.016
   12U       N3  374   4.887   4.420   2.993
   12U       H3  375   4.943   4.488   2.928
   12U       C2  376   4.755   4.451   3.016
   12U       O2  377   4.700   4.549   2.966
   12U      C3'  378   4.373   4.238   3.131
   12U      H3'  379   4.367   4.142   3.080
   12U      C2'  380   4.443   4.340   3.041
   12U      H2'  381   4.462   4.268   2.962
   12U      O2'  382   4.362   4.444   2.991
   12U     HO2'  383   4.410   4.485   2.919
   12U      O3'  384   4.232   4.228   3.107
   13A        P  385   4.131   4.347   3.154
   13A      OP1  386   4.206   4.472   3.187
   13A      OP2  387   4.039   4.287   3.255
   13A      O5'  388   4.041   4.377   3.026
   13A      C5'  389   4.093   4.446   2.914
   13A      H5'  390   4.202   4.446   2.918
   13A     H5''  391   4.057   4.549   2.916
   13A      C4'  392   4.048   4.380   2.787
   13A      H4'  393   4.055   4.449   2.704
   13A      O4'  394   4.134   4.269   2.750
   13A      C1'  395   4.056   4.170   2.683
   13A      H1'  396   4.088   4.152   2.580
   13A       N9  397   4.082   4.042   2.748
   13A       C8  398   4.169   4.017   2.853
   13A       H8  399   4.223   4.098   2.899
   13A       N7  400   4.171   3.892   2.890
   13A       C5  401   4.080   3.830   2.805
   13A       C6  402   4.035   3.698   2.795
   13A       N6  403   4.077   3.599   2.875
   13A      H61  404   4.041   3.506   2.862
   13A      H62  405   4.144   3.618   2.948
   13A       N1  406   3.944   3.670   2.699
   13A       C2  407   3.901   3.769   2.620
   13A       H2  408   3.829   3.749   2.543
   13A       N3  409   3.934   3.898   2.621
   13A       C4  410   4.025   3.922   2.717
   13A      C3'  411   3.911   4.316   2.800
   13A      H3'  412   3.840   4.287   2.876
   13A      C2'  413   3.909   4.214   2.687
   13A      H2'  414   3.829   4.153   2.727
   13A      O2'  415   3.869   4.270   2.563
   13A     HO2'  416   3.849   4.196   2.505
   13A      O3'  417   3.815   4.417   2.788
   14A        P  418   3.718   4.445   2.911
   14A      OP1  419   3.684   4.590   2.912
   14A      OP2  420   3.782   4.383   3.031
   14A      O5'  421   3.591   4.359   2.871
   14A      C5'  422   3.558   4.344   2.735
   14A      H5'  423   3.638   4.379   2.669
   14A     H5''  424   3.468   4.404   2.718
   14A      C4'  425   3.529   4.201   2.704
   14A      H4'  426   3.486   4.190   2.605
   14A      O4'  427   3.650   4.124   2.700
   14A      C1'  428   3.621   3.989   2.734
   14A      H1'  429   3.643   3.919   2.654
   14A       N9  430   3.711   3.948   2.841
   14A       C8  431   3.806   4.023   2.905
   14A       H8  432   3.817   4.128   2.883
   14A       N7  433   3.873   3.956   2.996
   14A       C5  434   3.817   3.829   2.992
   14A       C6  435   3.843   3.711   3.065
   14A       N6  436   3.935   3.701   3.161
   14A      H61  437   3.948   3.614   3.210
   14A      H62  438   3.991   3.782   3.185
   14A       N1  439   3.769   3.602   3.036
   14A       C2  440   3.675   3.612   2.941
   14A       H2  441   3.615   3.526   2.916
   14A       N3  442   3.641   3.716   2.867
   14A       C4  443   3.717   3.823   2.897
   14A      C3'  444   3.451   4.131   2.813
   14A      H3'  445   3.431   4.141   2.919
   14A      C2'  446   3.475   3.985   2.779
   14A      H2'  447   3.441   3.941   2.872
   14A      O2'  448   3.390   3.943   2.674
   14A     HO2'  449   3.396   3.847   2.670
   14A      O3'  450   3.316   4.165   2.807
   15C        P  451   3.243   4.210   2.942
   15C      OP1  452   3.116   4.278   2.908
   15C      OP2  453   3.348   4.279   3.022
   15C      O5'  454   3.210   4.071   3.011
   15C      C5'  455   3.136   3.973   2.941
   15C      H5'  456   3.163   3.968   2.836
   15C     H5''  457   3.030   4.001   2.950
   15C      C4'  458   3.157   3.840   3.005
   15C      H4'  459   3.098   3.762   2.957
   15C      O4'  460   3.294   3.799   2.985
   15C      C1'  461   3.338   3.724   3.097
   15C      H1'  462   3.379   3.628   3.064
   15C       N1  463   3.452   3.792   3.158
   15C       C6  464   3.483   3.922   3.127
   15C       H6  465   3.421   3.977   3.059
   15C       C5  466   3.590   3.981   3.181
   15C       H5  467   3.612   4.085   3.155
   15C       C4  468   3.670   3.904   3.271
   15C       N4  469   3.780   3.958   3.328
   15C      H41  470   3.833   3.900   3.391
   15C      H42  471   3.807   4.053   3.307
   15C       N3  472   3.639   3.778   3.302
   15C       C2  473   3.531   3.720   3.247
   15C       O2  474   3.498   3.605   3.275
   15C      C3'  475   3.145   3.842   3.155
   15C      H3'  476   3.151   3.914   3.237
   15C      C2'  477   3.220   3.716   3.193
   15C      H2'  478   3.227   3.732   3.301
   15C      O2'  479   3.143   3.600   3.168
   15C     HO2'  480   3.189   3.527   3.210
   15C      O3'  481   3.011   3.839   3.196
   16C        P  482   2.972   3.904   3.337
   16C      OP1  483   2.825   3.923   3.339
   16C      OP2  484   3.063   4.020   3.355
   16C      O5'  485   3.009   3.788   3.439
   16C      C5'  486   2.968   3.654   3.414
   16C      H5'  487   3.000   3.619   3.316
   16C     H5''  488   2.859   3.654   3.418
   16C      C4'  489   3.022   3.562   3.520
   16C      H4'  490   2.981   3.462   3.511
   16C      O4'  491   3.166   3.544   3.503
   16C      C1'  492   3.228   3.530   3.631
   16C      H1'  493   3.289   3.440   3.633
   16C       N1  494   3.326   3.639   3.649
   16C       C6  495   3.326   3.748   3.566
   16C       H6  496   3.251   3.758   3.490
   16C       C5  497   3.420   3.844   3.578
   16C       H5  498   3.418   3.929   3.510
   16C       C4  499   3.517   3.828   3.680
   16C       N4  500   3.615   3.920   3.694
   16C      H41  501   3.683   3.905   3.768
   16C      H42  502   3.619   4.000   3.632
   16C       N3  503   3.516   3.723   3.763
   16C       C2  504   3.420   3.628   3.751
   16C       O2  505   3.414   3.530   3.828
   16C      C3'  506   3.015   3.619   3.659
   16C      H3'  507   3.007   3.717   3.707
   16C      C2'  508   3.115   3.535   3.734
   16C      H2'  509   3.121   3.591   3.827
   16C      O2'  510   3.063   3.406   3.760
   16C     HO2'  511   3.123   3.363   3.821
   16C      O3'  512   2.888   3.607   3.715
   17C        P  513   2.848   3.705   3.833
   17C      OP1  514   2.707   3.678   3.868
   17C      OP2  515   2.892   3.840   3.789
   17C      O5'  516   2.943   3.658   3.951
   17C      C5'  517   2.927   3.530   4.011
   17C      H5'  518   2.958   3.452   3.942
   17C     H5''  519   2.822   3.517   4.036
   17C      C4'  520   3.010   3.520   4.137
   17C      H4'  521   2.993   3.424   4.185
   17C      O4'  522   3.151   3.519   4.102
   17C      C1'  523   3.225   3.591   4.200
   17C      H1'  524   3.314   3.535   4.228
   17C       N1  525   3.278   3.712   4.136
   17C       C6  526   3.226   3.758   4.018
   17C       H6  527   3.142   3.708   3.973
   17C       C5  528   3.278   3.866   3.958
   17C       H5  529   3.236   3.900   3.864
   17C       C4  530   3.389   3.929   4.021
   17C       N4  531   3.447   4.035   3.964
   17C      H41  532   3.525   4.077   4.012
   17C      H42  533   3.413   4.071   3.876
   17C       N3  534   3.439   3.886   4.137
   17C       C2  535   3.384   3.778   4.197
   17C       O2  536   3.426   3.737   4.305
   17C      C3'  537   2.999   3.638   4.232
   17C      H3'  538   2.967   3.742   4.231
   17C      C2'  539   3.127   3.625   4.312
   17C      H2'  540   3.126   3.721   4.364
   17C      O2'  541   3.117   3.520   4.406
   17C     HO2'  542   3.192   3.527   4.464
   17C      O3'  543   2.887   3.626   4.316
   18C        P  544   2.827   3.758   4.383
   18C      OP1  545   2.703   3.715   4.453
   18C      OP2  546   2.823   3.866   4.281
   18C      O5'  547   2.936   3.799   4.492
   18C      C5'  548   2.959   3.717   4.606
   18C      H5'  549   2.985   3.614   4.580
   18C     H5''  550   2.866   3.718   4.663
   18C      C4'  551   3.069   3.776   4.689
   18C      H4'  552   3.093   3.713   4.775
   18C      O4'  553   3.190   3.778   4.610
   18C      C1'  554   3.270   3.889   4.648
   18C      H1'  555   3.372   3.857   4.668
   18C       N1  556   3.284   3.977   4.532
   18C       C6  557   3.206   3.962   4.422
   18C       H6  558   3.129   3.886   4.420
   18C       C5  559   3.223   4.039   4.315
   18C       H5  560   3.159   4.026   4.228
   18C       C4  561   3.325   4.138   4.321
   18C       N4  562   3.348   4.217   4.217
   18C      H41  563   3.422   4.285   4.226
   18C      H42  564   3.293   4.208   4.133
   18C       N3  565   3.401   4.154   4.429
   18C       C2  566   3.381   4.076   4.537
   18C       O2  567   3.445   4.092   4.643
   18C      C3'  568   3.052   3.923   4.723
   18C      H3'  569   2.999   4.009   4.684
   18C      C2'  570   3.194   3.962   4.757
   18C      H2'  571   3.180   4.070   4.762
   18C      O2'  572   3.235   3.915   4.883
   18C     HO2'  573   3.318   3.959   4.904
   18C      O3'  574   2.969   3.943   4.833
   19A        P  575   2.876   4.072   4.835
   19A      OP1  576   2.777   4.049   4.943
   19A      OP2  577   2.831   4.092   4.695
   19A      O5'  578   2.973   4.190   4.875
   19A      C5'  579   3.038   4.186   5.000
   19A      H5'  580   3.070   4.085   5.026
   19A     H5''  581   2.968   4.223   5.075
   19A      C4'  582   3.158   4.276   4.998
   19A      H4'  583   3.222   4.258   5.085
   19A      O4'  584   3.241   4.238   4.885
   19A      C1'  585   3.311   4.352   4.837
   19A      H1'  586   3.419   4.340   4.836
   19A       N9  587   3.278   4.371   4.696
   19A       C8  588   3.191   4.301   4.617
   19A       H8  589   3.127   4.226   4.660
   19A       N7  590   3.191   4.340   4.491
   19A       C5  591   3.283   4.444   4.489
   19A       C6  592   3.330   4.527   4.385
   19A       N6  593   3.289   4.518   4.258
   19A      H61  594   3.327   4.580   4.188
   19A      H62  595   3.221   4.448   4.232
   19A       N1  596   3.422   4.622   4.417
   19A       C2  597   3.463   4.630   4.544
   19A       H2  598   3.535   4.705   4.572
   19A       N3  599   3.426   4.558   4.650
   19A       C4  600   3.336   4.465   4.615
   19A      C3'  601   3.131   4.422   4.972
   19A      H3'  602   3.052   4.486   4.931
   19A      C2'  603   3.266   4.471   4.921
   19A      H2'  604   3.235   4.567   4.882
   19A      O2'  605   3.359   4.491   5.025
   19A     HO2'  606   3.433   4.538   4.988
   19A      O3'  607   3.099   4.490   5.091
   20G        P  608   3.027   4.633   5.084
   20G      OP1  609   2.989   4.667   5.224
   20G      OP2  610   2.923   4.619   4.978
   20G      O5'  611   3.142   4.735   5.038
   20G      C5'  612   3.238   4.784   5.130
   20G      H5'  613   3.304   4.705   5.166
   20G     H5''  614   3.183   4.827   5.214
   20G      C4'  615   3.321   4.891   5.065
   20G      H4'  616   3.420   4.907   5.106
   20G      O4'  617   3.345   4.847   4.929
   20G      C1'  618   3.281   4.934   4.838
   20G      H1'  619   3.358   5.002   4.800
   20G       N9  620   3.231   4.867   4.717
   20G       C8  621   3.159   4.750   4.705
   20G       H8  622   3.132   4.692   4.792
   20G       N7  623   3.131   4.721   4.581
   20G       C5  624   3.187   4.824   4.507
   20G       C6  625   3.191   4.846   4.366
   20G       O6  626   3.143   4.775   4.275
   20G       N1  627   3.258   4.964   4.335
   20G       H1  628   3.266   4.988   4.238
   20G       C2  629   3.314   5.050   4.426
   20G       N2  630   3.373   5.161   4.375
   20G      H21  631   3.381   5.187   4.278
   20G      H22  632   3.416   5.225   4.442
   20G       N3  633   3.312   5.029   4.557
   20G       C4  634   3.248   4.915   4.590
   20G      C3'  635   3.241   5.021   5.053
   20G      H3'  636   3.163   5.049   5.124
   20G      C2'  637   3.185   5.025   4.912
   20G      H2'  638   3.078   5.011   4.928
   20G      O2'  639   3.208   5.152   4.858
   20G     HO2'  640   3.161   5.157   4.775
   20G      O3'  641   3.306   5.145   5.079
   21U        P  642   3.406   5.159   5.202
   21U      OP1  643   3.384   5.038   5.285
   21U      OP2  644   3.387   5.294   5.260
   21U      O5'  645   3.549   5.149   5.134
   21U      C5'  646   3.661   5.105   5.208
   21U      H5'  647   3.681   4.999   5.193
   21U     H5''  648   3.642   5.124   5.314
   21U      C4'  649   3.780   5.184   5.165
   21U      H4'  650   3.876   5.145   5.200
   21U      O4'  651   3.786   5.173   5.022
   21U      C1'  652   3.817   5.297   4.965
   21U      H1'  653   3.913   5.300   4.912
   21U       N1  654   3.721   5.324   4.858
   21U       C6  655   3.597   5.266   4.860
   21U       H6  656   3.566   5.212   4.949
   21U       C5  657   3.509   5.280   4.760
   21U       H5  658   3.415   5.226   4.761
   21U       C4  659   3.545   5.357   4.646
   21U       O4  660   3.480   5.366   4.542
   21U       N3  661   3.669   5.415   4.652
   21U       H3  662   3.697   5.477   4.567
   21U       C2  663   3.760   5.405   4.753
   21U       O2  664   3.867   5.463   4.750
   21U      C3'  665   3.764   5.332   5.195
   21U      H3'  666   3.689   5.395   5.241
   21U      C2'  667   3.824   5.404   5.074
   21U      H2'  668   3.754   5.487   5.085
   21U      O2'  669   3.956   5.452   5.085
   21U     HO2'  670   3.968   5.516   5.014
   21U      O3'  671   3.820   5.361   5.323
   22U        P  672   3.978   5.336   5.352
   22U      OP1  673   4.028   5.454   5.427
   22U      OP2  674   4.049   5.293   5.230
   22U      O5'  675   3.981   5.209   5.449
   22U      C5'  676   4.063   5.097   5.418
   22U      H5'  677   4.166   5.115   5.451
   22U     H5''  678   4.062   5.078   5.311
   22U      C4'  679   4.009   4.976   5.490
   22U      H4'  680   4.073   4.889   5.479
   22U      O4'  681   4.011   5.006   5.630
   22U      C1'  682   3.888   4.974   5.689
   22U      H1'  683   3.890   4.893   5.763
   22U       N1  684   3.844   5.090   5.769
   22U       C6  685   3.866   5.220   5.728
   22U       H6  686   3.899   5.236   5.626
   22U       C5  687   3.842   5.326   5.806
   22U       H5  688   3.871   5.426   5.775
   22U       C4  689   3.791   5.306   5.938
   22U       O4  690   3.780   5.393   6.025
   22U       N3  691   3.765   5.173   5.969
   22U       H3  692   3.722   5.155   6.068
   22U       C2  693   3.787   5.063   5.890
   22U       O2  694   3.759   4.951   5.924
   22U      C3'  695   3.865   4.946   5.454
   22U      H3'  696   3.792   4.986   5.383
   22U      C2'  697   3.795   4.911   5.585
   22U      H2'  698   3.699   4.953   5.554
   22U      O2'  699   3.780   4.773   5.611
   22U     HO2'  700   3.715   4.765   5.682
   22U      O3'  701   3.865   4.847   5.352
   23A        P  702   3.953   4.712   5.369
   23A      OP1  703   3.945   4.656   5.507
   23A      OP2  704   4.084   4.737   5.308
   23A      O5'  705   3.879   4.612   5.271
   23A      C5'  706   3.738   4.596   5.280
   23A      H5'  707   3.702   4.670   5.353
   23A     H5''  708   3.713   4.496   5.316
   23A      C4'  709   3.670   4.620   5.147
   23A      H4'  710   3.563   4.609   5.164
   23A      O4'  711   3.685   4.756   5.103
   23A      C1'  712   3.671   4.760   4.962
   23A      H1'  713   3.580   4.810   4.929
   23A       N9  714   3.777   4.844   4.908
   23A       C8  715   3.906   4.858   4.952
   23A       H8  716   3.942   4.797   5.034
   23A       N7  717   3.977   4.943   4.883
   23A       C5  718   3.890   4.988   4.785
   23A       C6  719   3.904   5.080   4.681
   23A       N6  720   4.015   5.147   4.656
   23A      H61  721   4.019   5.212   4.578
   23A      H62  722   4.097   5.134   4.714
   23A       N1  723   3.797   5.101   4.602
   23A       C2  724   3.684   5.036   4.628
   23A       H2  725   3.597   5.052   4.566
   23A       N3  726   3.658   4.948   4.723
   23A       C4  727   3.766   4.928   4.799
   23A      C3'  728   3.721   4.538   5.031
   23A      H3'  729   3.805   4.476   5.000
   23A      C2'  730   3.669   4.616   4.911
   23A      H2'  731   3.735   4.577   4.833
   23A      O2'  732   3.537   4.574   4.886
   23A     HO2'  733   3.512   4.609   4.800
   23A      O3'  734   3.654   4.413   5.037
   24A        P  735   3.740   4.277   5.034
   24A      OP1  736   3.883   4.316   5.052
   24A      OP2  737   3.698   4.202   4.913
   24A      O5'  738   3.691   4.196   5.162
   24A      C5'  739   3.735   4.231   5.293
   24A      H5'  740   3.706   4.334   5.318
   24A     H5''  741   3.843   4.222   5.295
   24A      C4'  742   3.675   4.137   5.393
   24A      H4'  743   3.708   4.161   5.494
   24A      O4'  744   3.531   4.153   5.398
   24A      C1'  745   3.471   4.029   5.430
   24A      H1'  746   3.409   4.034   5.519
   24A       N9  747   3.376   3.995   5.325
   24A       C8  748   3.371   4.040   5.196
   24A       H8  749   3.448   4.107   5.159
   24A       N7  750   3.272   3.991   5.126
   24A       C5  751   3.206   3.908   5.216
   24A       C6  752   3.092   3.824   5.205
   24A       N6  753   3.020   3.809   5.093
   24A      H61  754   2.940   3.748   5.093
   24A      H62  755   3.046   3.859   5.009
   24A       N1  756   3.055   3.754   5.314
   24A       C2  757   3.128   3.767   5.426
   24A       H2  758   3.100   3.711   5.514
   24A       N3  759   3.236   3.841   5.448
   24A       C4  760   3.270   3.910   5.339
   24A      C3'  761   3.690   3.991   5.358
   24A      H3'  762   3.706   3.931   5.268
   24A      C2'  763   3.583   3.927   5.443
   24A      H2'  764   3.583   3.826   5.400
   24A      O2'  765   3.619   3.920   5.579
   24A     HO2'  766   3.554   3.864   5.622
   24A      O3'  767   3.819   3.947   5.392
   25C        P  768   3.885   3.828   5.308
   25C      OP1  769   4.024   3.808   5.357
   25C      OP2  770   3.860   3.856   5.165
   25C      O5'  771   3.799   3.701   5.350
   25C      C5'  772   3.791   3.665   5.485
   25C      H5'  773   3.763   3.750   5.549
   25C     H5''  774   3.890   3.630   5.514
   25C      C4'  775   3.692   3.555   5.504
   25C      H4'  776   3.689   3.520   5.607
   25C      O4'  777   3.558   3.605   5.479
   25C      C1'  778   3.476   3.498   5.432
   25C      H1'  779   3.392   3.487   5.500
   25C       N1  780   3.414   3.538   5.305
   25C       C6  781   3.466   3.640   5.230
   25C       H6  782   3.553   3.693   5.264
   25C       C5  783   3.410   3.675   5.113
   25C       H5  784   3.453   3.757   5.055
   25C       C4  785   3.294   3.602   5.070
   25C       N4  786   3.233   3.633   4.955
   25C      H41  787   3.152   3.579   4.929
   25C      H42  788   3.268   3.708   4.897
   25C       N3  789   3.243   3.502   5.143
   25C       C2  790   3.301   3.468   5.261
   25C       O2  791   3.255   3.376   5.331
   25C      C3'  792   3.704   3.445   5.402
   25C      H3'  793   3.743   3.429   5.302
   25C      C2'  794   3.568   3.377   5.414
   25C      H2'  795   3.574   3.317   5.324
   25C      O2'  796   3.556   3.293   5.527
   25C     HO2'  797   3.476   3.241   5.515
   25C      O3'  798   3.811   3.359   5.435
   26A        P  799   3.874   3.266   5.321
   26A      OP1  800   3.987   3.188   5.380
   26A      OP2  801   3.898   3.355   5.206
   26A      O5'  802   3.755   3.165   5.288
   26A      C5'  803   3.729   3.122   5.155
   26A      H5'  804   3.776   3.025   5.138
   26A     H5''  805   3.769   3.195   5.085
   26A      C4'  806   3.580   3.110   5.134
   26A      H4'  807   3.534   3.066   5.223
   26A      O4'  808   3.521   3.242   5.124
   26A      C1'  809   3.416   3.240   5.029
   26A      H1'  810   3.321   3.282   5.064
   26A       N9  811   3.453   3.330   4.920
   26A       C8  812   3.563   3.410   4.915
   26A       H8  813   3.640   3.402   4.990
   26A       N7  814   3.567   3.487   4.809
   26A       C5  815   3.452   3.454   4.740
   26A       C6  816   3.396   3.502   4.621
   26A       N6  817   3.451   3.601   4.549
   26A      H61  818   3.407   3.632   4.464
   26A      H62  819   3.537   3.644   4.580
   26A       N1  820   3.281   3.447   4.579
   26A       C2  821   3.226   3.350   4.652
   26A       H2  822   3.134   3.304   4.620
   26A       N3  823   3.268   3.298   4.766
   26A       C4  824   3.382   3.355   4.806
   26A      C3'  825   3.537   3.041   5.006
   26A      H3'  826   3.578   3.007   4.911
   26A      C2'  827   3.397   3.096   4.984
   26A      H2'  828   3.384   3.064   4.881
   26A      O2'  829   3.300   3.034   5.065
   26A     HO2'  830   3.214   3.061   5.032
   26A      O3'  831   3.532   2.903   5.031
   27A        P  832   3.601   2.802   4.928
   27A      OP1  833   3.595   2.667   4.991
   27A      OP2  834   3.731   2.861   4.887
   27A      O5'  835   3.500   2.805   4.806
   27A      C5'  836   3.361   2.789   4.828
   27A      H5'  837   3.327   2.845   4.915
   27A     H5''  838   3.343   2.682   4.844
   27A      C4'  839   3.286   2.834   4.708
   27A      H4'  840   3.179   2.813   4.716
   27A      O4'  841   3.292   2.978   4.698
   27A      C1'  842   3.289   3.016   4.562
   27A      H1'  843   3.207   3.082   4.535
   27A       N9  844   3.407   3.097   4.535
   27A       C8  845   3.525   3.106   4.604
   27A       H8  846   3.545   3.039   4.687
   27A       N7  847   3.607   3.195   4.556
   27A       C5  848   3.539   3.247   4.447
   27A       C6  849   3.571   3.347   4.354
   27A       N6  850   3.684   3.418   4.358
   27A      H61  851   3.702   3.489   4.288
   27A      H62  852   3.753   3.400   4.430
   27A       N1  853   3.482   3.373   4.257
   27A       C2  854   3.367   3.303   4.256
   27A       H2  855   3.294   3.323   4.179
   27A       N3  856   3.325   3.208   4.338
   27A       C4  857   3.417   3.185   4.432
   27A      C3'  858   3.347   2.789   4.577
   27A      H3'  859   3.442   2.752   4.539
   27A      C2'  860   3.288   2.888   4.479
   27A      H2'  861   3.354   2.868   4.394
   27A      O2'  862   3.155   2.856   4.444
   27A     HO2'  863   3.132   2.911   4.369
   27A      O3'  864   3.305   2.659   4.547
   28A        P  865   3.399   2.565   4.458
   28A      OP1  866   3.376   2.428   4.510
   28A      OP2  867   3.536   2.623   4.458
   28A      O5'  868   3.336   2.574   4.312
   28A      C5'  869   3.212   2.510   4.284
   28A      H5'  870   3.139   2.529   4.362
   28A     H5''  871   3.231   2.402   4.277
   28A      C4'  872   3.158   2.558   4.153
   28A      H4'  873   3.055   2.524   4.139
   28A      O4'  874   3.147   2.703   4.158
   28A      C1'  875   3.165   2.755   4.028
   28A      H1'  876   3.085   2.821   3.996
   28A       N9  877   3.279   2.843   4.031
   28A       C8  878   3.403   2.826   4.087
   28A       H8  879   3.430   2.733   4.134
   28A       N7  880   3.481   2.930   4.073
   28A       C5  881   3.403   3.020   4.001
   28A       C6  882   3.427   3.149   3.954
   28A       N6  883   3.541   3.214   3.972
   28A      H61  884   3.552   3.307   3.935
   28A      H62  885   3.616   3.170   4.022
   28A       N1  886   3.327   3.210   3.886
   28A       C2  887   3.213   3.145   3.867
   28A       H2  888   3.132   3.191   3.813
   28A       N3  889   3.179   3.023   3.907
   28A       C4  890   3.280   2.966   3.974
   28A      C3'  891   3.245   2.535   4.031
   28A      H3'  892   3.349   2.512   4.008
   28A      C2'  893   3.194   2.639   3.934
   28A      H2'  894   3.274   2.635   3.861
   28A      O2'  895   3.073   2.602   3.873
   28A     HO2'  896   3.057   2.664   3.801
   28A      O3'  897   3.220   2.408   3.976
   29A        P  898   3.299   2.364   3.845
   29A      OP1  899   3.240   2.232   3.805
   29A      OP2  900   3.444   2.375   3.875
   29A      O5'  901   3.264   2.474   3.735
   29A      C5'  902   3.152   2.457   3.649
   29A      H5'  903   3.061   2.448   3.709
   29A     H5''  904   3.166   2.366   3.591
   29A      C4'  905   3.138   2.575   3.555
   29A      H4'  906   3.038   2.570   3.513
   29A      O4'  907   3.139   2.697   3.633
   29A      C1'  908   3.179   2.804   3.550
   29A      H1'  909   3.106   2.886   3.552
   29A       N9  910   3.297   2.865   3.609
   29A       C8  911   3.394   2.813   3.691
   29A       H8  912   3.390   2.709   3.721
   29A       N7  913   3.489   2.898   3.720
   29A       C5  914   3.451   3.013   3.654
   29A       C6  915   3.510   3.141   3.643
   29A       N6  916   3.623   3.175   3.703
   29A      H61  917   3.660   3.268   3.691
   29A      H62  918   3.673   3.107   3.759
   29A       N1  919   3.446   3.233   3.569
   29A       C2  920   3.331   3.199   3.509
   29A       H2  921   3.278   3.272   3.449
   29A       N3  922   3.267   3.084   3.511
   29A       C4  923   3.333   2.994   3.586
   29A      C3'  924   3.247   2.601   3.453
   29A      H3'  925   3.353   2.581   3.436
   29A      C2'  926   3.216   2.745   3.415
   29A      H2'  927   3.309   2.767   3.362
   29A      O2'  928   3.109   2.753   3.324
   29A     HO2'  929   3.107   2.842   3.290
   29A      O3'  930   3.234   2.523   3.337
   30C        P  931   3.353   2.523   3.229
   30C      OP1  932   3.313   2.436   3.117
   30C      OP2  933   3.480   2.499   3.300
   30C      O5'  934   3.356   2.671   3.172
   30C      C5'  935   3.255   2.716   3.086
   30C      H5'  936   3.155   2.705   3.128
   30C     H5''  937   3.263   2.658   2.995
   30C      C4'  938   3.278   2.860   3.055
   30C      H4'  939   3.192   2.910   3.011
   30C      O4'  940   3.299   2.926   3.181
   30C      C1'  941   3.395   3.029   3.165
   30C      H1'  942   3.354   3.124   3.200
   30C       N1  943   3.506   3.003   3.257
   30C       C6  944   3.524   2.881   3.316
   30C       H6  945   3.457   2.800   3.293
   30C       C5  946   3.624   2.861   3.403
   30C       H5  947   3.636   2.763   3.449
   30C       C4  948   3.711   2.971   3.430
   30C       N4  949   3.811   2.957   3.516
   30C      H41  950   3.870   3.037   3.532
   30C      H42  951   3.826   2.869   3.563
   30C       N3  952   3.695   3.089   3.370
   30C       C2  953   3.593   3.107   3.283
   30C       O2  954   3.575   3.215   3.224
   30C      C3'  955   3.408   2.885   2.980
   30C      H3'  956   3.501   2.835   2.958
   30C      C2'  957   3.436   3.030   3.018
   30C      H2'  958   3.538   3.037   2.981
   30C      O2'  959   3.353   3.121   2.948
   30C     HO2'  960   3.389   3.209   2.965
   30C      O3'  961   3.387   2.870   2.841
   31A        P  962   3.511   2.876   2.741
   31A      OP1  963   3.455   2.870   2.604
   31A      OP2  964   3.614   2.777   2.785
   31A      O5'  965   3.569   3.022   2.762
   31A      C5'  966   3.510   3.133   2.696
   31A      H5'  967   3.420   3.168   2.746
   31A     H5''  968   3.485   3.102   2.594
   31A      C4'  969   3.609   3.243   2.690
   31A      H4'  970   3.568   3.336   2.651
   31A      O4'  971   3.645   3.275   2.827
   31A      C1'  972   3.784   3.300   2.835
   31A      H1'  973   3.816   3.397   2.872
   31A       N9  974   3.841   3.207   2.933
   31A       C8  975   3.790   3.088   2.979
   31A       H8  976   3.705   3.042   2.930
   31A       N7  977   3.857   3.037   3.079
   31A       C5  978   3.961   3.127   3.098
   31A       C6  979   4.066   3.131   3.191
   31A       N6  980   4.083   3.042   3.289
   31A      H61  981   4.161   3.051   3.352
   31A      H62  982   4.018   2.965   3.299
   31A       N1  983   4.154   3.232   3.180
   31A       C2  984   4.136   3.324   3.084
   31A       H2  985   4.205   3.406   3.074
   31A       N3  986   4.040   3.332   2.993
   31A       C4  987   3.955   3.229   3.005
   31A      C3'  988   3.741   3.204   2.624
   31A      H3'  989   3.791   3.114   2.590
   31A      C2'  990   3.842   3.294   2.694
   31A      H2'  991   3.933   3.242   2.664
   31A      O2'  992   3.844   3.425   2.641
   31A     HO2'  993   3.921   3.469   2.677
   31A      O3'  994   3.733   3.231   2.486
   32A        P  995   3.834   3.161   2.384
   32A      OP1  996   3.751   3.083   2.291
   32A      OP2  997   3.941   3.093   2.462
   32A      O5'  998   3.896   3.285   2.305
   32A      C5'  999   3.813   3.390   2.256
   32A      H5' 1000   3.731   3.408   2.326
   32A     H5'' 1001   3.773   3.362   2.159
   32A      C4' 1002   3.895   3.516   2.242
   32A      H4' 1003   3.836   3.596   2.196
   32A      O4' 1004   3.928   3.567   2.374
   32A      C1' 1005   4.065   3.607   2.378
   32A      H1' 1006   4.083   3.706   2.419
   32A       N9 1007   4.134   3.518   2.472
   32A       C8 1008   4.107   3.386   2.495
   32A       H8 1009   4.036   3.333   2.434
   32A       N7 1010   4.181   3.333   2.590
   32A       C5 1011   4.262   3.438   2.632
   32A       C6 1012   4.362   3.448   2.732
   32A       N6 1013   4.397   3.347   2.814
   32A      H61 1014   4.469   3.361   2.883
   32A      H62 1015   4.350   3.258   2.806
   32A       N1 1016   4.425   3.566   2.745
   32A       C2 1017   4.388   3.668   2.666
   32A       H2 1018   4.437   3.764   2.676
   32A       N3 1019   4.296   3.672   2.570
   32A       C4 1020   4.235   3.552   2.558
   32A      C3' 1021   4.029   3.495   2.174
   32A      H3' 1022   4.092   3.409   2.149
   32A      C2' 1023   4.116   3.605   2.234
   32A      H2' 1024   4.214   3.570   2.202
   32A      O2' 1025   4.089   3.731   2.174
   32A     HO2' 1026   4.158   3.791   2.203
   32A      O3' 1027   4.017   3.502   2.032
   33G3       P 1028   4.080   3.384   1.940
   33G3     OP1 1029   4.070   3.425   1.797
   33G3     OP2 1030   4.021   3.254   1.985
   33G3     O5' 1031   4.233   3.380   1.983
   33G3     C5' 1032   4.266   3.335   2.111
   33G3     H5' 1033   4.268   3.226   2.111
   33G3    H5'' 1034   4.191   3.370   2.182
   33G3     C4' 1035   4.401   3.386   2.152
   33G3     H4' 1036   4.421   3.487   2.115
   33G3     O4' 1037   4.399   3.401   2.296
   33G3     C1' 1038   4.494   3.315   2.354
   33G3     H1' 1039   4.535   3.359   2.444
   33G3      N9 1040   4.421   3.198   2.403
   33G3      C8 1041   4.298   3.153   2.362
   33G3      H8 1042   4.243   3.205   2.285
   33G3      N7 1043   4.258   3.046   2.425
   33G3      C5 1044   4.362   3.018   2.513
   33G3      C6 1045   4.376   2.914   2.607
   33G3      O6 1046   4.298   2.823   2.632
   33G3      N1 1047   4.496   2.924   2.676
   33G3      H1 1048   4.516   2.855   2.746
   33G3      C2 1049   4.590   3.023   2.657
   33G3      N2 1050   4.698   3.017   2.737
   33G3     H21 1051   4.716   2.950   2.810
   33G3     H22 1052   4.767   3.090   2.724
   33G3      N3 1053   4.578   3.119   2.568
   33G3      C4 1054   4.463   3.111   2.500
   33G3     C3' 1055   4.512   3.289   2.118
   33G3     H3' 1056   4.524   3.195   2.064
   33G3     C2' 1057   4.598   3.286   2.245
   33G3     H2' 1058   4.641   3.188   2.225
   33G3     O2' 1059   4.701   3.382   2.252
   33G3    HO2' 1060   4.760   3.356   2.323
   33G3     O3' 1061   4.576   3.333   1.998
   33G3    HO3' 1062   4.649   3.278   1.968
   7.75279   7.69708   7.86611
