Generic title
51006
    1C5    HO5'    1   4.606   2.959   5.332 -0.5144 -1.0472 -1.0547
    1C5     O5'    2   4.697   2.949   5.362 -0.3148  0.5337 -1.0173
    1C5     C5'    3   4.704   2.804   5.370 -0.5604  0.0354  0.1978
    1C5     H5'    4   4.797   2.764   5.329 -0.0729 -0.5049  1.7796
    1C5    H5''    5   4.622   2.762   5.312 -0.3097 -0.4378  0.1816
    1C5     C4'    6   4.691   2.755   5.515  0.4143  0.5269  0.0596
    1C5     H4'    7   4.690   2.646   5.514 -0.0072  0.4028 -4.3048
    1C5     O4'    8   4.793   2.802   5.606  0.2439 -0.6274  0.6927
    1C5     C1'    9   4.738   2.830   5.737  0.6983  0.0757  0.0666
    1C5     H1'   10   4.791   2.771   5.812 -0.9373 -0.9020  0.5099
    1C5      N1   11   4.722   2.977   5.777  0.0389 -0.5332  0.5284
    1C5      C6   12   4.749   3.082   5.688  0.3988  0.2302 -0.6180
    1C5      H6   13   4.751   3.057   5.582  2.1009 -0.5945 -0.4263
    1C5      C5   14   4.771   3.207   5.738 -0.4695 -0.5835  0.4078
    1C5      H5   15   4.809   3.281   5.670  0.1671 -0.4390  0.9086
    1C5      C4   16   4.749   3.228   5.876  0.0783 -0.1213  0.3075
    1C5      N4   17   4.764   3.346   5.932  0.1156  0.1248  0.7658
    1C5     H41   18   4.740   3.362   6.028 -2.4235 -0.1534  0.2439
    1C5     H42   19   4.749   3.421   5.865 -1.3450 -0.6711  0.1610
    1C5      N3   20   4.707   3.135   5.958  0.7833  0.0128  0.4786
    1C5      C2   21   4.709   3.006   5.917  0.0144 -0.1395  0.0883
    1C5      O2   22   4.676   2.919   5.998  0.0496  0.1860 -0.2297
    1C5     C3'   23   4.563   2.800   5.579 -0.7621  0.4894  0.5555
    1C5     H3'   24   4.546   2.905   5.559 -1.9276  0.1635 -0.2129
    1C5     C2'   25   4.589   2.774   5.725  0.2858  0.0793  0.2993
    1C5     H2'   26   4.517   2.836   5.778 -0.6263  0.9116 -1.8099
    1C5     O2'   27   4.577   2.637   5.760  0.2363  0.4725 -0.0080
    1C5    HO2'   28   4.531   2.588   5.692  0.1321 -0.3555  0.6524
    1C5     O3'   29   4.459   2.715   5.545  0.2156 -0.3694 -0.1073
    2U        P   30   4.305   2.763   5.551 -0.0925  0.3817 -0.0474
    2U      OP1   31   4.215   2.645   5.520 -0.6466 -0.2306 -0.2417
    2U      OP2   32   4.301   2.874   5.454 -0.4036  0.6170 -0.4952
    2U      O5'   33   4.278   2.810   5.696  0.1159 -0.2626 -0.3053
    2U      C5'   34   4.244   2.721   5.800  0.1095 -0.5269 -0.2842
    2U      H5'   35   4.326   2.652   5.816  1.1343  1.0036  1.6553
    2U     H5''   36   4.149   2.675   5.774 -1.5740  2.1558  0.6598
    2U      C4'   37   4.229   2.778   5.944 -0.6668 -0.0704  0.5979
    2U      H4'   38   4.208   2.694   6.010 -2.4383 -1.2974 -1.3986
    2U      O4'   39   4.347   2.845   5.987 -0.2687  0.4916 -0.0514
    2U      C1'   40   4.313   2.956   6.074  0.4948  0.3897  0.7845
    2U      H1'   41   4.345   2.941   6.177 -0.0085  0.2334  0.9234
    2U       N1   42   4.354   3.088   6.014  0.0066 -0.6820  0.1074
    2U       C6   43   4.372   3.110   5.881 -0.3491  0.7510 -0.4322
    2U       H6   44   4.351   3.029   5.813 -0.8931  0.6586 -0.1565
    2U       C5   45   4.408   3.228   5.833 -0.5312 -0.4528  0.1198
    2U       H5   46   4.433   3.241   5.729 -1.7413 -0.0843 -0.1408
    2U       C4   47   4.437   3.340   5.919  0.0422 -0.2893  0.2471
    2U       O4   48   4.475   3.451   5.893  0.0570 -0.9078 -0.3425
    2U       N3   49   4.423   3.311   6.053  0.3850 -0.2642 -0.1728
    2U       H3   50   4.442   3.386   6.119 -0.0030 -0.4557  0.1661
    2U       C2   51   4.378   3.190   6.107 -0.7783 -0.0274  0.0637
    2U       O2   52   4.364   3.182   6.232 -0.1055  0.3893  0.0385
    2U      C3'   53   4.113   2.881   5.964 -0.1038  0.3264  0.8671
    2U      H3'   54   4.117   2.953   5.882  1.8383 -0.8351 -0.1538
    2U      C2'   55   4.159   2.949   6.094 -0.4230 -0.7283 -0.1174
    2U      H2'   56   4.125   3.051   6.105 -1.1282 -0.8033 -1.4606
    2U      O2'   57   4.126   2.864   6.201 -0.0377  0.2140  0.2618
    2U     HO2'   58   4.125   2.918   6.280  0.5957  2.0352 -0.9083
    2U      O3'   59   3.984   2.820   5.962 -0.1296 -0.3971 -0.0768
    3G        P   60   3.859   2.915   5.945  0.2585 -0.0942  0.5470
    3G      OP1   61   3.736   2.827   5.948  0.4658  0.0298 -0.3619
    3G      OP2   62   3.883   2.997   5.826  0.0941  0.9630  0.1233
    3G      O5'   63   3.848   3.029   6.048  0.3510  0.2874  0.1538
    3G      C5'   64   3.798   3.009   6.179 -0.3088 -0.1519  0.2187
    3G      H5'   65   3.832   2.912   6.216  2.7145  1.1442  1.1802
    3G     H5''   66   3.693   2.987   6.165 -0.1599  0.6847 -2.7967
    3G      C4'   67   3.814   3.120   6.290  0.1124  0.8390  0.1604
    3G      H4'   68   3.772   3.085   6.384 -1.4064  1.4620 -0.2432
    3G      O4'   69   3.954   3.155   6.311  0.0188  0.3812  0.4202
    3G      C1'   70   3.957   3.288   6.356  0.3205  0.4939 -0.6132
    3G      H1'   71   4.005   3.304   6.453  1.1716 -1.1567 -0.7247
    3G       N9   72   4.029   3.368   6.260 -0.4878 -0.2742  0.4180
    3G       C8   73   4.070   3.339   6.134  0.1314 -0.0008 -0.7084
    3G       H8   74   4.054   3.242   6.091  0.5859 -0.7840  0.7985
    3G       N7   75   4.138   3.433   6.079  0.2660  0.0153 -0.2639
    3G       C5   76   4.141   3.531   6.173  0.3041 -0.4820  0.1983
    3G       C6   77   4.207   3.661   6.185 -0.3016  0.1453  0.2504
    3G       O6   78   4.284   3.713   6.101 -0.7675  0.5479 -0.0379
    3G       N1   79   4.188   3.721   6.306  0.2055 -0.9407 -0.2402
    3G       H1   80   4.229   3.813   6.316 -1.2272 -0.3139  0.1188
    3G       C2   81   4.091   3.680   6.401 -0.8147 -0.7433 -0.3857
    3G       N2   82   4.070   3.752   6.505 -0.4077 -0.1008  0.1519
    3G      H21   83   4.134   3.829   6.512 -0.7697  0.2783 -0.6035
    3G      H22   84   4.020   3.712   6.583  0.4056  1.3710  1.4684
    3G       N3   85   4.031   3.566   6.397 -0.4797 -0.6254  0.6912
    3G       C4   86   4.057   3.497   6.278  0.3216  0.2115 -0.2883
    3G      C3'   87   3.741   3.249   6.258 -0.2459 -0.2414 -0.1437
    3G      H3'   88   3.758   3.269   6.152  1.4731 -0.0931  0.1365
    3G      C2'   89   3.811   3.344   6.352 -0.1495 -0.3506 -0.0215
    3G      H2'   90   3.808   3.445   6.312 -2.1708 -0.3216  0.0695
    3G      O2'   91   3.774   3.349   6.492  0.4919  0.2365  0.5615
    3G     HO2'   92   3.758   3.440   6.517 -2.0018 -0.4627  1.7969
    3G      O3'   93   3.599   3.239   6.282 -0.4808 -0.7547  0.3153
    4G        P   94   3.504   3.354   6.214 -0.2110 -0.2530  0.1068
    4G      OP1   95   3.362   3.330   6.247  0.4133  0.0917  0.4828
    4G      OP2   96   3.541   3.371   6.070  0.0377  0.3548  0.0314
    4G      O5'   97   3.545   3.496   6.287 -0.7363  0.2824  0.1109
    4G      C5'   98   3.497   3.521   6.413  0.0164 -0.4498 -0.0956
    4G      H5'   99   3.528   3.438   6.476 -0.2784  1.6594  3.0874
    4G     H5''  100   3.388   3.530   6.408  0.0241 -0.6441 -0.7446
    4G      C4'  101   3.563   3.652   6.465 -0.0752  0.2928 -0.2738
    4G      H4'  102   3.546   3.655   6.573  1.8245  0.9366  0.0456
    4G      O4'  103   3.703   3.640   6.452  0.0146  0.3045  0.0326
    4G      C1'  104   3.753   3.770   6.434  0.3948 -0.0193  0.1557
    4G      H1'  105   3.831   3.798   6.504  0.1399 -0.5357  0.6583
    4G       N9  106   3.798   3.804   6.298  0.0033  0.1560  0.1261
    4G       C8  107   3.822   3.721   6.195  0.4381  0.4295  0.1651
    4G       H8  108   3.775   3.624   6.186 -0.2056  0.8600 -1.7348
    4G       N7  109   3.889   3.780   6.098 -0.1702 -0.1621  0.1774
    4G       C5  110   3.919   3.906   6.140  0.3346 -0.3592  0.5242
    4G       C6  111   4.000   4.010   6.087 -0.2257  0.5093  0.9039
    4G       O6  112   4.053   4.007   5.972 -0.6667  0.3348  0.7288
    4G       N1  113   4.027   4.108   6.175 -1.0547  0.3186  0.2073
    4G       H1  114   4.085   4.180   6.133  1.2428 -0.9768  0.9948
    4G       C2  115   3.965   4.121   6.293 -0.3889 -0.1062  0.2709
    4G       N2  116   3.987   4.231   6.361  0.8452 -0.2095 -0.1170
    4G      H21  117   4.046   4.302   6.319 -0.2719 -0.9510 -3.2092
    4G      H22  118   3.935   4.243   6.446  0.6504 -0.2528 -0.2295
    4G       N3  119   3.883   4.035   6.355 -0.5949  0.2986  0.4606
    4G       C4  120   3.868   3.923   6.270 -0.8914  0.1178  0.4623
    4G      C3'  121   3.520   3.784   6.398 -0.9302  0.5618 -0.7239
    4G      H3'  122   3.524   3.775   6.289 -1.4032  0.9649 -0.7795
    4G      C2'  123   3.643   3.870   6.456  0.1731 -0.0185 -0.1358
    4G      H2'  124   3.649   3.967   6.405 -1.2289  1.8075  2.9367
    4G      O2'  125   3.646   3.898   6.594 -0.3810 -0.0026 -0.3092
    4G     HO2'  126   3.562   3.877   6.636 -0.3713 -2.1125 -1.2515
    4G      O3'  127   3.397   3.825   6.450 -0.5258  0.6044  0.0744
    5G        P  128   3.300   3.920   6.367  0.3091 -0.5072 -0.2679
    5G      OP1  129   3.183   3.924   6.456  0.5396  0.1805 -0.0206
    5G      OP2  130   3.295   3.872   6.226  0.3470 -0.2461  0.0601
    5G      O5'  131   3.361   4.058   6.358  0.8833 -0.1196  0.1066
    5G      C5'  132   3.377   4.140   6.472  0.6391  0.9616 -0.0024
    5G      H5'  133   3.425   4.085   6.552 -0.7988 -1.0842 -0.4729
    5G     H5''  134   3.276   4.164   6.506 -0.9458 -2.1508 -1.9969
    5G      C4'  135   3.452   4.266   6.435 -0.1593 -0.0857  0.0679
    5G      H4'  136   3.462   4.332   6.521 -0.0399 -0.1671  0.1167
    5G      O4'  137   3.579   4.234   6.393 -0.1186 -0.0788 -0.0731
    5G      C1'  138   3.619   4.342   6.310  0.4041  0.4076 -0.0210
    5G      H1'  139   3.690   4.396   6.372  1.0950 -1.1997  0.6547
    5G       N9  140   3.685   4.293   6.191  0.1206  0.0079  0.9855
    5G       C8  141   3.647   4.179   6.125  0.0617  0.4630 -0.3749
    5G       H8  142   3.573   4.112   6.164 -1.6315  2.0774 -0.6640
    5G       N7  143   3.712   4.158   6.015  0.4651 -0.6363 -0.6397
    5G       C5  144   3.791   4.269   6.004 -0.1474  0.1446 -0.0879
    5G       C6  145   3.876   4.311   5.896  0.8723  0.1482 -0.3534
    5G       O6  146   3.895   4.249   5.793 -0.3741 -0.2360 -0.4622
    5G       N1  147   3.941   4.432   5.911  0.0988 -0.7570  0.2670
    5G       H1  148   4.019   4.440   5.847  1.0599 -1.1984  1.3544
    5G       C2  149   3.925   4.501   6.023 -0.5424  0.0781 -0.3006
    5G       N2  150   3.993   4.613   6.036  0.8304  1.2293 -0.5181
    5G      H21  151   4.014   4.651   5.944 -1.7312  0.0173 -1.7066
    5G      H22  152   3.972   4.670   6.117 -1.5030 -0.6510  0.2949
    5G       N3  153   3.832   4.474   6.115 -0.1132 -0.1179 -0.1647
    5G       C4  154   3.770   4.356   6.101  0.1013  0.0606 -0.4347
    5G      C3'  155   3.381   4.339   6.323  0.3448 -0.6102  0.2429
    5G      H3'  156   3.367   4.284   6.230  3.3289 -0.1494 -0.5861
    5G      C2'  157   3.498   4.435   6.288 -0.1670 -0.5287  0.1933
    5G      H2'  158   3.503   4.466   6.183  2.2159  0.0215  0.4033
    5G      O2'  159   3.505   4.541   6.379  0.0219  0.0037  0.1240
    5G     HO2'  160   3.423   4.590   6.372 -0.0291  0.1648  1.6069
    5G      O3'  161   3.253   4.395   6.367  0.0170  0.3188  0.2410
    6U        P  162   3.178   4.487   6.257 -0.1507  0.0271  0.1189
    6U      OP1  163   3.029   4.486   6.289 -0.0584  0.2110  0.4829
    6U      OP2  164   3.230   4.451   6.123 -0.4235  0.0209  0.4142
    6U      O5'  165   3.226   4.633   6.301  0.0204 -0.1872 -0.5747
    6U      C5'  166   3.200   4.690   6.429  0.3700 -0.1340 -0.3494
    6U      H5'  167   3.248   4.632   6.507  1.7816  1.7383  0.2444
    6U     H5''  168   3.095   4.685   6.458  0.8694 -1.1320  1.3769
    6U      C4'  169   3.262   4.833   6.444  0.5981 -0.0057 -0.1443
    6U      H4'  170   3.239   4.865   6.545  3.2607 -0.2142  0.6005
    6U      O4'  171   3.401   4.827   6.431  0.1507 -0.5697  0.1463
    6U      C1'  172   3.448   4.945   6.367  0.4105 -0.6821 -0.0864
    6U      H1'  173   3.479   5.012   6.448 -0.3931 -2.2348  1.5621
    6U       N1  174   3.547   4.912   6.270  0.0917 -0.3099 -0.3629
    6U       C6  175   3.528   4.799   6.198 -0.3688  0.0398  0.4858
    6U       H6  176   3.447   4.731   6.223 -1.8447  1.7415  0.4981
    6U       C5  177   3.606   4.774   6.089 -0.3177  1.2033 -0.5000
    6U       H5  178   3.587   4.691   6.023  0.0145  0.6513  0.0906
    6U       C4  179   3.718   4.860   6.061 -0.0772 -0.2163  0.0262
    6U       O4  180   3.794   4.846   5.962  0.1399  0.4043 -0.5477
    6U       N3  181   3.737   4.972   6.135  0.2831  0.5098 -0.3704
    6U       H3  182   3.818   5.030   6.118  0.6149  0.2209  0.1902
    6U       C2  183   3.649   5.007   6.239  0.2930 -0.4704 -0.0381
    6U       O2  184   3.654   5.124   6.284  0.0227 -0.8277  0.4181
    6U      C3'  185   3.206   4.936   6.348  0.3935  0.3967 -0.2116
    6U      H3'  186   3.182   4.877   6.259  2.3395 -0.6528 -0.0818
    6U      C2'  187   3.324   5.019   6.309  0.3030 -0.3144  0.6964
    6U      H2'  188   3.323   5.013   6.200 -1.1274 -2.2209  0.7636
    6U      O2'  189   3.319   5.152   6.349  0.5493 -0.5922 -0.0797
    6U     HO2'  190   3.316   5.154   6.445 -0.3506  1.3423 -0.0957
    6U      O3'  191   3.100   5.010   6.396  1.0112 -0.3029 -0.0005
    7C        P  192   2.986   5.062   6.297 -0.1680  0.0574 -0.2120
    7C      OP1  193   2.896   5.129   6.391 -0.3946  1.1384 -0.1039
    7C      OP2  194   2.940   4.940   6.227  0.1068  0.0444  0.3007
    7C      O5'  195   3.036   5.167   6.194  0.2014 -0.2484  0.0924
    7C      C5'  196   3.063   5.297   6.232 -0.6506  1.0579  0.2456
    7C      H5'  197   3.143   5.292   6.305  1.0293 -0.2120 -1.5726
    7C     H5''  198   2.976   5.349   6.271  0.2745  3.0975 -0.2580
    7C      C4'  199   3.137   5.379   6.117 -0.1172  0.3695 -0.2150
    7C      H4'  200   3.159   5.482   6.145 -0.2594 -0.2847  2.6131
    7C      O4'  201   3.267   5.319   6.090  0.7481 -0.4794  0.8170
    7C      C1'  202   3.294   5.324   5.944 -0.4298  0.4459  0.0574
    7C      H1'  203   3.376   5.394   5.924 -2.1041  2.0616 -1.4395
    7C       N1  204   3.304   5.196   5.877 -0.0479  0.3307 -0.3440
    7C       C6  205   3.253   5.080   5.938  0.4732 -0.3722 -0.0202
    7C       H6  206   3.215   5.074   6.039 -0.4835 -2.1710 -0.4489
    7C       C5  207   3.243   4.967   5.861 -0.9588  0.2452 -0.3667
    7C       H5  208   3.203   4.876   5.903 -0.7902 -0.5211 -1.7976
    7C       C4  209   3.291   4.969   5.726 -0.0363 -0.2473 -0.3790
    7C       N4  210   3.281   4.862   5.656 -0.0692 -0.3955 -0.6450
    7C      H41  211   3.336   4.864   5.570  1.9760 -3.0704  0.4545
    7C      H42  212   3.298   4.774   5.702 -0.4899  1.2046  2.8413
    7C       N3  213   3.337   5.083   5.672 -0.3751 -0.1131  0.4692
    7C       C2  214   3.343   5.197   5.746  0.0482 -0.8506  0.0637
    7C       O2  215   3.377   5.300   5.693  0.0393  0.0999 -0.1512
    7C      C3'  216   3.065   5.377   5.982 -0.3889  0.2192 -0.1957
    7C      H3'  217   3.026   5.277   5.964  0.5195 -0.5364  1.7701
    7C      C2'  218   3.181   5.407   5.883 -0.3148  0.0761  0.4778
    7C      H2'  219   3.142   5.359   5.794 -1.7375 -2.0297  2.1160
    7C      O2'  220   3.220   5.544   5.861 -0.1368  0.4719  0.6805
    7C     HO2'  221   3.140   5.592   5.840 -0.6816 -0.5380  0.3528
    7C      O3'  222   2.965   5.474   5.979  0.9517  0.6437 -0.1456
    8G        P  223   2.828   5.420   5.921  0.1312 -0.3199  0.3142
    8G      OP1  224   2.736   5.539   5.910  0.2773 -0.1044 -0.0516
    8G      OP2  225   2.782   5.308   6.002 -0.0997  0.1560 -0.2126
    8G      O5'  226   2.854   5.354   5.778  0.0877  0.4884  0.4224
    8G      C5'  227   2.883   5.428   5.665  0.6678  0.3136 -0.0216
    8G      H5'  228   2.978   5.479   5.683  0.3460  0.8253  0.2926
    8G     H5''  229   2.804   5.502   5.650  1.7158  1.6256  0.6140
    8G      C4'  230   2.892   5.344   5.539  0.0893 -0.4567  0.0054
    8G      H4'  231   2.910   5.415   5.458  0.1661  0.3685  0.7259
    8G      O4'  232   2.994   5.246   5.548 -0.1429 -0.7816 -0.3553
    8G      C1'  233   2.948   5.123   5.501 -0.0423 -0.1640 -0.2031
    8G      H1'  234   3.012   5.093   5.418  0.3324  3.0155 -1.1923
    8G       N9  235   2.940   5.000   5.587 -0.4114 -0.3327  0.4651
    8G       C8  236   2.900   4.998   5.716 -0.1976 -0.2664 -0.7533
    8G       H8  237   2.876   5.089   5.769 -1.7123 -0.7128 -0.6255
    8G       N7  238   2.884   4.876   5.762 -0.3657  0.0872  0.2663
    8G       C5  239   2.930   4.794   5.655  0.0862  0.6380  0.3433
    8G       C6  240   2.942   4.655   5.647  0.0905 -0.2895 -0.1301
    8G       O6  241   2.889   4.574   5.729 -0.0948 -0.2469  0.1807
    8G       N1  242   3.017   4.608   5.539  0.3130  0.3674  0.5207
    8G       H1  243   3.016   4.512   5.506  1.3088  0.8101 -0.8906
    8G       C2  244   3.056   4.691   5.441  0.3156 -0.0577 -0.7382
    8G       N2  245   3.114   4.640   5.340  0.2991 -0.7737  0.1122
    8G      H21  246   3.137   4.542   5.346 -2.5771 -1.5893 -0.9500
    8G      H22  247   3.156   4.701   5.272  0.5985 -1.0532  0.0407
    8G       N3  248   3.037   4.825   5.436  0.8756  0.2472 -0.1107
    8G       C4  249   2.978   4.873   5.548  0.6442  0.6671 -0.6268
    8G      C3'  250   2.763   5.265   5.511  0.1400 -0.2290  0.3693
    8G      H3'  251   2.718   5.244   5.607 -0.7452  0.2768  0.0754
    8G      C2'  252   2.799   5.131   5.445  0.3099  0.6670 -0.0615
    8G      H2'  253   2.730   5.055   5.480 -0.0699  0.5820 -0.9656
    8G      O2'  254   2.800   5.159   5.305  0.3018 -0.1114  0.1538
    8G     HO2'  255   2.836   5.082   5.261  0.7257  0.8276 -1.2130
    8G      O3'  256   2.665   5.342   5.452  0.3489 -0.2454 -0.4461
    9C        P  257   2.518   5.287   5.445  0.0193 -0.0062  0.0751
    9C      OP1  258   2.446   5.362   5.344  0.4355  0.3896 -0.3262
    9C      OP2  259   2.470   5.302   5.584 -0.3165 -0.1590  0.3112
    9C      O5'  260   2.502   5.129   5.415  0.0835 -0.7266  0.4749
    9C      C5'  261   2.375   5.065   5.436 -0.1651 -0.5569 -0.5023
    9C      H5'  262   2.301   5.144   5.424  0.4309  0.3027  1.0743
    9C     H5''  263   2.367   5.037   5.541  0.4407  2.3444  0.4247
    9C      C4'  264   2.346   4.946   5.343  0.1088  0.1434 -1.1775
    9C      H4'  265   2.253   4.895   5.367  0.5700 -0.0154  0.3615
    9C      O4'  266   2.331   4.981   5.203 -0.0505 -0.0063 -0.2999
    9C      C1'  267   2.391   4.894   5.121 -0.4861 -0.2269  0.5270
    9C      H1'  268   2.320   4.861   5.045  0.2869 -1.6647  0.3883
    9C       N1  269   2.514   4.963   5.059  0.1940 -0.1541  0.7090
    9C       C6  270   2.558   5.090   5.088  0.2140 -0.6606 -0.4873
    9C       H6  271   2.520   5.140   5.175 -1.0072 -2.0660 -0.1757
    9C       C5  272   2.649   5.154   5.004  0.3361  0.1488  0.1955
    9C       H5  273   2.685   5.253   5.030 -0.9995  1.1525 -1.5221
    9C       C4  274   2.684   5.088   4.882  0.0097  0.6342  0.5343
    9C       N4  275   2.762   5.156   4.809  0.2158  0.0175  0.5057
    9C      H41  276   2.823   5.110   4.743  2.5012  0.6691  2.0482
    9C      H42  277   2.795   5.242   4.851  2.8511 -0.1048 -1.0840
    9C       N3  278   2.639   4.970   4.846 -0.5768  0.1410 -0.1172
    9C       C2  279   2.557   4.908   4.935 -0.3094 -0.5583 -0.2251
    9C       O2  280   2.518   4.796   4.900  0.3236 -0.9298  0.0324
    9C      C3'  281   2.460   4.843   5.344 -0.0417  0.2498 -0.7332
    9C      H3'  282   2.548   4.904   5.361 -0.3357  0.0746  1.9764
    9C      C2'  283   2.445   4.776   5.207  0.0541 -0.4981  0.1738
    9C      H2'  284   2.543   4.750   5.168  0.7560  0.0065  1.5518
    9C      O2'  285   2.344   4.671   5.192 -0.2646 -0.1828  0.5543
    9C     HO2'  286   2.259   4.706   5.219 -0.7347 -0.7124 -0.1984
    9C      O3'  287   2.448   4.748   5.444 -0.3767  0.3837 -0.3033
   10A        P  288   2.566   4.702   5.538 -0.2148  0.0971  0.1389
   10A      OP1  289   2.501   4.609   5.634 -0.2758 -0.3852 -0.1842
   10A      OP2  290   2.636   4.824   5.590  0.2125 -0.0384  0.4758
   10A      O5'  291   2.651   4.623   5.435 -0.0708 -0.7264 -0.4607
   10A      C5'  292   2.620   4.492   5.401  0.3111 -0.8729 -0.0476
   10A      H5'  293   2.511   4.481   5.408  0.1257  0.8320  0.4239
   10A     H5''  294   2.669   4.427   5.473 -0.3060 -3.0992 -1.5340
   10A      C4'  295   2.677   4.452   5.260  0.0593  0.2939  0.3444
   10A      H4'  296   2.625   4.361   5.229 -2.4981  1.8531 -0.2993
   10A      O4'  297   2.652   4.542   5.146  0.1012  0.4291 -0.2124
   10A      C1'  298   2.771   4.557   5.072 -0.4904  0.5612 -0.0622
   10A      H1'  299   2.759   4.552   4.964  2.6634  0.4577 -0.5064
   10A       N9  300   2.827   4.693   5.099  0.8196  1.1167  0.0604
   10A       C8  301   2.791   4.788   5.187 -0.5714 -0.3341 -0.2184
   10A       H8  302   2.723   4.776   5.270  0.3815  1.0695  0.8243
   10A       N7  303   2.851   4.905   5.170  0.4767  0.5744  0.0016
   10A       C5  304   2.930   4.880   5.063 -0.7546  0.2090 -0.5885
   10A       C6  305   3.033   4.960   5.002  0.1206 -0.5924  0.0929
   10A       N6  306   3.056   5.087   5.040  0.2972 -0.2280 -0.3106
   10A      H61  307   3.120   5.152   4.997  1.4114 -1.7441 -1.0018
   10A      H62  308   3.011   5.114   5.126 -1.9356 -1.5931 -0.9687
   10A       N1  309   3.085   4.920   4.890  0.2256 -0.2014  0.0959
   10A       C2  310   3.053   4.798   4.842  0.4857  0.2217  0.0343
   10A       H2  311   3.101   4.764   4.752 -0.3290 -2.1310  0.4191
   10A       N3  312   2.975   4.704   4.902 -0.5192 -0.1590  1.0210
   10A       C4  313   2.911   4.755   5.010 -0.1617  0.0546  0.0632
   10A      C3'  314   2.824   4.425   5.255  0.0331 -0.1242  0.1464
   10A      H3'  315   2.875   4.504   5.310  0.3834  0.2566 -0.7061
   10A      C2'  316   2.863   4.436   5.106  0.1131 -0.5233  0.0402
   10A      H2'  317   2.964   4.471   5.086 -0.4024  0.0696 -1.7652
   10A      O2'  318   2.818   4.324   5.025 -0.2765  0.1558  0.0007
   10A     HO2'  319   2.808   4.252   5.088  2.4551  0.7132  1.2467
   10A      O3'  320   2.855   4.289   5.287 -0.2624  0.2621 -0.1257
   11G        P  321   2.995   4.250   5.349  0.2026  0.0016  0.1353
   11G      OP1  322   2.987   4.105   5.353 -0.3446  0.3717 -0.2514
   11G      OP2  323   3.011   4.327   5.473 -0.1877  0.2390 -0.0075
   11G      O5'  324   3.099   4.309   5.241  0.2158  0.3028 -0.6097
   11G      C5'  325   3.128   4.239   5.112  0.3765 -0.1717  0.3364
   11G      H5'  326   3.095   4.311   5.036  0.1177 -0.8389 -0.2004
   11G     H5''  327   3.074   4.145   5.103  0.4523 -0.5537  3.1684
   11G      C4'  328   3.277   4.210   5.093 -0.1336  0.6821  0.1575
   11G      H4'  329   3.286   4.153   5.000  0.7500  2.6896 -1.0538
   11G      O4'  330   3.347   4.328   5.081 -0.4742 -0.2964  0.5864
   11G      C1'  331   3.473   4.323   5.150 -0.4979 -0.1859 -0.0919
   11G      H1'  332   3.560   4.347   5.088  1.7931  0.4680  3.1157
   11G       N9  333   3.467   4.412   5.262  0.1450  0.0719  0.2812
   11G       C8  334   3.367   4.420   5.353 -0.7318  0.1351 -0.9824
   11G       H8  335   3.286   4.350   5.368 -1.1919  0.6014 -1.2317
   11G       N7  336   3.371   4.527   5.430  0.1632 -0.3744  0.1285
   11G       C5  337   3.484   4.596   5.385 -0.2773 -0.6829  1.0617
   11G       C6  338   3.541   4.724   5.417 -0.1253 -0.9506 -0.1831
   11G       O6  339   3.505   4.804   5.504 -0.3300  0.1143 -0.1571
   11G       N1  340   3.656   4.755   5.349  0.0651  0.2478  0.4179
   11G       H1  341   3.706   4.840   5.367  2.3584 -0.0210 -3.4842
   11G       C2  342   3.708   4.669   5.257 -0.5876 -0.1559  0.5218
   11G       N2  343   3.824   4.704   5.208 -0.7234 -0.3366 -0.4044
   11G      H21  344   3.860   4.798   5.218 -1.3647  0.1585 -2.3606
   11G      H22  345   3.873   4.639   5.149 -1.3424 -1.1833  0.0046
   11G       N3  346   3.658   4.554   5.218 -0.1324 -0.0167  0.2083
   11G       C4  347   3.546   4.521   5.285  0.2699 -0.1998  0.2621
   11G      C3'  348   3.333   4.130   5.207 -0.9423 -0.1941  0.2553
   11G      H3'  349   3.290   4.156   5.304  0.6443  2.2818  0.3916
   11G      C2'  350   3.479   4.185   5.206  0.3205 -0.6222  0.2236
   11G      H2'  351   3.522   4.176   5.306 -0.6058 -0.1471  0.6781
   11G      O2'  352   3.559   4.117   5.113  0.1075  0.6870  0.3337
   11G     HO2'  353   3.624   4.079   5.173 -1.9139  0.4679  2.5227
   11G      O3'  354   3.320   3.996   5.170  0.2107 -0.7320  0.0650
   12U        P  355   3.308   3.885   5.280 -0.2574 -0.0089  0.0979
   12U      OP1  356   3.199   3.793   5.236 -0.8705  0.3348  0.2383
   12U      OP2  357   3.315   3.944   5.414  0.0991 -0.4274  0.3412
   12U      O5'  358   3.433   3.794   5.262 -0.4697 -0.4978  0.2774
   12U      C5'  359   3.554   3.823   5.331 -0.5306 -0.5288 -0.5651
   12U      H5'  360   3.532   3.869   5.427 -0.1522 -2.1244  0.3290
   12U     H5''  361   3.615   3.894   5.276 -0.5662 -0.1144 -0.0834
   12U      C4'  362   3.634   3.696   5.329  0.1538  0.2096 -0.1764
   12U      H4'  363   3.719   3.707   5.397  0.1050 -0.4279 -0.0052
   12U      O4'  364   3.566   3.580   5.363  0.4036  0.2919  0.4383
   12U      C1'  365   3.541   3.493   5.250 -0.6509 -0.2196  0.3913
   12U      H1'  366   3.614   3.413   5.260 -1.0221 -0.5129  0.7821
   12U       N1  367   3.410   3.428   5.257  0.2721  0.1299  0.0933
   12U       C6  368   3.304   3.486   5.189  0.2676  0.2812 -0.2058
   12U       H6  369   3.313   3.580   5.136  0.1901  1.8257  2.3695
   12U       C5  370   3.181   3.419   5.190 -0.1529 -0.3664 -0.3012
   12U       H5  371   3.099   3.460   5.133  0.0915 -1.4852 -1.5060
   12U       C4  372   3.157   3.299   5.262 -0.1138 -0.0768  0.1212
   12U       O4  373   3.055   3.236   5.259 -0.1777  0.6711 -0.2585
   12U       N3  374   3.266   3.253   5.337 -1.2763 -0.3024  0.5538
   12U       H3  375   3.256   3.162   5.381  0.7436 -0.1893  1.3942
   12U       C2  376   3.395   3.315   5.329  0.6607 -0.5433 -0.0845
   12U       O2  377   3.485   3.270   5.400 -0.2108 -0.1612 -0.2073
   12U      C3'  378   3.685   3.667   5.187  0.2247 -0.3758  0.6852
   12U      H3'  379   3.694   3.754   5.122  1.8746 -1.0560 -0.0652
   12U      C2'  380   3.582   3.576   5.123 -0.1065  0.1400 -0.8040
   12U      H2'  381   3.493   3.634   5.098 -1.2109 -0.6894  1.0210
   12U      O2'  382   3.628   3.482   5.029  0.4196  0.5020  0.4020
   12U     HO2'  383   3.554   3.484   4.967  0.4700  0.6303  0.3458
   12U      O3'  384   3.806   3.600   5.210  0.3493  0.1956  0.7838
   13A        P  385   3.945   3.681   5.212  0.1934  0.0321  0.1606
   13A      OP1  386   4.043   3.605   5.287  0.2305 -0.6843  0.2940
   13A      OP2  387   3.931   3.823   5.248 -0.7062 -0.0237  0.2680
   13A      O5'  388   3.992   3.685   5.065 -0.4427  0.3046 -0.1212
   13A      C5'  389   4.047   3.576   4.998  0.2253 -0.0481  0.4175
   13A      H5'  390   3.978   3.492   5.008 -2.0727  1.6649 -0.0067
   13A     H5''  391   4.148   3.563   5.035  0.6328 -0.4658 -0.7896
   13A      C4'  392   4.057   3.604   4.846  0.0948 -0.7464  0.5801
   13A      H4'  393   4.119   3.521   4.809 -0.0284 -0.5839 -0.0086
   13A      O4'  394   3.934   3.603   4.777  0.2846  0.0849  0.2986
   13A      C1'  395   3.931   3.721   4.690 -0.0193  0.2668 -0.1400
   13A      H1'  396   3.896   3.684   4.594  0.1439 -1.6590  0.4882
   13A       N9  397   3.837   3.817   4.758 -0.1289 -0.2602 -0.6853
   13A       C8  398   3.742   3.799   4.859 -0.1126 -0.2613  0.2707
   13A       H8  399   3.746   3.710   4.920  1.4915 -0.3071  0.1457
   13A       N7  400   3.673   3.904   4.889 -0.4204  0.6138 -0.0884
   13A       C5  401   3.721   4.004   4.801  0.1692 -0.3486 -0.1882
   13A       C6  402   3.696   4.144   4.779  0.0836  0.2712  0.4991
   13A       N6  403   3.613   4.221   4.847  0.1316  0.4164 -0.0811
   13A      H61  404   3.627   4.320   4.837 -1.9854  0.9676  1.9071
   13A      H62  405   3.566   4.178   4.925  0.8310 -1.2453 -0.5192
   13A       N1  406   3.762   4.212   4.680  0.3990 -0.0290 -0.5959
   13A       C2  407   3.859   4.148   4.625 -0.1918  0.3268 -0.6537
   13A       H2  408   3.917   4.212   4.559 -0.7773 -0.3106 -1.8134
   13A       N3  409   3.895   4.023   4.634  0.7530  0.0224 -0.0507
   13A       C4  410   3.821   3.950   4.723 -0.5706 -0.5991 -0.1577
   13A      C3'  411   4.136   3.729   4.811  0.2855 -0.6644  0.6556
   13A      H3'  412   4.108   3.809   4.879  1.0180 -0.3793  0.6283
   13A      C2'  413   4.082   3.767   4.675  0.2568  0.5807 -0.5669
   13A      H2'  414   4.075   3.874   4.660 -1.6487  0.6432  0.4337
   13A      O2'  415   4.128   3.694   4.565  0.5114  0.2188 -0.3990
   13A     HO2'  416   4.168   3.615   4.603 -0.5024  0.2927  0.8759
   13A      O3'  417   4.278   3.709   4.805 -0.1297  0.0707 -0.2854
   14A        P  418   4.373   3.809   4.889  0.6190 -0.2428  0.0647
   14A      OP1  419   4.516   3.764   4.869  0.1101 -0.6506 -0.0142
   14A      OP2  420   4.320   3.836   5.024  0.4501 -0.4763  0.4990
   14A      O5'  421   4.360   3.953   4.819  0.2869  1.1595 -0.2483
   14A      C5'  422   4.416   3.972   4.691 -0.4700  0.2352 -0.4163
   14A      H5'  423   4.351   3.908   4.631 -0.4635  0.1280 -0.3104
   14A     H5''  424   4.519   3.940   4.678 -0.8568 -1.4035  0.1910
   14A      C4'  425   4.413   4.116   4.646  0.4316  1.3168  0.9562
   14A      H4'  426   4.478   4.118   4.559  0.5144  1.3295  1.0173
   14A      O4'  427   4.280   4.150   4.612 -0.3297 -0.1232  0.1737
   14A      C1'  428   4.243   4.274   4.671 -0.0842 -0.4963  0.7345
   14A      H1'  429   4.206   4.338   4.591 -0.2604 -0.9379  0.4587
   14A       N9  430   4.137   4.255   4.780 -0.1007 -0.5168  0.0598
   14A       C8  431   4.111   4.136   4.847  0.2386  0.1673  0.5947
   14A       H8  432   4.156   4.043   4.815  1.9842  1.1802 -0.0014
   14A       N7  433   4.012   4.151   4.933  0.0823 -0.0319 -0.0926
   14A       C5  434   3.977   4.286   4.927 -0.6470 -0.3164  0.5159
   14A       C6  435   3.890   4.374   4.999 -0.4896 -0.0839  0.8544
   14A       N6  436   3.810   4.336   5.094 -0.0282  0.2219  0.3436
   14A      H61  437   3.771   4.405   5.156 -0.1459  0.6274 -0.1759
   14A      H62  438   3.830   4.242   5.127  0.5389  0.3925  0.4935
   14A       N1  439   3.899   4.510   4.980 -0.0919 -0.5940  0.3084
   14A       C2  440   3.992   4.551   4.893 -0.2941 -0.6980  0.8891
   14A       H2  441   4.005   4.657   4.878 -2.3804 -0.7845 -2.4785
   14A       N3  442   4.077   4.482   4.817 -0.3415  0.0812 -0.7123
   14A       C4  443   4.065   4.350   4.842 -0.2391 -0.9823  0.0288
   14A      C3'  444   4.461   4.208   4.754 -0.8074 -0.4504 -0.2577
   14A      H3'  445   4.430   4.173   4.852 -2.3154  2.0273  0.2390
   14A      C2'  446   4.375   4.341   4.725 -0.3518 -0.1194 -0.4301
   14A      H2'  447   4.364   4.401   4.816  0.9828 -2.3067  1.2949
   14A      O2'  448   4.429   4.418   4.619 -0.0167  0.3155  0.2557
   14A     HO2'  449   4.522   4.400   4.606 -0.3969 -0.3374 -2.0142
   14A      O3'  450   4.597   4.251   4.729 -0.0772  0.3733  0.7615
   15C        P  451   4.705   4.254   4.849 -0.3543  0.0993  0.1492
   15C      OP1  452   4.828   4.304   4.781 -0.2826  0.0342 -0.2113
   15C      OP2  453   4.711   4.125   4.921  0.1835  0.2173  0.1710
   15C      O5'  454   4.648   4.365   4.937 -0.0997 -0.7272  0.1122
   15C      C5'  455   4.680   4.494   4.906  0.1463 -0.8862 -0.1102
   15C      H5'  456   4.674   4.505   4.797  1.9245 -2.5330 -0.4387
   15C     H5''  457   4.779   4.521   4.943 -2.0265  2.7436  3.9569
   15C      C4'  458   4.603   4.606   4.971 -0.0053 -0.3313 -0.1252
   15C      H4'  459   4.622   4.700   4.919 -0.9737 -0.1666 -0.2127
   15C      O4'  460   4.466   4.582   4.944 -0.3646  0.8012  0.4085
   15C      C1'  461   4.384   4.615   5.055  0.1307 -0.2696  0.7478
   15C      H1'  462   4.307   4.683   5.017 -1.1116 -1.7664  0.5067
   15C       N1  463   4.314   4.504   5.119  0.0499  0.2267  0.1370
   15C       C6  464   4.345   4.368   5.093 -0.2143 -0.4697 -0.7570
   15C       H6  465   4.417   4.341   5.018  0.0086 -1.7613 -0.0945
   15C       C5  466   4.273   4.266   5.153  0.0149 -0.2184  0.0987
   15C       H5  467   4.293   4.160   5.143 -0.8421 -0.4518  0.7888
   15C       C4  468   4.161   4.305   5.232  0.4911 -0.3905 -0.2176
   15C       N4  469   4.080   4.213   5.281  0.0102  0.4143  0.0665
   15C      H41  470   4.002   4.241   5.339 -0.0780 -1.2578  0.7948
   15C      H42  471   4.098   4.116   5.262  0.7948  0.4027  0.8133
   15C       N3  472   4.129   4.431   5.262  0.0722  0.2173  0.2077
   15C       C2  473   4.205   4.528   5.208 -0.5577  0.3066 -0.3022
   15C       O2  474   4.167   4.642   5.232  0.0704  0.1352 -0.1942
   15C      C3'  475   4.614   4.613   5.121 -0.2811  0.0131  0.4937
   15C      H3'  476   4.615   4.514   5.167  0.4063 -1.6116 -2.7521
   15C      C2'  477   4.484   4.681   5.151  0.2162 -0.2688  0.6782
   15C      H2'  478   4.459   4.666   5.256  0.5822 -0.7670  0.6973
   15C      O2'  479   4.489   4.821   5.119  0.4090 -0.3510 -0.2226
   15C     HO2'  480   4.417   4.867   5.164  1.2780  1.4912 -0.5916
   15C      O3'  481   4.732   4.674   5.161 -0.1566  0.5232 -0.2138
   16C        P  482   4.783   4.652   5.307  0.2945 -0.3421 -0.1435
   16C      OP1  483   4.906   4.736   5.315  0.1272  0.0232  0.7127
   16C      OP2  484   4.803   4.510   5.330  0.2947 -0.2953  1.0545
   16C      O5'  485   4.674   4.700   5.413 -0.1516  0.3724  0.1148
   16C      C5'  486   4.650   4.836   5.433 -0.2299  0.6714  0.1771
   16C      H5'  487   4.615   4.892   5.346  3.0100 -0.0697 -1.7771
   16C     H5''  488   4.744   4.886   5.456 -0.6906  1.9561 -0.5933
   16C      C4'  489   4.559   4.866   5.552  0.1544 -0.5593  0.1440
   16C      H4'  490   4.552   4.973   5.571 -0.9526 -0.7725  1.0918
   16C      O4'  491   4.429   4.821   5.519 -0.1175 -0.6919 -0.0333
   16C      C1'  492   4.358   4.779   5.632  0.2602  0.0501 -0.0611
   16C      H1'  493   4.266   4.835   5.621 -0.1023 -0.3389  0.9081
   16C       N1  494   4.315   4.642   5.638 -0.1834  0.2398  0.2061
   16C       C6  495   4.370   4.548   5.561  0.0114  0.7561 -0.2223
   16C       H6  496   4.441   4.576   5.485 -0.3733 -1.2371 -1.3788
   16C       C5  497   4.321   4.421   5.564 -0.4306  0.4481 -0.3484
   16C       H5  498   4.365   4.344   5.502  1.1464 -0.3261  1.5996
   16C       C4  499   4.225   4.390   5.667 -0.0997 -0.0587  0.4844
   16C       N4  500   4.159   4.277   5.668  0.3364  0.4758 -0.0156
   16C      H41  501   4.071   4.275   5.718  0.6443 -2.8455  0.6395
   16C      H42  502   4.183   4.198   5.609  0.4258  0.9331 -0.5956
   16C       N3  503   4.165   4.481   5.745 -0.2821 -0.0341  0.6685
   16C       C2  504   4.209   4.609   5.726 -0.2783 -0.1171  0.2511
   16C       O2  505   4.154   4.697   5.794  0.3451  0.6866 -0.5208
   16C      C3'  506   4.582   4.812   5.688  0.2313 -0.1523  0.2435
   16C      H3'  507   4.595   4.704   5.685 -0.6575 -0.3085  1.3114
   16C      C2'  508   4.441   4.825   5.753 -0.7472  0.8218  0.0293
   16C      H2'  509   4.424   4.758   5.837  0.0216 -0.9110 -1.1535
   16C      O2'  510   4.404   4.967   5.776 -0.0458  0.1227  1.0707
   16C     HO2'  511   4.371   4.969   5.866 -2.2201 -0.6142  0.3432
   16C      O3'  512   4.682   4.875   5.772  0.2544  0.4108  0.3414
   17C        P  513   4.759   4.792   5.884 -0.0008 -0.0576 -0.2496
   17C      OP1  514   4.847   4.893   5.949  0.3200 -0.1480  0.3829
   17C      OP2  515   4.826   4.673   5.829  0.2297 -0.6907  0.6512
   17C      O5'  516   4.659   4.745   6.003 -0.0508 -0.1159  0.0123
   17C      C5'  517   4.609   4.843   6.096  0.3428  0.6033  0.0939
   17C      H5'  518   4.581   4.933   6.041  2.0164  0.4684 -1.0618
   17C     H5''  519   4.696   4.876   6.152  0.9888 -0.2455 -0.3848
   17C      C4'  520   4.503   4.799   6.204 -0.1347  0.0103  0.5562
   17C      H4'  521   4.494   4.888   6.266  3.7623 -0.2998  1.8474
   17C      O4'  522   4.380   4.765   6.135 -0.0078 -0.4743  0.1019
   17C      C1'  523   4.314   4.661   6.204  0.3074  0.8326 -0.4645
   17C      H1'  524   4.207   4.673   6.217  0.3148 -0.5902  1.1761
   17C       N1  525   4.321   4.531   6.133  0.7065  0.0825 -0.2157
   17C       C6  526   4.398   4.508   6.026 -0.3000 -1.2299 -0.1950
   17C       H6  527   4.467   4.585   5.996 -0.5404 -1.3856 -1.1754
   17C       C5  528   4.385   4.395   5.955 -1.1629  0.1118 -0.1896
   17C       H5  529   4.455   4.382   5.873 -2.1037 -0.8030 -0.8834
   17C       C4  530   4.293   4.299   5.999 -0.2692  0.0925  0.3127
   17C       N4  531   4.287   4.186   5.932  0.8176  0.2620  0.2047
   17C      H41  532   4.209   4.126   5.954 -0.0614  0.5600 -1.9025
   17C      H42  533   4.332   4.183   5.842 -2.4381  0.0334 -1.5846
   17C       N3  534   4.215   4.319   6.102  0.7602 -0.5944 -0.4947
   17C       C2  535   4.230   4.432   6.172 -0.1710  0.0744 -0.0977
   17C       O2  536   4.168   4.439   6.279 -0.1167 -0.1253 -0.1632
   17C      C3'  537   4.532   4.675   6.285 -0.7111  0.4914 -0.5723
   17C      H3'  538   4.566   4.602   6.212 -0.1100  0.1537  0.0297
   17C      C2'  539   4.395   4.647   6.337  0.2785 -0.0593 -0.2679
   17C      H2'  540   4.391   4.547   6.379  1.7409  0.0500  0.1746
   17C      O2'  541   4.351   4.749   6.428 -0.1000  0.3806  0.4041
   17C     HO2'  542   4.267   4.711   6.454  0.7820 -3.3412 -1.5160
   17C      O3'  543   4.625   4.687   6.396 -0.4670 -0.0581  0.0874
   18C        P  544   4.706   4.562   6.445  0.2439  0.0907  0.2500
   18C      OP1  545   4.814   4.606   6.533 -0.6353 -0.0615 -0.2943
   18C      OP2  546   4.752   4.486   6.319  1.2922 -0.3585  0.3817
   18C      O5'  547   4.616   4.472   6.526 -0.0260 -0.0784  0.6652
   18C      C5'  548   4.563   4.512   6.652  0.0580  0.0862 -0.8831
   18C      H5'  549   4.514   4.610   6.643 -1.7007 -0.7632 -1.0621
   18C     H5''  550   4.642   4.526   6.725  1.1166 -1.8726 -1.5693
   18C      C4'  551   4.449   4.409   6.684  0.3656 -0.1312 -0.2056
   18C      H4'  552   4.390   4.445   6.769 -0.1750 -0.3616 -0.4821
   18C      O4'  553   4.358   4.389   6.571 -0.2358 -0.0620 -0.2488
   18C      C1'  554   4.307   4.258   6.578 -0.9851  0.2122 -0.0023
   18C      H1'  555   4.199   4.256   6.593 -1.1308  0.5765 -0.9002
   18C       N1  556   4.330   4.176   6.452 -0.8098  0.2161 -0.4066
   18C       C6  557   4.439   4.214   6.374 -0.7685 -0.5798 -0.0982
   18C       H6  558   4.474   4.316   6.373 -0.0800 -0.7888 -2.4179
   18C       C5  559   4.483   4.132   6.276  0.2266  0.3202 -0.5540
   18C       H5  560   4.561   4.165   6.210 -0.3834  1.6748 -0.6493
   18C       C4  561   4.422   4.012   6.264  0.3123 -0.1547  0.7496
   18C       N4  562   4.467   3.937   6.169  0.0665 -0.6094  0.7791
   18C      H41  563   4.425   3.846   6.158 -0.3519 -0.1824 -2.2260
   18C      H42  564   4.528   3.976   6.098 -0.0074 -3.1348 -0.8164
   18C       N3  565   4.316   3.973   6.329 -0.0322  0.0879 -0.1861
   18C       C2  566   4.269   4.052   6.428  0.6888  0.4122 -0.2689
   18C       O2  567   4.194   4.000   6.513 -0.0432  0.1726  0.6015
   18C      C3'  568   4.510   4.274   6.714  0.5509 -0.2150 -0.2386
   18C      H3'  569   4.582   4.229   6.645 -0.6177 -1.3795 -0.7365
   18C      C2'  570   4.382   4.187   6.691 -0.2137 -0.6585 -0.5356
   18C      H2'  571   4.394   4.080   6.674 -2.5694 -1.0219 -0.2662
   18C      O2'  572   4.292   4.208   6.797 -0.5746  0.5211 -0.7667
   18C     HO2'  573   4.238   4.129   6.802  0.2064 -0.1930 -2.6810
   18C      O3'  574   4.564   4.267   6.848 -0.0365  0.1651  0.0085
   19A        P  575   4.690   4.185   6.887  0.2357  0.7486 -0.0905
   19A      OP1  576   4.723   4.207   7.032  0.2535 -0.0605  0.2340
   19A      OP2  577   4.794   4.217   6.786  0.1093 -0.4096  0.1603
   19A      O5'  578   4.639   4.030   6.873 -0.3952 -0.0901  0.1949
   19A      C5'  579   4.556   3.978   6.970  0.3495 -0.2582 -0.5435
   19A      H5'  580   4.484   4.055   7.000  2.0155  1.5580 -1.0171
   19A     H5''  581   4.609   3.952   7.061 -1.1250 -1.4523  0.0113
   19A      C4'  582   4.476   3.851   6.918 -0.2894 -0.5286  0.2156
   19A      H4'  583   4.398   3.828   6.990  0.4405 -0.1457  1.1423
   19A      O4'  584   4.409   3.872   6.790 -0.6402  0.5569 -0.2616
   19A      C1'  585   4.385   3.750   6.723 -0.4838 -0.1185 -0.1202
   19A      H1'  586   4.277   3.741   6.711 -0.8316 -1.6968  3.1185
   19A       N9  587   4.462   3.743   6.594 -0.2712 -0.0157 -0.7400
   19A       C8  588   4.534   3.842   6.531 -0.0668  1.2141 -0.5483
   19A       H8  589   4.545   3.931   6.592 -4.2222  1.5944 -0.0894
   19A       N7  590   4.584   3.817   6.410 -0.3337 -0.0958 -0.3746
   19A       C5  591   4.523   3.694   6.383  0.8740 -0.1219  0.2190
   19A       C6  592   4.525   3.602   6.274  0.0332  0.0049  1.0476
   19A       N6  593   4.566   3.618   6.151 -0.5758  0.3109  0.2986
   19A      H61  594   4.543   3.553   6.077 -0.5877  0.8815 -0.2060
   19A      H62  595   4.609   3.708   6.136 -1.4725  1.1542  2.3819
   19A       N1  596   4.449   3.487   6.282  0.3742  0.4486  0.5045
   19A       C2  597   4.380   3.467   6.387  0.3518  0.0043 -0.3392
   19A       H2  598   4.337   3.369   6.398 -0.2126  0.1859 -0.8823
   19A       N3  599   4.372   3.541   6.500  0.0606  0.0969  0.3643
   19A       C4  600   4.445   3.654   6.486 -0.1440  0.0635  0.0443
   19A      C3'  601   4.547   3.719   6.902 -0.4818  0.1328  0.3740
   19A      H3'  602   4.637   3.735   6.843 -1.0432  1.6491 -0.1141
   19A      C2'  603   4.444   3.645   6.818 -0.4126 -0.2208 -0.2998
   19A      H2'  604   4.483   3.563   6.757 -1.7360 -0.5224 -0.7724
   19A      O2'  605   4.336   3.591   6.897 -0.3446  0.2194  0.0075
   19A     HO2'  606   4.266   3.563   6.839 -0.8591  2.4461 -0.5393
   19A      O3'  607   4.583   3.669   7.024 -0.1436  0.1921 -0.4194
   20G        P  608   4.692   3.558   7.041  0.1796  0.2619  0.0492
   20G      OP1  609   4.704   3.524   7.183 -0.2677 -0.7965  0.1311
   20G      OP2  610   4.818   3.597   6.973 -0.3053 -0.1564 -0.0030
   20G      O5'  611   4.646   3.427   6.975  0.4815  0.1208 -0.7611
   20G      C5'  612   4.533   3.357   7.030 -0.1487 -0.3004 -0.2507
   20G      H5'  613   4.441   3.417   7.034 -0.4819 -0.8465  0.5241
   20G     H5''  614   4.543   3.326   7.134 -3.2079  0.0707  0.2530
   20G      C4'  615   4.498   3.236   6.943 -0.0736 -0.1423 -0.0518
   20G      H4'  616   4.399   3.202   6.975  0.0943 -0.2222  0.3960
   20G      O4'  617   4.496   3.280   6.805  0.1282  0.7522  0.4326
   20G      C1'  618   4.584   3.196   6.732  0.9181  0.0648 -0.0491
   20G      H1'  619   4.519   3.118   6.694  3.0104 -1.6408 -0.3325
   20G       N9  620   4.644   3.279   6.625  0.2985  0.5088  0.2361
   20G       C8  621   4.689   3.408   6.620  0.4028 -0.1451 -0.2611
   20G       H8  622   4.671   3.474   6.703  2.2107 -0.7497  0.6745
   20G       N7  623   4.733   3.449   6.508  0.0134 -0.7830  0.2378
   20G       C5  624   4.718   3.342   6.424  0.2168  0.9094  0.0712
   20G       C6  625   4.750   3.314   6.286  0.5404 -0.2580  0.3043
   20G       O6  626   4.797   3.388   6.206  0.3129 -0.4166 -0.9134
   20G       N1  627   4.724   3.183   6.248  0.6580 -0.0779  0.0523
   20G       H1  628   4.737   3.161   6.151  1.3438  1.3389 -0.1925
   20G       C2  629   4.672   3.092   6.331  0.2933  0.8303 -0.2826
   20G       N2  630   4.637   2.980   6.268 -0.2380 -0.4797  0.0531
   20G      H21  631   4.649   2.977   6.168 -1.0147  2.9635 -0.2614
   20G      H22  632   4.578   2.910   6.312  0.6645 -1.1597  0.2203
   20G       N3  633   4.634   3.108   6.462 -0.3161  0.4052 -0.2615
   20G       C4  634   4.662   3.235   6.499 -0.0671 -0.4112  0.3311
   20G      C3'  635   4.604   3.124   6.957  1.2894  0.8672 -0.0643
   20G      H3'  636   4.662   3.131   7.049  2.3473 -0.9187 -0.5539
   20G      C2'  637   4.688   3.144   6.832 -0.6724  1.3002 -0.0904
   20G      H2'  638   4.761   3.223   6.850  0.4254  0.1824  0.5185
   20G      O2'  639   4.753   3.018   6.789 -0.2099 -0.1723  0.2174
   20G     HO2'  640   4.695   2.944   6.807 -0.4239  0.3058  1.6525
   20G      O3'  641   4.552   2.989   6.956 -0.2628 -0.5102 -0.1408
   21U        P  642   4.487   2.917   7.083 -0.4093  0.6000  0.4785
   21U      OP1  643   4.438   3.018   7.181  0.1498  0.1133 -1.0576
   21U      OP2  644   4.580   2.807   7.119  0.6871 -0.1080 -0.4367
   21U      O5'  645   4.364   2.859   7.000  0.5780 -0.5601 -0.4446
   21U      C5'  646   4.230   2.894   7.031  0.1798  0.2535  0.3705
   21U      H5'  647   4.211   2.985   6.975  0.4343 -0.6881 -1.3095
   21U     H5''  648   4.221   2.923   7.136  2.7735  3.6538 -0.1873
   21U      C4'  649   4.120   2.809   6.980 -0.4467 -0.1806  0.2741
   21U      H4'  650   4.024   2.847   7.016 -2.0636  0.1466 -3.8471
   21U      O4'  651   4.122   2.818   6.840  0.6815  0.3904 -0.9094
   21U      C1'  652   4.166   2.695   6.788  1.1891  0.1692 -0.8223
   21U      H1'  653   4.080   2.652   6.736 -0.5160  1.6691  0.6339
   21U       N1  654   4.270   2.712   6.683  0.0060  0.1036 -0.2434
   21U       C6  655   4.365   2.810   6.687  0.3485 -0.1624 -0.8502
   21U       H6  656   4.356   2.877   6.772  2.8822  0.6418 -1.1279
   21U       C5  657   4.462   2.825   6.589  0.0080  0.2035  0.7306
   21U       H5  658   4.539   2.900   6.584  1.1217 -0.8615  1.0978
   21U       C4  659   4.467   2.739   6.470  0.3889 -0.3330  0.4010
   21U       O4  660   4.542   2.742   6.375 -0.3135 -0.2506 -0.1184
   21U       N3  661   4.355   2.655   6.471  0.1760 -1.0131 -0.5545
   21U       H3  662   4.356   2.588   6.395  0.9996 -0.1746 -1.2952
   21U       C2  663   4.266   2.626   6.579 -0.6105 -0.1124  0.7419
   21U       O2  664   4.196   2.532   6.570  0.2407  0.0009  0.1416
   21U      C3'  665   4.152   2.663   7.020 -0.1032 -0.4234 -0.5089
   21U      H3'  666   4.214   2.650   7.109 -2.9829 -2.7693  1.3157
   21U      C2'  667   4.221   2.608   6.895  0.9656  0.4272  0.0700
   21U      H2'  668   4.329   2.620   6.908  1.5769 -1.8760 -2.0844
   21U      O2'  669   4.196   2.467   6.878  0.0406 -0.1674 -0.0104
   21U     HO2'  670   4.116   2.445   6.926 -0.0280  1.8483  0.8839
   21U      O3'  671   4.020   2.613   7.042 -0.3745 -0.0114 -0.0717
   22U        P  672   3.985   2.566   7.186  0.1477  0.0692  0.1733
   22U      OP1  673   4.106   2.523   7.257 -0.5333 -0.3230  0.1936
   22U      OP2  674   3.866   2.479   7.173  0.4041  0.1476 -0.7796
   22U      O5'  675   3.939   2.708   7.257  0.7165 -0.0848  0.8230
   22U      C5'  676   3.813   2.771   7.229  0.2739  0.4006  0.5135
   22U      H5'  677   3.728   2.705   7.243  1.9094 -1.8809  0.3193
   22U     H5''  678   3.804   2.803   7.125 -0.7399 -0.2790  0.3841
   22U      C4'  679   3.780   2.901   7.309  0.2899  0.3000  0.6617
   22U      H4'  680   3.681   2.932   7.275  0.4349  0.3200  0.2506
   22U      O4'  681   3.785   2.870   7.448  0.1595 -0.2740  0.5511
   22U      C1'  682   3.882   2.947   7.514  0.5259  0.3390 -0.4456
   22U      H1'  683   3.845   3.036   7.565 -0.9893 -1.2179  1.3386
   22U       N1  684   3.956   2.863   7.616 -0.1812  0.2813  0.2116
   22U       C6  685   4.005   2.733   7.602  0.4649  0.3721  0.0397
   22U       H6  686   3.980   2.683   7.510 -0.2685  1.1382 -0.1985
   22U       C5  687   4.059   2.663   7.705 -0.2112  0.8366  0.0923
   22U       H5  688   4.081   2.558   7.696  1.0149  1.1575 -0.8800
   22U       C4  689   4.085   2.734   7.833 -0.8095 -0.9541 -0.6640
   22U       O4  690   4.129   2.681   7.939  0.3971  0.4674  0.3510
   22U       N3  691   4.031   2.860   7.842 -0.3629 -0.2518  0.6079
   22U       H3  692   4.043   2.910   7.929 -1.5103 -0.0702  0.6813
   22U       C2  693   3.976   2.927   7.733  0.2514  0.4408 -0.5020
   22U       O2  694   3.937   3.040   7.760 -1.3157  0.3106  0.0153
   22U      C3'  695   3.887   3.012   7.282 -0.2163 -0.1327  0.4750
   22U      H3'  696   3.941   3.000   7.188 -0.7948  0.2119  0.0943
   22U      C2'  697   3.977   2.998   7.405  0.9730 -0.3733  0.7903
   22U      H2'  698   4.051   2.922   7.380  0.4392  0.3772 -3.9245
   22U      O2'  699   4.034   3.127   7.434  0.1698 -0.5867 -0.2058
   22U     HO2'  700   3.964   3.192   7.417  1.3396  0.2981 -2.0268
   22U      O3'  701   3.828   3.142   7.278 -0.1159  0.1759 -0.5910
   23A        P  702   3.768   3.192   7.145 -0.3140 -0.4638 -0.0817
   23A      OP1  703   3.676   3.304   7.174  0.6799  0.0216 -0.0053
   23A      OP2  704   3.723   3.072   7.067  0.3725 -0.0695  0.7266
   23A      O5'  705   3.880   3.246   7.056  0.0100 -0.4644 -0.1035
   23A      C5'  706   3.979   3.347   7.091  0.0700 -0.3589  0.0324
   23A      H5'  707   4.045   3.298   7.163 -0.4326 -0.1042  0.6812
   23A     H5''  708   3.931   3.431   7.142  1.1672  0.5481 -0.3953
   23A      C4'  709   4.060   3.414   6.981  0.3249  0.2728 -0.3859
   23A      H4'  710   4.127   3.493   7.013  0.7299  0.5602 -1.8885
   23A      O4'  711   4.142   3.318   6.923 -0.1034  0.2792  0.1556
   23A      C1'  712   4.123   3.326   6.786 -0.4201 -0.5740  0.8561
   23A      H1'  713   4.223   3.342   6.746 -0.5345  0.9050  1.1170
   23A       N9  714   4.058   3.202   6.728  0.3167 -0.3024  0.1278
   23A       C8  715   3.922   3.169   6.729  0.7592 -0.2537  0.5932
   23A       H8  716   3.851   3.233   6.779 -0.1509 -1.1786  0.5340
   23A       N7  717   3.894   3.058   6.666  0.0817 -0.2807  0.0418
   23A       C5  718   4.021   3.024   6.606  0.1241  0.4187  1.0979
   23A       C6  719   4.065   2.929   6.514  0.8242 -0.0649  0.5628
   23A       N6  720   3.997   2.819   6.482  0.1195 -0.4222  0.3843
   23A      H61  721   4.034   2.759   6.409  0.3681  0.4993 -0.2685
   23A      H62  722   3.912   2.796   6.532  1.6312 -3.2424  1.9037
   23A       N1  723   4.177   2.940   6.451 -0.0723 -0.2817  0.2078
   23A       C2  724   4.259   3.044   6.483 -0.1834 -0.4522  0.0902
   23A       H2  725   4.351   3.067   6.431 -1.0795  2.2561 -0.4685
   23A       N3  726   4.236   3.134   6.581  0.4409 -0.0454 -0.5410
   23A       C4  727   4.114   3.119   6.637  0.2274 -0.0309  0.4319
   23A      C3'  728   3.968   3.475   6.872  0.5071 -0.0795 -0.3323
   23A      H3'  729   3.877   3.420   6.851 -1.4122  2.2235  1.3653
   23A      C2'  730   4.050   3.454   6.742  0.4644  0.1229 -0.9923
   23A      H2'  731   3.979   3.442   6.660  0.5852 -0.2274 -1.0441
   23A      O2'  732   4.148   3.554   6.706  0.1756  0.1824  0.0220
   23A     HO2'  733   4.178   3.539   6.616 -0.0569  1.2291 -0.2398
   23A      O3'  734   3.945   3.612   6.906  0.1343 -0.0581 -0.6014
   24A        P  735   3.840   3.698   6.834 -0.2601  0.7312 -0.0542
   24A      OP1  736   3.735   3.623   6.765 -0.0062 -0.4559 -0.4817
   24A      OP2  737   3.915   3.805   6.767  0.5772 -0.2400 -0.1396
   24A      O5'  738   3.784   3.757   6.965 -0.0348  0.7103  0.1129
   24A      C5'  739   3.721   3.663   7.056  0.0671  0.3798 -0.3415
   24A      H5'  740   3.769   3.565   7.045 -0.8214 -0.0792 -0.2247
   24A     H5''  741   3.614   3.648   7.040 -0.3875  0.8274  1.9224
   24A      C4'  742   3.743   3.702   7.202 -0.4238  0.4961  0.4544
   24A      H4'  743   3.673   3.637   7.254 -0.2581 -0.3421 -0.3468
   24A      O4'  744   3.876   3.670   7.250  0.2768  0.0565 -0.2370
   24A      C1'  745   3.915   3.787   7.329  0.1321  1.2275  0.1609
   24A      H1'  746   3.955   3.755   7.426  1.5900  0.2046 -0.7476
   24A       N9  747   4.026   3.855   7.266 -0.0867 -0.5118 -0.1285
   24A       C8  748   4.079   3.838   7.140  0.7688 -0.6551  0.0304
   24A       H8  749   4.042   3.759   7.077 -0.3357  1.5835 -2.3134
   24A       N7  750   4.164   3.930   7.103  0.3287 -0.0560 -0.3684
   24A       C5  751   4.166   4.008   7.215 -0.5060 -0.5005  0.0629
   24A       C6  752   4.250   4.122   7.249  0.3342 -0.4566 -0.2270
   24A       N6  753   4.332   4.185   7.157 -0.4114  0.3145  0.1797
   24A      H61  754   4.378   4.273   7.176 -1.0941  0.5313  0.8522
   24A      H62  755   4.332   4.158   7.060  2.0008  1.0622 -0.1109
   24A       N1  756   4.238   4.186   7.366  0.3213 -0.0682  0.9376
   24A       C2  757   4.144   4.137   7.450  0.7117  0.1568 -0.0537
   24A       H2  758   4.136   4.196   7.540  0.6040 -1.8861  1.3490
   24A       N3  759   4.068   4.031   7.432  0.1885 -0.3051 -0.4970
   24A       C4  760   4.090   3.965   7.317  0.9366 -0.2589  0.6834
   24A      C3'  761   3.707   3.844   7.235 -0.6687 -0.8441  0.1395
   24A      H3'  762   3.746   3.907   7.155  0.6786 -0.9757  0.6555
   24A      C2'  763   3.794   3.873   7.358 -0.7478 -0.7125  0.5661
   24A      H2'  764   3.818   3.979   7.347 -1.4772 -0.6873 -1.0647
   24A      O2'  765   3.729   3.833   7.480  0.3141 -0.0718  0.6620
   24A     HO2'  766   3.637   3.836   7.454  0.2618  2.1111  0.8426
   24A      O3'  767   3.571   3.871   7.261 -0.0482  0.5341 -0.4994
   25C        P  768   3.501   3.993   7.195 -0.0323  0.2215  0.6348
   25C      OP1  769   3.366   4.002   7.244  0.1383  0.1649  0.6214
   25C      OP2  770   3.522   3.980   7.048  0.0493 -0.1795  0.2163
   25C      O5'  771   3.576   4.123   7.229 -0.2918 -0.0339 -0.1454
   25C      C5'  772   3.575   4.158   7.365  1.0147 -1.0032  0.2587
   25C      H5'  773   3.609   4.081   7.435  1.0839  0.5472  2.0273
   25C     H5''  774   3.473   4.193   7.380  1.7533  2.3193 -1.4875
   25C      C4'  775   3.675   4.264   7.392 -0.2269 -0.5588 -0.0929
   25C      H4'  776   3.666   4.279   7.499  0.3906  0.1002 -0.1284
   25C      O4'  777   3.813   4.224   7.360  0.5874  0.7942  0.5530
   25C      C1'  778   3.878   4.355   7.354 -0.3052 -0.2468  0.2165
   25C      H1'  779   3.931   4.377   7.447 -1.7993 -1.8685  1.5152
   25C       N1  780   3.975   4.369   7.241 -0.1537 -0.1533 -0.1951
   25C       C6  781   3.961   4.288   7.128  0.0307  0.7994 -0.7370
   25C       H6  782   3.893   4.205   7.128 -1.9148  2.3153 -1.1077
   25C       C5  783   4.032   4.310   7.013 -0.0752  0.0640  0.2530
   25C       H5  784   4.028   4.235   6.935 -0.0312 -0.0632  0.3730
   25C       C4  785   4.106   4.427   7.014  0.8772  0.2442  0.8908
   25C       N4  786   4.180   4.458   6.911  0.1979 -0.4083  0.4102
   25C      H41  787   4.237   4.541   6.915 -0.9259  0.5430 -1.7479
   25C      H42  788   4.190   4.387   6.840 -1.1294 -0.4643  0.2471
   25C       N3  789   4.119   4.509   7.112 -0.3466  0.3339 -0.4222
   25C       C2  790   4.053   4.484   7.230 -0.5240 -0.5539  0.5589
   25C       O2  791   4.072   4.561   7.328 -0.1313 -0.4672  0.8062
   25C      C3'  792   3.642   4.392   7.311  0.1499 -0.1732  0.1474
   25C      H3'  793   3.639   4.360   7.207  0.7183 -1.6230  0.5499
   25C      C2'  794   3.770   4.467   7.339 -0.1670  0.5991 -0.4584
   25C      H2'  795   3.796   4.535   7.257  0.0779  0.0689 -0.8278
   25C      O2'  796   3.754   4.542   7.461  0.1771 -0.1008  0.0345
   25C     HO2'  797   3.669   4.520   7.499  0.0669 -0.0764 -0.2003
   25C      O3'  798   3.521   4.456   7.348  0.1707  0.5468  0.0790
   26A        P  799   3.438   4.542   7.244  0.2518 -0.0718  0.2166
   26A      OP1  800   3.327   4.606   7.324 -0.1408 -0.1174 -0.1051
   26A      OP2  801   3.398   4.453   7.136  0.2288 -0.2920  0.3488
   26A      O5'  802   3.542   4.645   7.196 -0.3404 -0.6254 -0.0634
   26A      C5'  803   3.588   4.751   7.274 -0.6863  0.0814 -0.0424
   26A      H5'  804   3.635   4.721   7.367 -0.5524 -1.1861 -0.5018
   26A     H5''  805   3.504   4.819   7.290 -1.7262 -0.4875 -2.4623
   26A      C4'  806   3.703   4.827   7.200 -0.5537  0.4235 -0.1208
   26A      H4'  807   3.760   4.884   7.272 -0.8871 -0.1062  0.5846
   26A      O4'  808   3.798   4.728   7.141  0.1982  0.0637 -0.6644
   26A      C1'  809   3.875   4.788   7.044 -0.0218  0.2135  0.5031
   26A      H1'  810   3.975   4.820   7.074  0.7122  0.9237 -2.3540
   26A       N9  811   3.882   4.700   6.926 -0.2788  0.0446  0.3715
   26A       C8  812   3.814   4.585   6.892  0.3059 -0.0829 -0.5045
   26A       H8  813   3.737   4.557   6.962  1.7205 -1.3775  0.5783
   26A       N7  814   3.850   4.524   6.778  0.5084 -0.4800 -0.3846
   26A       C5  815   3.950   4.610   6.733 -0.2642  0.1622 -0.4141
   26A       C6  816   4.041   4.610   6.626  0.3036  0.1936  0.3168
   26A       N6  817   4.042   4.508   6.537 -0.2969  0.3477 -0.2208
   26A      H61  818   4.106   4.521   6.460  1.4377  2.0183  1.3757
   26A      H62  819   3.964   4.444   6.541 -0.0494 -0.0086 -0.9315
   26A       N1  820   4.137   4.701   6.613  0.5133 -0.6676 -0.2397
   26A       C2  821   4.143   4.795   6.704  0.5856 -0.1284 -0.2203
   26A       H2  822   4.220   4.870   6.689 -0.1287  0.4116 -1.3615
   26A       N3  823   4.061   4.815   6.807  0.3215 -0.6479 -0.0811
   26A       C4  824   3.974   4.711   6.823  0.3068 -0.2296 -0.2507
   26A      C3'  825   3.660   4.901   7.076 -0.4788  0.3573  0.5886
   26A      H3'  826   3.596   4.834   7.019  0.9809 -1.9244  1.5141
   26A      C2'  827   3.800   4.921   7.010 -0.1568 -0.0058 -0.3108
   26A      H2'  828   3.780   4.928   6.903  1.1179 -2.1903 -0.7557
   26A      O2'  829   3.886   5.020   7.059 -0.2508 -0.0289 -0.3887
   26A     HO2'  830   3.896   5.083   6.987 -0.8802 -0.1288 -0.5726
   26A      O3'  831   3.609   5.030   7.106  0.0107 -0.3969  0.5153
   27A        P  832   3.533   5.102   6.984 -0.3410 -0.2293 -0.2668
   27A      OP1  833   3.470   5.224   7.032  0.5256 -0.2711  0.0157
   27A      OP2  834   3.448   5.001   6.914 -0.3341 -0.1360  0.5079
   27A      O5'  835   3.655   5.146   6.890  0.3828  1.0104 -0.4143
   27A      C5'  836   3.716   5.268   6.897 -0.0588 -0.7329 -0.2119
   27A      H5'  837   3.752   5.275   7.000 -0.4670 -0.8990 -0.0580
   27A     H5''  838   3.649   5.352   6.879  1.6899  0.8754  0.3977
   27A      C4'  839   3.835   5.280   6.800 -0.0174 -0.6782  0.5543
   27A      H4'  840   3.904   5.362   6.823 -3.1786  2.7228 -0.9530
   27A      O4'  841   3.899   5.154   6.778 -0.1370 -0.0323 -0.1518
   27A      C1'  842   3.940   5.147   6.647 -0.2470  0.4608  1.6465
   27A      H1'  843   4.047   5.127   6.643 -0.4888 -0.8660 -1.7865
   27A       N9  844   3.875   5.028   6.584 -0.8636  0.2534  0.4132
   27A       C8  845   3.753   4.978   6.605 -0.1018 -0.0870  0.4648
   27A       H8  846   3.685   5.026   6.674  0.5443 -0.6649  1.5299
   27A       N7  847   3.723   4.871   6.541  0.2405  0.7184 -0.3323
   27A       C5  848   3.829   4.861   6.456 -0.9820  0.2040  0.5033
   27A       C6  849   3.864   4.773   6.348  0.1188  0.2339 -0.2658
   27A       N6  850   3.792   4.664   6.323  0.2489 -0.1568  0.3253
   27A      H61  851   3.810   4.600   6.246 -0.7344 -0.0726  0.0141
   27A      H62  852   3.700   4.654   6.363  0.1777  1.8597  0.7972
   27A       N1  853   3.981   4.780   6.283 -0.0028  0.7366  0.2272
   27A       C2  854   4.059   4.888   6.313 -0.7175  0.5778  0.3159
   27A       H2  855   4.157   4.884   6.269 -0.8111 -2.2663  0.1922
   27A       N3  856   4.046   4.973   6.416  0.2989  0.3923 -0.5485
   27A       C4  857   3.922   4.958   6.476  0.4908  0.5097 -0.5292
   27A      C3'  858   3.781   5.314   6.662  0.2157  0.2672  0.3147
   27A      H3'  859   3.703   5.240   6.648  1.1864 -0.5062 -1.3127
   27A      C2'  860   3.897   5.276   6.573 -0.3389 -0.3077  0.5452
   27A      H2'  861   3.869   5.239   6.474  2.0450 -0.4301 -0.1553
   27A      O2'  862   4.008   5.360   6.585 -0.0642 -0.0092 -0.4021
   27A     HO2'  863   4.010   5.403   6.499 -0.1553 -1.2092 -1.0311
   27A      O3'  864   3.726   5.443   6.641  0.1556 -0.4600 -0.2895
   28A        P  865   3.645   5.471   6.517 -0.1627  0.2334 -0.3053
   28A      OP1  866   3.567   5.591   6.546 -0.0828  0.0790  0.6933
   28A      OP2  867   3.568   5.353   6.483  0.1170  0.0866 -0.2034
   28A      O5'  868   3.750   5.506   6.404 -0.2214  0.2947  0.2339
   28A      C5'  869   3.841   5.612   6.423 -0.3981 -0.4035  0.2540
   28A      H5'  870   3.891   5.600   6.520  1.0025  1.8466 -0.1079
   28A     H5''  871   3.786   5.706   6.436  0.6856 -0.0897  3.7906
   28A      C4'  872   3.956   5.621   6.321  0.6628 -0.3790 -0.3400
   28A      H4'  873   4.015   5.710   6.341  1.5771 -0.8713 -0.7704
   28A      O4'  874   4.032   5.502   6.344  0.0544  0.1860  0.4364
   28A      C1'  875   4.109   5.476   6.229  0.0078  0.5173  0.7966
   28A      H1'  876   4.216   5.476   6.248  0.4773 -0.0671 -1.5055
   28A       N9  877   4.068   5.344   6.179  0.2313  0.5163 -0.5415
   28A       C8  878   3.945   5.283   6.193 -1.2924  0.4573 -0.0063
   28A       H8  879   3.861   5.330   6.243 -1.4091  2.7666 -2.1484
   28A       N7  880   3.950   5.158   6.154  0.6161 -0.6451  0.7905
   28A       C5  881   4.079   5.144   6.096 -0.7404  0.1904  0.5621
   28A       C6  882   4.154   5.038   6.033  0.2291  0.9531  0.5077
   28A       N6  883   4.103   4.924   5.988  0.0341  0.0092 -0.0659
   28A      H61  884   4.154   4.856   5.933 -2.2766 -0.4731 -1.7481
   28A      H62  885   4.002   4.927   5.993 -0.2462  0.9463 -3.3813
   28A       N1  886   4.287   5.052   6.013 -0.1462  0.1137  0.4178
   28A       C2  887   4.343   5.166   6.051  0.6230  0.4867 -0.2447
   28A       H2  888   4.449   5.167   6.029  0.2906  1.7767 -2.0291
   28A       N3  889   4.287   5.269   6.105  0.0776 -0.2000 -0.2225
   28A       C4  890   4.156   5.251   6.126 -0.3114  0.4803  0.2471
   28A      C3'  891   3.925   5.625   6.168  0.3592  0.1622 -0.2091
   28A      H3'  892   3.843   5.556   6.154 -0.2946  1.0359 -0.7399
   28A      C2'  893   4.063   5.578   6.121 -0.0815 -0.3421  0.1749
   28A      H2'  894   4.056   5.529   6.023  0.1790 -0.9690  0.4593
   28A      O2'  895   4.159   5.674   6.108  0.4745 -0.0321 -0.4050
   28A     HO2'  896   4.225   5.657   6.041  0.7773 -0.3168 -0.0426
   28A      O3'  897   3.878   5.749   6.114 -0.0062 -0.0159 -0.1673
   29A        P  898   3.815   5.756   5.971  0.2907  0.4949  0.0966
   29A      OP1  899   3.800   5.896   5.935  0.1451 -0.3897  0.0331
   29A      OP2  900   3.693   5.670   5.973 -0.1472 -0.0694  0.3584
   29A      O5'  901   3.909   5.691   5.861  0.2976 -0.7420 -0.2396
   29A      C5'  902   4.003   5.771   5.796  0.3015 -0.3763  0.4018
   29A      H5'  903   4.057   5.823   5.875 -0.0412  0.2842  0.2138
   29A     H5''  904   3.962   5.853   5.737  0.3194 -1.6048 -1.3878
   29A      C4'  905   4.097   5.694   5.705  1.1937  0.0549  0.1971
   29A      H4'  906   4.165   5.764   5.656 -0.6884  0.9029 -1.3675
   29A      O4'  907   4.154   5.590   5.782  0.2976  0.1729 -0.4483
   29A      C1'  908   4.181   5.490   5.688  0.2044 -0.3595 -0.5614
   29A      H1'  909   4.287   5.463   5.689  0.1378 -0.5906  0.6379
   29A       N9  910   4.110   5.371   5.735 -0.0445 -0.1900 -0.3758
   29A       C8  911   3.993   5.364   5.811 -0.6277  0.1244  0.6032
   29A       H8  912   3.944   5.452   5.851  1.0237  1.2932  0.1301
   29A       N7  913   3.944   5.245   5.828  0.9591 -0.0921 -0.3762
   29A       C5  914   4.022   5.171   5.740  0.4895  0.2686  0.6697
   29A       C6  915   4.015   5.046   5.685  0.4306  0.4623 -0.1167
   29A       N6  916   3.917   4.963   5.721  0.5998 -0.0479 -0.4544
   29A      H61  917   3.907   4.877   5.670  0.2250 -0.7504  0.7637
   29A      H62  918   3.847   4.995   5.785  0.6445 -2.5442  0.9794
   29A       N1  919   4.097   5.008   5.584 -0.5991 -0.7635  0.5761
   29A       C2  920   4.190   5.098   5.538  0.1827 -0.2532 -0.7454
   29A       H2  921   4.262   5.067   5.464  2.7732  2.4287  0.4686
   29A       N3  922   4.213   5.219   5.583 -0.4474  0.4449  0.0759
   29A       C4  923   4.120   5.248   5.679 -0.6936 -0.2202 -0.0773
   29A      C3'  924   4.028   5.628   5.585 -0.2991  0.4211 -0.1041
   29A      H3'  925   3.941   5.572   5.617 -0.0883 -0.0270 -0.3085
   29A      C2'  926   4.141   5.537   5.546  0.1403  0.0197 -0.0198
   29A      H2'  927   4.106   5.455   5.482 -3.7851  0.6049  1.1295
   29A      O2'  928   4.251   5.601   5.478  0.4866  0.4230 -0.0749
   29A     HO2'  929   4.199   5.651   5.414 -1.8331 -1.6811 -0.0248
   29A      O3'  930   3.996   5.715   5.478  0.7946  0.0089 -0.2471
   30C        P  931   3.883   5.682   5.381  0.3584  0.5560  0.4038
   30C      OP1  932   3.866   5.799   5.294 -0.0840  0.2733  0.0906
   30C      OP2  933   3.762   5.636   5.459  0.3447 -0.3021 -0.2932
   30C      O5'  934   3.927   5.555   5.294 -0.0041 -0.2169  0.1010
   30C      C5'  935   4.030   5.560   5.194  1.0400 -0.0362  0.0787
   30C      H5'  936   4.118   5.608   5.237  1.0042 -0.7877  1.0147
   30C     H5''  937   4.000   5.620   5.108 -1.3489  0.1530  0.9573
   30C      C4'  938   4.064   5.420   5.154 -0.5728  1.0107 -0.0951
   30C      H4'  939   4.151   5.421   5.087  0.6098 -0.3564  1.3538
   30C      O4'  940   4.092   5.341   5.265  0.2848  0.0038  0.0585
   30C      C1'  941   4.045   5.206   5.237  0.5224 -0.2057 -1.0101
   30C      H1'  942   4.130   5.142   5.259 -0.1183 -0.2028  1.7533
   30C       N1  943   3.935   5.170   5.337 -0.4792 -0.7942  0.7928
   30C       C6  944   3.886   5.257   5.430 -0.0024  0.3534  0.4238
   30C       H6  945   3.923   5.359   5.428  3.5570 -0.7875  1.3374
   30C       C5  946   3.782   5.222   5.509  0.0278  0.8205 -0.7858
   30C       H5  947   3.739   5.288   5.583 -1.0687  0.7700 -1.3552
   30C       C4  948   3.733   5.091   5.496 -0.5057 -0.8076  0.0235
   30C       N4  949   3.635   5.055   5.573  0.3335  0.3328 -0.5980
   30C      H41  950   3.586   4.968   5.557 -1.2269  0.8289  1.1199
   30C      H42  951   3.590   5.111   5.644 -0.4137  0.3454 -1.0720
   30C       N3  952   3.786   5.003   5.414  0.2173 -0.1933 -0.3536
   30C       C2  953   3.895   5.041   5.339 -0.2720 -0.6992 -0.6431
   30C       O2  954   3.940   4.958   5.266  0.1839 -0.6288  0.0276
   30C      C3'  955   3.952   5.345   5.085  0.8311  0.4419  0.7633
   30C      H3'  956   3.857   5.365   5.134 -0.4786  1.0475 -1.8902
   30C      C2'  957   4.002   5.204   5.095 -0.0051  0.0786  0.2022
   30C      H2'  958   3.923   5.130   5.082 -0.9276  1.0868 -0.0684
   30C      O2'  959   4.120   5.172   5.022 -0.4712 -0.1095 -0.1010
   30C     HO2'  960   4.146   5.085   5.054  1.1098 -0.3743 -1.9126
   30C      O3'  961   3.942   5.379   4.955 -0.1370  0.2485  0.0551
   31A        P  962   3.807   5.362   4.870  0.2937  0.3424 -0.1521
   31A      OP1  963   3.822   5.416   4.735 -0.5552  0.0047  0.0567
   31A      OP2  964   3.691   5.403   4.953  0.1344  0.1735 -0.5571
   31A      O5'  965   3.790   5.206   4.853  0.7014 -0.0897 -0.0154
   31A      C5'  966   3.875   5.129   4.768  0.4329  0.6183 -0.2334
   31A      H5'  967   3.976   5.149   4.804  1.0986 -0.8576 -1.2330
   31A     H5''  968   3.858   5.170   4.668  0.4848 -0.3817 -0.6551
   31A      C4'  969   3.858   4.977   4.774 -0.2555 -0.0120  0.1677
   31A      H4'  970   3.932   4.929   4.710  0.3496  0.8010  0.2420
   31A      O4'  971   3.852   4.906   4.895  0.3733 -0.1459 -0.6492
   31A      C1'  972   3.725   4.835   4.917  0.3770 -0.2822  0.0223
   31A      H1'  973   3.743   4.737   4.962  0.4470 -1.0961 -1.7023
   31A       N9  974   3.623   4.906   4.991  1.1998 -0.1885 -0.3829
   31A       C8  975   3.628   5.023   5.063 -0.2078  0.0050  0.6598
   31A       H8  976   3.716   5.084   5.065 -1.2005  1.5630 -0.8675
   31A       N7  977   3.526   5.052   5.142  0.0434  1.2770  0.6493
   31A       C5  978   3.450   4.937   5.118  0.5932 -0.3560  0.1970
   31A       C6  979   3.319   4.898   5.166  0.4302 -1.0819 -0.1208
   31A       N6  980   3.252   4.967   5.256  0.5964 -0.4909 -0.1416
   31A      H61  981   3.163   4.938   5.295 -0.0577  3.1797  1.5544
   31A      H62  982   3.295   5.047   5.302  0.6967 -0.5255 -0.1754
   31A       N1  983   3.258   4.787   5.122 -0.3493 -0.3328  0.0658
   31A       C2  984   3.325   4.712   5.038 -0.3323 -0.2306  0.3659
   31A       H2  985   3.285   4.616   5.006  0.1884  0.5970 -3.1290
   31A       N3  986   3.443   4.733   4.988 -0.3739  0.5429 -0.3253
   31A       C4  987   3.498   4.850   5.024 -0.1814 -0.7004 -0.3816
   31A      C3'  988   3.720   4.950   4.713  0.0786  0.3971 -0.7774
   31A      H3'  989   3.648   5.019   4.758  2.3811  2.7145 -0.3952
   31A      C2'  990   3.690   4.807   4.767  0.6998 -0.4775  0.4202
   31A      H2'  991   3.584   4.784   4.759  0.4039  1.4226 -2.7913
   31A      O2'  992   3.768   4.702   4.715  0.2110  0.7181 -0.0327
   31A     HO2'  993   3.705   4.644   4.672  2.8659 -1.4500 -1.3118
   31A      O3'  994   3.720   4.955   4.574  0.0634  0.2804  0.0318
   32A        P  995   3.582   4.955   4.489  0.1506  0.1277 -0.2947
   32A      OP1  996   3.612   5.029   4.370  0.5033  0.7639 -0.3714
   32A      OP2  997   3.474   4.997   4.577  0.0827  0.2738  0.4299
   32A      O5'  998   3.560   4.802   4.454  0.1058 -0.1962  0.0712
   32A      C5'  999   3.638   4.727   4.364 -0.1593  0.5386  0.0813
   32A      H5' 1000   3.743   4.752   4.379 -0.2864  0.6391  0.8563
   32A     H5'' 1001   3.611   4.741   4.259  0.8883  3.3328  0.0957
   32A      C4' 1002   3.623   4.576   4.398  0.0188  0.6478  0.2882
   32A      H4' 1003   3.709   4.520   4.361 -1.3574 -0.5608 -1.1889
   32A      O4' 1004   3.612   4.545   4.538 -0.2599 -0.4042 -0.3531
   32A      C1' 1005   3.524   4.428   4.548  0.2041  0.4443 -0.5982
   32A      H1' 1006   3.573   4.349   4.604 -0.6098  0.9883  0.9615
   32A       N9 1007   3.402   4.467   4.617  0.9114  0.3879  1.2226
   32A       C8 1008   3.346   4.588   4.638 -0.2846  0.4206  0.1944
   32A       H8 1009   3.404   4.676   4.613  0.4029 -0.5024 -1.6354
   32A       N7 1010   3.230   4.590   4.697  0.0668 -0.1249 -0.1991
   32A       C5 1011   3.209   4.453   4.715  0.7978  0.1713  0.3313
   32A       C6 1012   3.100   4.378   4.775 -0.2057 -0.7396 -0.4254
   32A       N6 1013   2.997   4.421   4.831  0.0337 -0.2822 -0.6472
   32A      H61 1014   2.941   4.356   4.883  1.6637  0.6258  2.4729
   32A      H62 1015   2.981   4.521   4.838 -0.6883 -0.4528  0.3865
   32A       N1 1016   3.103   4.245   4.776  0.6776  0.7495 -0.3608
   32A       C2 1017   3.205   4.184   4.715 -0.1458 -0.1431  0.7070
   32A       H2 1018   3.209   4.076   4.706  2.7379  0.0434 -1.5436
   32A       N3 1019   3.301   4.244   4.640  1.1453  1.0857  0.1949
   32A       C4 1020   3.308   4.380   4.657 -0.4692 -0.1824 -0.2955
   32A      C3' 1021   3.507   4.513   4.326  0.0724 -0.5126 -0.4255
   32A      H3' 1022   3.421   4.577   4.347  0.2186 -0.5536  0.3350
   32A      C2' 1023   3.491   4.381   4.406  0.1557 -0.7480  0.8276
   32A      H2' 1024   3.391   4.338   4.398 -1.2727  2.4826 -0.3958
   32A      O2' 1025   3.586   4.282   4.374  0.2971  0.4843 -0.0423
   32A     HO2' 1026   3.625   4.306   4.289  1.8160 -0.7616  0.2574
   32A      O3' 1027   3.511   4.481   4.186 -0.4070 -0.8373 -0.5002
   33G3       P 1028   3.394   4.514   4.088  0.4702 -0.2569 -0.1215
   33G3     OP1 1029   3.433   4.453   3.959  0.0407 -0.2247  0.3505
   33G3     OP2 1030   3.371   4.662   4.088  0.5797  0.1897 -0.6249
   33G3     O5' 1031   3.259   4.451   4.141 -0.4864  0.0747 -0.6568
   33G3     C5' 1032   3.233   4.315   4.160 -0.6364 -0.2144 -0.3273
   33G3     H5' 1033   3.324   4.264   4.191 -0.2335 -0.3265 -1.6383
   33G3    H5'' 1034   3.201   4.268   4.068  1.2731 -0.3754 -0.9501
   33G3     C4' 1035   3.120   4.289   4.259 -0.5898  0.4468 -0.8904
   33G3     H4' 1036   3.114   4.183   4.283 -2.8071  1.0921  1.8291
   33G3     O4' 1037   3.137   4.357   4.384 -0.5430  0.5515 -0.2507
   33G3     C1' 1038   3.004   4.392   4.425 -0.9347 -0.0873  0.1779
   33G3     H1' 1039   2.984   4.358   4.527 -0.3215  0.5191  0.5077
   33G3      N9 1040   2.986   4.537   4.430  0.2553  0.6904  0.1330
   33G3      C8 1041   3.061   4.638   4.371 -0.2797 -0.0876  0.4498
   33G3      H8 1042   3.144   4.618   4.304  0.4839 -0.7797  1.5723
   33G3      N7 1043   3.024   4.759   4.404 -0.5742  0.2398 -0.3468
   33G3      C5 1044   2.920   4.736   4.497 -0.1149  0.0178 -0.4740
   33G3      C6 1045   2.847   4.826   4.578 -0.2524  0.5919 -0.4815
   33G3      O6 1046   2.862   4.945   4.599  0.7012 -0.7329 -0.2774
   33G3      N1 1047   2.745   4.765   4.656 -0.4055 -0.1817  0.6096
   33G3      H1 1048   2.702   4.831   4.719  1.3551  1.1957  0.4673
   33G3      C2 1049   2.722   4.631   4.656 -0.6466  0.8414 -0.1661
   33G3      N2 1050   2.620   4.594   4.729  0.6444 -0.2766 -0.0327
   33G3     H21 1051   2.554   4.658   4.771 -0.7548 -1.7425  0.1190
   33G3     H22 1052   2.596   4.496   4.738  0.5250 -0.2185  0.3006
   33G3      N3 1053   2.789   4.544   4.583 -0.6114 -0.1753 -0.2651
   33G3      C4 1054   2.890   4.599   4.507 -0.0330 -0.5467 -0.3324
   33G3     C3' 1055   2.984   4.330   4.200 -0.0350  0.1123  0.1414
   33G3     H3' 1056   2.987   4.429   4.154 -0.7387 -1.2339 -3.1247
   33G3     C2' 1057   2.902   4.341   4.323 -0.3227  0.0937 -0.8054
   33G3     H2' 1058   2.828   4.421   4.312 -0.0102  0.6391  0.7794
   33G3     O2' 1059   2.853   4.220   4.377 -0.4468  0.4047  0.5822
   33G3    HO2' 1060   2.796   4.191   4.306  1.8146 -0.1233 -1.1303
   33G3     O3' 1061   2.925   4.235   4.112  0.2669 -0.1642  0.1725
   33G3    HO3' 1062   2.960   4.255   4.025 -0.4125  1.0722  0.1565
   34pq0     N1 1063   3.971   4.520   5.466  0.1254  0.4055 -0.2389
   34pq0     C2 1064   3.967   4.644   5.509 -0.1232 -0.6841 -0.1663
   34pq0     N3 1065   3.882   4.702   5.586  0.8121  0.2074 -0.4509
   34pq0     C4 1066   3.791   4.614   5.637  0.7143  1.1362  0.4229
   34pq0     C5 1067   3.780   4.485   5.595 -0.5394 -0.0094  0.6053
   34pq0     C6 1068   3.871   4.429   5.501 -0.5330 -0.2586  0.5368
   34pq0     O6 1069   3.868   4.314   5.453  0.0172 -0.5438 -0.0719
   34pq0     C7 1070   3.664   4.431   5.658  0.1735 -0.0721  0.5317
   34pq0    C10 1071   3.621   4.296   5.641 -0.8131  0.6722 -0.0193
   34pq0    N11 1072   3.591   4.186   5.643  0.1313  0.0868 -0.2605
   34pq0     C8 1073   3.621   4.522   5.752  0.4812  0.5264  0.1450
   34pq0     N9 1074   3.699   4.635   5.738  0.1927  0.1614 -0.2714
   34pq0     N2 1075   4.055   4.719   5.464 -0.2329 -0.2438 -0.3277
   34pq0     H1 1076   4.047   4.498   5.403  0.7059  0.4781  0.4197
   34pq0     H2 1077   3.537   4.516   5.821  1.5726  0.0253  1.4854
   34pq0     H3 1078   3.690   4.724   5.785  2.1000 -1.2358  3.0532
   34pq0     H4 1079   4.030   4.812   5.495 -0.1547 -0.2610 -0.2140
   34pq0     H5 1080   4.070   4.711   5.364  1.2537  3.5307 -0.5600
   35K+      K+ 1081   3.939   5.055   3.275 -0.0522  0.0284 -0.1966
   36K+      K+ 1082   6.516   6.092   4.082  0.0590  0.0781  0.0210
   37K+      K+ 1083   2.645   4.778   5.862 -0.1074 -0.2155 -0.1555
   38K+      K+ 1084   4.873   1.445   6.852  0.1279  0.3254  0.1532
   39K+      K+ 1085   3.138   3.339   1.838  0.1386  0.2286  0.1849
   40K+      K+ 1086   1.958   1.260   5.305  0.1043 -0.4128  0.1396
   41K+      K+ 1087   5.236   1.360   6.774  0.0055 -0.2282  0.5419
   42K+      K+ 1088   2.691   0.253   6.591 -0.3081 -0.1785  0.2961
   43K+      K+ 1089   3.397   3.203   6.778  0.0416 -0.2386  0.0455
   44K+      K+ 1090   6.217   5.489   4.123  0.3070  0.1568 -0.0105
   45K+      K+ 1091   1.290   0.134   1.684  0.0875 -0.4744  0.0473
   46K+      K+ 1092   4.475   4.351   0.074  0.1741  0.1524 -0.2679
   47K+      K+ 1093   0.115   4.689   3.833  0.2661  0.0924 -0.3156
   48K+      K+ 1094   6.455   2.859   0.383  0.3665 -0.0803 -0.2171
   49K+      K+ 1095   2.787   5.569   1.317  0.0504 -0.3628 -0.0646
   50K+      K+ 1096   3.894   4.023   6.614  0.1377  0.7060 -0.1202
   51K+      K+ 1097   5.236   4.490   6.289  0.1115  0.4810  0.4307
   52K+      K+ 1098   4.907   3.977   6.701  0.3454  0.1669  0.1460
   53K+      K+ 1099   0.346   2.722   5.815  0.0472 -0.0456 -0.2277
   54K+      K+ 1100   4.482   3.495   5.302 -0.1806 -0.3073  0.3008
   55K+      K+ 1101   4.373   3.575   5.683  0.3733 -0.0504  0.0854
   56K+      K+ 1102   3.981   3.770   5.801 -0.3419 -0.2986 -0.2339
   57K+      K+ 1103   1.234   3.963   1.389 -0.2622  0.1353 -0.0847
   58K+      K+ 1104   3.896   2.696   5.264  0.1131  0.6334 -0.1428
   59K+      K+ 1105   5.213   2.944   1.565 -0.0268 -0.3013 -0.1606
   60K+      K+ 1106   4.354   4.098   0.915  0.0852 -0.2567  0.0644
   61K+      K+ 1107   3.277   5.175   4.536  0.1371 -0.7818 -0.3649
   62K+      K+ 1108   0.456   2.273   6.313  0.0872  0.0381  0.1553
   63K+      K+ 1109   1.994   3.864   4.965 -0.0495 -0.3584 -0.0868
   64K+      K+ 1110   4.073   6.409   6.100  0.0862 -0.1281  0.1312
   65K+      K+ 1111   0.403   4.843   2.983 -0.0891 -0.1304 -0.1453
   66K+      K+ 1112   3.851   5.142   3.894 -0.0121 -0.1626  0.0334
   67K+      K+ 1113   3.004   4.318   7.102  0.3979  0.1298 -0.0134
   68K+      K+ 1114   3.752   0.067   3.387  0.1337 -0.1096 -0.1898
   69K+      K+ 1115   2.926   3.922   6.414  0.3861 -0.1688 -0.3559
   70K+      K+ 1116   7.195   0.078   0.893 -0.0740 -0.1274 -0.2520
   71K+      K+ 1117   4.822   3.083   0.628 -0.0722 -0.0891  0.2417
   72K+      K+ 1118   0.698   1.652   0.249  0.4224 -0.1098 -0.0128
   73K+      K+ 1119   2.211   4.963   2.813 -0.2093  0.1079  0.0959
   74K+      K+ 1120   0.001   6.795   6.882 -0.0722  0.2402  0.6360
   75K+      K+ 1121   2.991   4.493   5.954  0.0344 -0.4652  0.1167
   76K+      K+ 1122   3.339   4.010   3.123 -0.1184 -0.0401  0.0432
   77K+      K+ 1123   2.998   4.665   6.981  0.0631  0.0625  0.2085
   78K+      K+ 1124   4.278   5.355   7.026 -0.3526 -0.0400  0.0264
   79K+      K+ 1125   3.600   3.961   5.848 -0.3017  0.0641 -0.0944
   80K+      K+ 1126   1.479   3.056   2.035  0.1170 -0.0267 -0.1273
   81K+      K+ 1127   0.507   6.382   6.622 -0.1846 -0.3776  0.1584
   82K+      K+ 1128   1.382   4.792   1.633 -0.4395  0.0693  0.1752
   83K+      K+ 1129   2.456   5.050   6.182 -0.0542 -0.1279 -0.3503
   84K+      K+ 1130   3.488   5.754   5.830  0.1871  0.1682  0.0770
   85K+      K+ 1131   3.476   5.348   6.240  0.6049  0.2101 -0.5055
   86K+      K+ 1132   0.555   3.961   2.954  0.0690  0.1521  0.3219
   87K+      K+ 1133   4.880   6.457   1.140 -0.4093  0.3250 -0.0936
   88Cl-    Cl- 1134   1.797   6.292   1.858 -0.0297  0.2219  0.1052
   89Cl-    Cl- 1135   3.974   4.838   1.221 -0.1966 -0.1003  0.1021
   90Cl-    Cl- 1136   5.995   6.402   6.335 -0.0386  0.3073 -0.3333
   91Cl-    Cl- 1137   4.639   2.318   5.482  0.4832  0.1648  0.2562
   92Cl-    Cl- 1138   6.514   3.749   7.281 -0.1709 -0.2556  0.3795
   93Cl-    Cl- 1139   5.167   0.684   1.758 -0.4152  0.2570  0.1169
   94Cl-    Cl- 1140   1.966   4.571   2.083 -0.1821  0.0265  0.0402
   95Cl-    Cl- 1141   1.159   1.087   7.338 -0.0981 -0.0776 -0.0320
   96Cl-    Cl- 1142   3.493   3.067   2.506  0.5120 -0.0421 -0.0791
   97Cl-    Cl- 1143   0.254   5.324   7.369  0.2227 -0.0613 -0.2388
   98Cl-    Cl- 1144   1.489   3.284   1.080 -0.2853  0.0681 -0.4010
   99Cl-    Cl- 1145   1.693   2.117   4.673  0.2201 -0.2349  0.2045
  100Cl-    Cl- 1146   7.234   6.120   0.912 -0.0711  0.8252 -0.1423
  101Cl-    Cl- 1147   0.420   5.185   3.431 -0.1372  0.0499 -0.1650
  102Cl-    Cl- 1148   0.568   1.576   4.091 -0.3792  0.3782  0.2194
  103Cl-    Cl- 1149   1.793   3.744   2.357 -0.5614 -0.0979 -0.1988
  104Cl-    Cl- 1150   6.003   5.525   0.292 -0.1530 -0.1721  0.4738
  105Cl-    Cl- 1151   6.711   4.514   3.441  0.1583  0.2189 -0.0940
  106Cl-    Cl- 1152   1.423   6.284   7.045  0.4258  0.0752  0.2881
  107Cl-    Cl- 1153   4.544   4.140   1.405 -0.0749  0.0191  0.0550
  108Cl-    Cl- 1154   6.157   4.491   4.594 -0.1964  0.2331  0.1807
  109WAT      O 1155   1.573   4.947   4.757 -0.2713  0.2988 -0.0180
  109WAT     H1 1156   1.621   4.969   4.688 -0.8747 -2.8227 -1.6304
  109WAT     H2 1157   1.622   4.888   4.799 -1.6692 -1.2837 -0.4679
  109WAT    EPW 1158   1.587   4.941   4.753 -0.5669 -0.3961 -0.3226
  110WAT      O 1159   3.930   5.347   7.202  0.1800 -0.5296 -0.0625
  110WAT     H1 1160   3.954   5.273   7.241  1.6294  0.8718  1.9580
  110WAT     H2 1161   3.845   5.354   7.220  0.0514 -1.6131 -0.1946
  110WAT    EPW 1162   3.921   5.337   7.210  0.3751 -0.4826  0.2165
  111WAT      O 1163   3.042   5.136   4.687 -0.0794  0.4591 -0.7994
  111WAT     H1 1164   3.033   5.105   4.606 -0.1441 -0.5987 -0.3928
  111WAT     H2 1165   3.052   5.065   4.736 -0.8127  1.0444  0.2342
  111WAT    EPW 1166   3.042   5.121   4.682 -0.1973  0.3893 -0.5867
  112WAT      O 1167   2.627   6.000   1.144 -0.6375  0.4969 -0.0913
  112WAT     H1 1168   2.663   6.032   1.217 -0.1914  0.7708 -0.4239
  112WAT     H2 1169   2.694   5.964   1.102 -1.2505 -1.6015  0.6138
  112WAT    EPW 1170   2.642   6.000   1.148 -0.6622  0.2274 -0.0363
  113WAT      O 1171   6.293   0.679   4.307  0.9378  0.4007 -0.7373
  113WAT     H1 1172   6.289   0.617   4.247 -0.7910  0.6458 -0.9286
  113WAT     H2 1173   6.284   0.753   4.262 -3.0066  0.5103 -0.1162
  113WAT    EPW 1174   6.291   0.681   4.292  0.0998  0.4531 -0.6738
  114WAT      O 1175   7.211   5.896   3.399 -0.2413  0.1845 -0.3372
  114WAT     H1 1176   7.195   5.850   3.326  2.8952  0.4580 -1.3147
  114WAT     H2 1177   7.191   5.978   3.377  0.2420  0.1965 -0.7337
  114WAT    EPW 1178   7.205   5.901   3.385  0.2934  0.2267 -0.5402
  115WAT      O 1179   3.636   3.642   0.390 -0.2366  0.0113  0.4587
  115WAT     H1 1180   3.601   3.600   0.322 -0.0460  2.2392 -1.1257
  115WAT     H2 1181   3.721   3.625   0.382 -0.3591 -1.0405  1.1508
  115WAT    EPW 1182   3.643   3.633   0.378 -0.2265  0.1850  0.3269
  116WAT      O 1183   2.504   0.232   7.078  0.4812 -0.4165 -0.2367
  116WAT     H1 1184   2.580   0.188   7.086  1.2350  0.9004  0.1769
  116WAT     H2 1185   2.445   0.176   7.107  1.2771 -1.5286 -0.6722
  116WAT    EPW 1186   2.507   0.217   7.083  0.7101 -0.3862 -0.2399
  117WAT      O 1187   3.086   0.982   4.009  0.2580 -0.7821 -0.4559
  117WAT     H1 1188   3.084   0.907   3.966  0.7941 -0.6637 -0.6942
  117WAT     H2 1189   3.009   1.019   3.990 -0.7448 -2.0028  1.0189
  117WAT    EPW 1190   3.074   0.977   4.000  0.1891 -0.9449 -0.2732
  118WAT      O 1191   4.359   7.131   5.837  0.1323 -0.0610  0.4357
  118WAT     H1 1192   4.375   7.199   5.786  0.5007  0.8778  1.7464
  118WAT     H2 1193   4.427   7.130   5.892 -1.2471  0.2847  2.2512
  118WAT    EPW 1194   4.371   7.141   5.838 -0.0170  0.1288  0.8975
  119WAT      O 1195   1.969   4.751   2.474 -0.1565  0.1334 -0.0162
  119WAT     H1 1196   1.886   4.774   2.492 -0.0143 -0.8027  2.1988
  119WAT     H2 1197   1.963   4.668   2.449  0.0526  0.3101 -0.6745
  119WAT    EPW 1198   1.956   4.742   2.473 -0.1046  0.0212  0.2137
  120WAT      O 1199   3.007   2.461   1.904  0.1280  0.4209 -0.1905
  120WAT     H1 1200   2.927   2.480   1.934 -0.7199 -1.7906 -0.7825
  120WAT     H2 1201   3.043   2.416   1.969  0.2325 -0.0210 -0.5452
  120WAT    EPW 1202   3.000   2.457   1.918  0.0182  0.0290 -0.3304
  121WAT      O 1203   2.367   6.049   1.221  0.0117 -0.4139  0.1311
  121WAT     H1 1204   2.447   6.055   1.188  0.8839 -0.8560  2.0761
  121WAT     H2 1205   2.338   5.972   1.190  0.3312 -0.2715 -0.5391
  121WAT    EPW 1206   2.374   6.039   1.211  0.1877 -0.4581  0.3194
  122WAT      O 1207   3.738   0.928   4.197 -0.1714 -0.3946  0.0814
  122WAT     H1 1208   3.721   0.877   4.265 -1.8503  0.6452  0.5159
  122WAT     H2 1209   3.680   0.902   4.137  1.1386 -1.1545 -0.9244
  122WAT    EPW 1210   3.727   0.917   4.198 -0.2259 -0.3533 -0.0030
  123WAT      O 1211   4.258   4.678   3.188  0.2023  0.0474  0.1784
  123WAT     H1 1212   4.341   4.663   3.166 -0.1061 -0.6951 -0.5300
  123WAT     H2 1213   4.223   4.598   3.193 -0.4417  0.3485  0.5968
  123WAT    EPW 1214   4.265   4.664   3.186  0.0616 -0.0178  0.1356
  124WAT      O 1215   5.433   4.450   3.275  0.5669 -0.4102  0.2428
  124WAT     H1 1216   5.353   4.414   3.268  0.5296 -0.3329  0.2662
  124WAT     H2 1217   5.444   4.456   3.361  0.5427 -0.2979  0.2377
  124WAT    EPW 1218   5.423   4.445   3.287  0.5578 -0.3822  0.2455
  125WAT      O 1219   0.701   4.667   6.049  0.5541  0.1126  0.1633
  125WAT     H1 1220   0.672   4.638   6.126  0.6686 -0.7922 -0.1210
  125WAT     H2 1221   0.788   4.659   6.056  0.5195 -2.1750 -0.8338
  125WAT    EPW 1222   0.710   4.661   6.061  0.5659 -0.3590 -0.0260
  126WAT      O 1223   3.304   3.425   6.694 -0.6698  0.1389 -0.6239
  126WAT     H1 1224   3.276   3.481   6.633 -1.0034 -0.8439 -1.4028
  126WAT     H2 1225   3.304   3.473   6.767  1.1164  1.7815 -1.5871
  126WAT    EPW 1226   3.300   3.440   6.696 -0.4552  0.2364 -0.8812
  127WAT      O 1227   0.258   6.735   4.742  0.6504  0.2794  0.2283
  127WAT     H1 1228   0.253   6.717   4.828 -1.2898 -2.6880 -0.3575
  127WAT     H2 1229   0.272   6.821   4.740  0.4899  0.5093  3.5215
  127WAT    EPW 1230   0.260   6.745   4.755  0.3400 -0.1250  0.6282
  128WAT      O 1231   1.943   3.183   0.388 -0.4262 -0.2909  0.1068
  128WAT     H1 1232   1.911   3.117   0.435 -1.3623 -1.7771 -2.4257
  128WAT     H2 1233   1.873   3.232   0.370  0.2013  1.3007  1.6424
  128WAT    EPW 1234   1.928   3.181   0.392 -0.4718 -0.2753 -0.0404
  129WAT      O 1235   4.773   0.729   4.703 -0.1824  0.3895  0.8132
  129WAT     H1 1236   4.795   0.680   4.772 -0.4223 -0.5228  0.2558
  129WAT     H2 1237   4.704   0.687   4.669  1.2136 -0.4367 -1.2454
  129WAT    EPW 1238   4.766   0.715   4.708 -0.0117  0.1327  0.4268
  130WAT      O 1239   1.124   1.749   1.110  0.0866  0.6980 -0.3509
  130WAT     H1 1240   1.170   1.783   1.044  1.2387  2.4122  1.2097
  130WAT     H2 1241   1.183   1.741   1.174 -1.2987  0.6797  0.9804
  130WAT    EPW 1242   1.139   1.753   1.110  0.0521  0.9485  0.0763
  131WAT      O 1243   0.762   1.642   2.982 -0.0000 -0.5281 -0.6869
  131WAT     H1 1244   0.776   1.725   2.961 -3.3805  0.2352 -0.3635
  131WAT     H2 1245   0.842   1.613   3.003  1.5859  2.0432 -2.5779
  131WAT    EPW 1246   0.776   1.650   2.982 -0.2651 -0.0355 -0.9185
  132WAT      O 1247   4.921   2.401   7.274  0.0919  0.3079 -0.4451
  132WAT     H1 1248   4.884   2.422   7.351  1.8823  1.3815  0.1906
  132WAT     H2 1249   4.858   2.358   7.232 -0.5614 -1.4953  2.1252
  132WAT    EPW 1250   4.906   2.398   7.280  0.2598  0.2001  0.0285
  133WAT      O 1251   1.092   6.446   5.111  0.6199  0.0425 -0.3672
  133WAT     H1 1252   1.172   6.461   5.079  0.9327  1.0760  0.8359
  133WAT     H2 1253   1.101   6.371   5.155  1.0262  0.3489  0.0739
  133WAT    EPW 1254   1.105   6.437   5.112  0.7261  0.2404 -0.1244
  134WAT      O 1255   0.558   6.724   0.112  0.0880  0.1065  0.4540
  134WAT     H1 1256   0.586   6.736   0.193  2.4025  1.5964 -0.4588
  134WAT     H2 1257   0.612   6.773   0.064 -1.0284 -0.8887 -2.0146
  134WAT    EPW 1258   0.570   6.733   0.117  0.2650  0.1796 -0.0455
  135WAT      O 1259   4.675   0.432   2.881  0.6081  0.3951 -0.3430
  135WAT     H1 1260   4.592   0.441   2.904 -0.8789 -2.2539 -3.8624
  135WAT     H2 1261   4.699   0.512   2.855 -1.8286  0.7002 -1.9126
  135WAT    EPW 1262   4.667   0.445   2.881  0.0285  0.0489 -1.0948
  136WAT      O 1263   0.244   6.122   1.075 -0.6237 -0.0320 -0.1283
  136WAT     H1 1264   0.178   6.141   1.021 -0.2959  0.0371 -0.5172
  136WAT     H2 1265   0.206   6.083   1.143 -1.0759  0.1315 -0.2878
  136WAT    EPW 1266   0.229   6.119   1.077 -0.6421  0.0024 -0.2093
  137WAT      O 1267   1.212   5.485   1.602 -0.3346 -0.1933  0.4600
  137WAT     H1 1268   1.242   5.464   1.523 -0.9548  0.5870 -0.0051
  137WAT     H2 1269   1.275   5.535   1.635 -0.2992 -0.0787  0.2275
  137WAT    EPW 1270   1.226   5.490   1.595 -0.4210 -0.0611  0.3570
  138WAT      O 1271   4.328   4.011   0.300 -0.0592 -0.2662  0.1919
  138WAT     H1 1272   4.372   3.985   0.371 -0.6321  0.1094  0.6994
  138WAT     H2 1273   4.261   3.955   0.296 -1.5052  1.2543  1.4995
  138WAT    EPW 1274   4.324   3.999   0.310 -0.3574  0.0139  0.4600
  139WAT      O 1275   1.932   1.756   2.558  0.7883  0.1667 -0.1128
  139WAT     H1 1276   1.939   1.767   2.472 -1.1536  0.3928 -0.3037
  139WAT     H2 1277   1.905   1.674   2.566  0.3771  0.3277  0.2216
  139WAT    EPW 1278   1.929   1.746   2.547  0.4407  0.2239 -0.0916
  140WAT      O 1279   3.148   5.539   6.544 -0.0852 -0.1637  0.2672
  140WAT     H1 1280   3.219   5.552   6.593  0.2787  0.7480 -0.4636
  140WAT     H2 1281   3.129   5.455   6.556  1.1832 -0.4449  0.3960
  140WAT    EPW 1282   3.156   5.528   6.553  0.1559 -0.0706  0.1782
  141WAT      O 1283   1.063   6.307   7.049  0.0584  0.3307  0.4367
  141WAT     H1 1284   1.147   6.299   7.070 -0.1822  0.0672  1.3319
  141WAT     H2 1285   1.023   6.252   7.103 -0.7800  1.1197  0.6318
  141WAT    EPW 1286   1.069   6.297   7.060 -0.1010  0.4083  0.5978
  142WAT      O 1287   2.604   3.852   2.435  0.2085 -0.1238  0.2012
  142WAT     H1 1288   2.552   3.786   2.412  0.1893  0.5944 -2.0418
  142WAT     H2 1289   2.552   3.922   2.431  1.0938  0.4972 -1.2698
  142WAT    EPW 1290   2.589   3.853   2.431  0.3364  0.0740 -0.3474
  143WAT      O 1291   2.824   0.962   4.906 -0.1325 -0.2920  0.3394
  143WAT     H1 1292   2.885   0.936   4.849 -0.2446  0.2943 -0.0482
  143WAT     H2 1293   2.749   0.947   4.864 -0.1950  0.7795  0.0610
  143WAT    EPW 1294   2.822   0.956   4.891 -0.1583 -0.0471  0.2410
  144WAT      O 1295   5.738   3.193   1.948 -0.1996  0.2681 -0.3546
  144WAT     H1 1296   5.693   3.183   1.873  0.3561  1.8069 -0.9373
  144WAT     H2 1297   5.700   3.263   1.984 -0.5706 -0.5557  0.9225
  144WAT    EPW 1298   5.726   3.202   1.942 -0.1723  0.3737 -0.2520
  145WAT      O 1299   5.791   0.448   0.868 -0.0585  0.2133 -0.4127
  145WAT     H1 1300   5.725   0.501   0.847 -0.2241 -0.1575 -0.8474
  145WAT     H2 1301   5.862   0.499   0.860 -0.1630  0.2312 -1.3751
  145WAT    EPW 1302   5.792   0.463   0.864 -0.0984  0.1612 -0.6191
  146WAT      O 1303   2.547   2.578   4.987 -0.2281 -0.4642  0.1643
  146WAT     H1 1304   2.461   2.583   4.977 -0.6922 -1.2232  2.9725
  146WAT     H2 1305   2.564   2.493   4.977  0.3534 -0.2103 -1.1699
  146WAT    EPW 1306   2.537   2.566   4.984 -0.2108 -0.5388  0.3821
  147WAT      O 1307   1.566   6.611   6.374 -0.1455 -0.4535  0.4134
  147WAT     H1 1308   1.519   6.569   6.314  1.3808 -2.2733  0.4164
  147WAT     H2 1309   1.629   6.650   6.328  1.0220 -1.8465  0.7887
  147WAT    EPW 1310   1.568   6.611   6.358  0.2525 -0.9281  0.4692
  148WAT      O 1311   6.861   0.770   5.926  0.2402  0.5150  0.4525
  148WAT     H1 1312   6.922   0.709   5.908 -1.5444 -1.9175  1.9425
  148WAT     H2 1313   6.815   0.775   5.852  0.9249  0.6965  0.0334
  148WAT    EPW 1314   6.863   0.761   5.912  0.0777  0.1825  0.6107
  149WAT      O 1315   3.231   6.480   4.736  0.3834  0.2419 -0.3339
  149WAT     H1 1316   3.224   6.423   4.670 -0.7594  0.4817 -0.4309
  149WAT     H2 1317   3.259   6.431   4.803 -2.1504 -0.8128  0.0465
  149WAT    EPW 1318   3.234   6.465   4.736 -0.1597  0.1215 -0.2920
  150WAT      O 1319   6.253   5.556   5.589 -0.6240  0.0406 -0.0158
  150WAT     H1 1320   6.321   5.506   5.610 -0.2388  0.7076  0.3391
  150WAT     H2 1321   6.185   5.502   5.597  0.0219 -1.4093 -2.8769
  150WAT    EPW 1322   6.253   5.541   5.593 -0.4717 -0.0750 -0.3860
  151WAT      O 1323   5.301   5.730   5.709 -0.1774 -0.2114  0.2256
  151WAT     H1 1324   5.238   5.749   5.652 -0.6408 -3.0247 -0.3214
  151WAT     H2 1325   5.375   5.746   5.665 -0.4413  2.0118  0.4860
  151WAT    EPW 1326   5.303   5.735   5.694 -0.2848 -0.2986  0.1832
  152WAT      O 1327   0.407   4.364   5.810 -0.1596  0.4879  0.0463
  152WAT     H1 1328   0.406   4.369   5.723 -1.0008 -0.9369 -0.0571
  152WAT     H2 1329   0.334   4.405   5.833 -1.8753 -2.1868 -0.1997
  152WAT    EPW 1330   0.396   4.371   5.800 -0.5373 -0.1177 -0.0053
  153WAT      O 1331   1.982   2.312   0.130 -0.6600  0.0280  0.7617
  153WAT     H1 1332   2.014   2.331   0.051 -2.9983  0.4615 -0.1592
  153WAT     H2 1333   2.008   2.230   0.143  0.6396  0.2890  0.0400
  153WAT    EPW 1334   1.990   2.303   0.120 -0.8135  0.1306  0.5190
  154WAT      O 1335   7.187   2.873   3.803 -0.2039  0.5466 -0.5505
  154WAT     H1 1336   7.181   2.872   3.890 -3.1710 -1.1043 -0.6474
  154WAT     H2 1337   7.228   2.798   3.785  1.1045  1.2503 -0.5983
  154WAT    EPW 1338   7.192   2.862   3.813 -0.4489  0.4067 -0.5718
  155WAT      O 1339   1.457   2.343   1.850 -0.2758 -0.3739 -0.3913
  155WAT     H1 1340   1.538   2.313   1.839  0.4248  1.2296 -0.0123
  155WAT     H2 1341   1.430   2.361   1.769 -1.1457 -2.9498 -0.7380
  155WAT    EPW 1342   1.465   2.341   1.837 -0.3008 -0.5175 -0.3865
  156WAT      O 1343   6.392   4.913   3.102  0.1302 -1.0235  0.0539
  156WAT     H1 1344   6.417   4.849   3.048 -1.3444 -0.6856 -1.1029
  156WAT     H2 1345   6.438   4.982   3.076 -1.1351 -0.6624 -1.3671
  156WAT    EPW 1346   6.402   4.914   3.090 -0.2745 -0.9202 -0.3269
  157WAT      O 1347   1.595   3.671   5.227  0.4086 -0.5889 -0.0630
  157WAT     H1 1348   1.514   3.659   5.258  0.6468 -1.1991  0.3537
  157WAT     H2 1349   1.642   3.689   5.299  0.5580  0.2788 -0.3617
  157WAT    EPW 1350   1.590   3.672   5.242  0.4659 -0.5509 -0.0456
  158WAT      O 1351   5.102   2.173   0.335  0.6228 -0.2723 -0.1235
  158WAT     H1 1352   5.103   2.099   0.381  1.1546 -1.5712 -2.1069
  158WAT     H2 1353   5.186   2.188   0.317  0.4046 -0.0189 -0.9981
  158WAT    EPW 1354   5.115   2.165   0.339  0.6691 -0.4267 -0.5457
  159WAT      O 1355   3.637   0.599   6.749  0.5048 -0.7590 -0.0426
  159WAT     H1 1356   3.615   0.635   6.825 -0.9136 -0.6640 -0.4815
  159WAT     H2 1357   3.724   0.601   6.751  0.5051 -0.6677  1.5314
  159WAT    EPW 1358   3.647   0.604   6.761  0.2953 -0.7315  0.1251
  160WAT      O 1359   5.584   3.639   0.548 -0.3457 -0.2127  0.1801
  160WAT     H1 1360   5.508   3.665   0.581 -0.9726  0.1855 -1.4608
  160WAT     H2 1361   5.569   3.637   0.462  0.0887 -4.4283 -0.0189
  160WAT    EPW 1362   5.571   3.642   0.540 -0.3741 -0.7766 -0.0917
  161WAT      O 1363   4.748   1.950   3.529 -0.0048  0.4471 -0.0713
  161WAT     H1 1364   4.797   1.926   3.597  0.1523  1.1555  0.0714
  161WAT     H2 1365   4.800   2.003   3.483  0.3891 -1.0991 -1.5114
  161WAT    EPW 1366   4.763   1.955   3.532  0.0766  0.3233 -0.2629
  162WAT      O 1367   1.806   1.473   2.165  0.0023 -0.0418 -0.3398
  162WAT     H1 1368   1.796   1.555   2.193  1.8647  0.4884 -1.0536
  162WAT     H2 1369   1.798   1.425   2.237 -1.9875  0.6489 -0.0367
  162WAT    EPW 1370   1.803   1.478   2.180 -0.0165  0.1386 -0.4005
  163WAT      O 1371   0.239   5.581   2.079  0.8184  0.5993  0.2667
  163WAT     H1 1372   0.192   5.513   2.106  0.7512  0.4459 -0.2269
  163WAT     H2 1373   0.321   5.556   2.092  0.7944  0.4132  0.0574
  163WAT    EPW 1374   0.244   5.567   2.085  0.8049  0.5491  0.1629
  164WAT      O 1375   1.755   6.112   1.379  0.4357 -0.8354  0.1062
  164WAT     H1 1376   1.712   6.058   1.433 -0.3322 -0.3494 -0.0111
  164WAT     H2 1377   1.695   6.134   1.319  0.8443 -0.1402 -0.0612
  164WAT    EPW 1378   1.740   6.107   1.378  0.3826 -0.6609  0.0642
  165WAT      O 1379   3.044   2.867   4.863  0.3586  0.1816  0.3054
  165WAT     H1 1380   3.043   2.846   4.948  0.4554 -1.5849 -0.0918
  165WAT     H2 1381   2.961   2.888   4.846  0.1100 -0.5484  0.6000
  165WAT    EPW 1382   3.032   2.867   4.873  0.3362 -0.1872  0.2902
  166WAT      O 1383   3.038   2.462   0.884  0.3349  0.1549 -0.0238
  166WAT     H1 1384   3.054   2.541   0.919 -0.7127 -0.1758  1.2964
  166WAT     H2 1385   3.117   2.426   0.879  1.0061  1.7379 -1.8760
  166WAT    EPW 1386   3.052   2.469   0.889  0.2793  0.3399 -0.1024
  167WAT      O 1387   3.114   4.138   0.115  0.0511  0.8976  0.2352
  167WAT     H1 1388   3.131   4.203   0.060 -1.6805  1.4062  0.2484
  167WAT     H2 1389   3.193   4.115   0.146  0.8548  1.7772 -1.1109
  167WAT    EPW 1390   3.128   4.144   0.112 -0.0860  1.1027  0.0383
  168WAT      O 1391   7.110   3.607   7.170  0.1792  0.0393  0.2678
  168WAT     H1 1392   7.167   3.545   7.191 -0.4424 -0.5952  0.1163
  168WAT     H2 1393   7.125   3.622   7.085 -0.8129 -1.1522 -0.1496
  168WAT    EPW 1394   7.121   3.600   7.161 -0.0591 -0.2304  0.1838
  169WAT      O 1395   5.856   2.597   5.549 -0.2252  0.2855  0.2090
  169WAT     H1 1396   5.856   2.681   5.571 -0.7350  0.2215  0.4825
  169WAT     H2 1397   5.927   2.588   5.500 -0.6675  1.0815 -0.6082
  169WAT    EPW 1398   5.866   2.608   5.545 -0.3658  0.3936  0.1287
  170WAT      O 1399   1.119   6.107   6.433 -0.0405 -0.4364 -0.0403
  170WAT     H1 1400   1.132   6.113   6.347 -0.2067  1.3822  0.0296
  170WAT     H2 1401   1.172   6.042   6.457  1.0258 -0.0833 -1.3225
  170WAT    EPW 1402   1.129   6.098   6.424  0.0925 -0.1156 -0.2194
  171WAT      O 1403   1.949   6.894   6.277 -0.1533  0.0003  0.1420
  171WAT     H1 1404   1.965   6.867   6.358 -0.2261  0.5553  0.3414
  171WAT     H2 1405   2.006   6.959   6.264 -0.7078  0.4792  0.0552
  171WAT    EPW 1406   1.960   6.899   6.287 -0.2460  0.1530  0.1586
  172WAT      O 1407   5.728   0.188   2.801 -0.2544  0.3182 -0.1939
  172WAT     H1 1408   5.687   0.143   2.864  0.5232  0.7006  0.6124
  172WAT     H2 1409   5.743   0.266   2.838 -2.3226  1.5983 -1.8284
  172WAT    EPW 1410   5.724   0.193   2.816 -0.4450  0.5638 -0.3162
  173WAT      O 1411   3.379   2.788   3.153 -0.2626  0.7294  0.6954
  173WAT     H1 1412   3.370   2.797   3.067  1.9085  0.0145  0.3494
  173WAT     H2 1413   3.391   2.870   3.181  0.9252  0.8009  0.0360
  173WAT    EPW 1414   3.379   2.802   3.145  0.2336  0.6343  0.5469
  174WAT      O 1415   0.151   6.514   0.231  0.2431 -0.0668 -0.1841
  174WAT     H1 1416   0.163   6.485   0.313 -0.1314 -0.3462 -0.2222
  174WAT     H2 1417   0.143   6.440   0.185 -0.5309  0.0876 -0.3177
  174WAT    EPW 1418   0.151   6.498   0.236  0.0735 -0.0853 -0.2095
  175WAT      O 1419   5.573   2.574   4.340 -0.1491 -0.3374  0.0521
  175WAT     H1 1420   5.619   2.533   4.278  0.4225 -0.4103  0.5203
  175WAT     H2 1421   5.633   2.605   4.394 -0.6208  0.3294  0.2055
  175WAT    EPW 1422   5.588   2.572   4.339 -0.1343 -0.2497  0.1439
  176WAT      O 1423   3.621   0.605   0.350 -0.3345  0.2023  0.4843
  176WAT     H1 1424   3.572   0.543   0.386 -0.4313  0.2039  0.3561
  176WAT     H2 1425   3.683   0.561   0.308  0.5786  0.2212  1.7650
  176WAT    EPW 1426   3.623   0.589   0.349 -0.2139  0.2053  0.6546
  177WAT      O 1427   2.605   2.133   6.642 -0.1341 -0.1418  0.1543
  177WAT     H1 1428   2.618   2.183   6.571 -2.0502 -0.5753 -0.5594
  177WAT     H2 1429   2.684   2.100   6.658  0.8900  1.8794 -0.2717
  177WAT    EPW 1430   2.619   2.136   6.634 -0.2658  0.0928 -0.0140
  178WAT      O 1431   6.112   6.133   3.001  0.2679 -1.0451  0.0207
  178WAT     H1 1432   6.191   6.165   2.985  0.3840 -0.3873  1.6363
  178WAT     H2 1433   6.087   6.176   3.073 -1.9014 -0.6328 -0.8857
  178WAT    EPW 1434   6.120   6.144   3.010 -0.0354 -0.8871  0.1255
  179WAT      O 1435   6.903   2.177   0.057 -0.2714  0.0381  0.2505
  179WAT     H1 1436   6.969   2.228   0.032 -1.2998  1.1170 -0.4056
  179WAT     H2 1437   6.864   2.155  -0.018 -1.2712  0.3182  0.6636
  179WAT    EPW 1438   6.907   2.181   0.043 -0.5710  0.2389  0.2146
  180WAT      O 1439   6.577   1.549   2.677  0.1477  0.6163 -0.4865
  180WAT     H1 1440   6.502   1.506   2.687  0.8330 -0.1638  1.8980
  180WAT     H2 1441   6.552   1.632   2.667 -1.0450  0.2043 -1.0746
  180WAT    EPW 1442   6.562   1.555   2.677  0.0728  0.4402 -0.2211
  181WAT      O 1443   5.491   2.512   1.452 -0.0024 -0.5208 -0.4365
  181WAT     H1 1444   5.432   2.502   1.388 -1.6369  0.7739  0.7797
  181WAT     H2 1445   5.490   2.435   1.492 -2.2802 -0.0300  0.6254
  181WAT    EPW 1446   5.482   2.499   1.448 -0.5803 -0.2571 -0.1000
  182WAT      O 1447   2.356   1.925   5.990  0.3093  0.0445  1.0777
  182WAT     H1 1448   2.413   1.860   5.983 -1.3254 -1.3107 -1.4672
  182WAT     H2 1449   2.406   1.997   5.993  2.3806 -0.7732 -4.0594
  182WAT    EPW 1450   2.372   1.926   5.990  0.3738 -0.2765 -0.0571
  183WAT      O 1451   3.804   6.701   4.467 -0.0942  0.6151 -0.1828
  183WAT     H1 1452   3.788   6.616   4.463 -3.4550  1.0254  0.9703
  183WAT     H2 1453   3.797   6.720   4.552  1.1796  1.9673 -0.3415
  183WAT    EPW 1454   3.801   6.692   4.479 -0.4025  0.8754 -0.0359
  184WAT      O 1455   6.864   2.994   1.590  0.3422  0.3992 -0.1972
  184WAT     H1 1456   6.899   3.053   1.537 -0.1882  0.2224 -0.7510
  184WAT     H2 1457   6.929   2.973   1.644  0.0339  3.0038  1.3750
  184WAT    EPW 1458   6.879   2.999   1.590  0.2183  0.7579 -0.0467
  185WAT      O 1459   6.674   2.683   0.400 -0.0112 -0.3626 -0.4462
  185WAT     H1 1460   6.707   2.710   0.476 -1.5989  1.6269 -0.3721
  185WAT     H2 1461   6.741   2.692   0.345  0.3847  0.9253  0.2049
  185WAT    EPW 1462   6.689   2.689   0.403 -0.1873  0.1215 -0.3390
  186WAT      O 1463   3.417   3.961   2.432  0.0436 -0.3782  0.4153
  186WAT     H1 1464   3.476   4.016   2.400 -0.1123 -0.3699  0.1424
  186WAT     H2 1465   3.345   4.011   2.441 -0.0285 -0.4787  0.3999
  186WAT    EPW 1466   3.415   3.977   2.429  0.0099 -0.3918  0.3727
  187WAT      O 1467   1.849   4.354   3.130 -0.4597  0.6907 -0.4220
  187WAT     H1 1468   1.897   4.282   3.121  0.8919  1.6123 -0.8074
  187WAT     H2 1469   1.840   4.362   3.217  1.0086  1.0606 -0.2710
  187WAT    EPW 1470   1.855   4.345   3.142 -0.0431  0.8814 -0.4566
  188WAT      O 1471   5.015   3.995   1.343 -0.4675  0.3515 -0.3328
  188WAT     H1 1472   4.976   3.976   1.418  0.4949 -0.6970 -0.0675
  188WAT     H2 1473   4.999   3.924   1.294  0.2709  0.3309 -0.5505
  188WAT    EPW 1474   5.007   3.982   1.347 -0.2163  0.1936 -0.3258
  189WAT      O 1475   0.640   5.910   3.275  0.0806 -0.3539  0.0810
  189WAT     H1 1476   0.709   5.945   3.315  0.7095 -2.3959  0.8996
  189WAT     H2 1477   0.674   5.847   3.226 -1.0719 -0.4338 -0.6561
  189WAT    EPW 1478   0.655   5.906   3.274  0.0032 -0.6674  0.0931
  190WAT      O 1479   3.328   0.267   0.662  0.6133 -0.2165 -0.0036
  190WAT     H1 1480   3.335   0.321   0.729  2.0857  0.7397 -0.8589
  190WAT     H2 1481   3.253   0.226   0.676 -1.2833  2.9569  0.0153
  190WAT    EPW 1482   3.318   0.269   0.674  0.5506  0.3935 -0.1271
  191WAT      O 1483   3.007   7.161   7.313 -1.8173 -0.0753  0.0793
  191WAT     H1 1484   2.971   7.082   7.307  0.3997 -1.0619 -1.4555
  191WAT     H2 1485   3.026   7.182   7.230 -0.0166  0.8698  0.6705
  191WAT    EPW 1486   3.004   7.153   7.300 -1.2238 -0.0814 -0.0601
  192WAT      O 1487   2.877   5.885   1.536  0.0296 -0.3498  0.1741
  192WAT     H1 1488   2.815   5.886   1.598  0.6021 -1.3541  0.7999
  192WAT     H2 1489   2.949   5.909   1.580  0.2474 -0.0319 -0.3526
  192WAT    EPW 1490   2.879   5.889   1.552  0.1463 -0.4512  0.1887
  193WAT      O 1491   2.556   0.214   2.794  0.0430 -0.4617 -0.7062
  193WAT     H1 1492   2.569   0.129   2.782 -1.1932 -1.5639  3.7953
  193WAT     H2 1493   2.630   0.240   2.833 -0.9771 -0.5161  1.4031
  193WAT    EPW 1494   2.569   0.205   2.798 -0.2903 -0.6326  0.2704
  194WAT      O 1495   2.772   5.434   1.571 -0.3834  0.5551 -0.2045
  194WAT     H1 1496   2.780   5.488   1.639 -0.5139 -1.5083  1.5508
  194WAT     H2 1497   2.701   5.388   1.589  0.6338 -1.3246 -0.7783
  194WAT    EPW 1498   2.763   5.435   1.583 -0.2524 -0.0274 -0.0299
  195WAT      O 1499   4.480   6.599   6.399  0.3115  0.0527  0.2888
  195WAT     H1 1500   4.478   6.520   6.437  2.7413  0.4274  1.3767
  195WAT     H2 1501   4.531   6.646   6.452  1.1205  1.6004 -1.7446
  195WAT    EPW 1502   4.487   6.594   6.413  0.7899  0.3367  0.1491
  196WAT      O 1503   6.186   6.559   5.988  0.2799 -0.1469 -0.3982
  196WAT     H1 1504   6.224   6.546   5.910  1.0478 -0.3896 -0.0012
  196WAT     H2 1505   6.253   6.584   6.039  0.0802 -1.3898  0.5281
  196WAT    EPW 1506   6.202   6.560   5.984  0.3638 -0.3663 -0.2027
  197WAT      O 1507   2.585   6.133   0.445  0.0945  0.5233 -0.4540
  197WAT     H1 1508   2.655   6.134   0.393  1.2646  0.7983  1.0864
  197WAT     H2 1509   2.527   6.183   0.402  0.8000  0.2485 -1.7676
  197WAT    EPW 1510   2.587   6.140   0.431  0.3716  0.5234 -0.4205
  198WAT      O 1511   1.899   3.443   0.098  0.1128 -0.0462  0.2327
  198WAT     H1 1512   1.909   3.387   0.031  0.2236  2.6363 -2.1962
  198WAT     H2 1513   1.828   3.488   0.077  0.4634  1.2455  1.6445
  198WAT    EPW 1514   1.890   3.442   0.085  0.1810  0.5408  0.0825
  199WAT      O 1515   1.496   2.239   2.358  0.2802 -0.0693 -0.1111
  199WAT     H1 1516   1.443   2.193   2.306 -1.2202  0.0627  1.2193
  199WAT     H2 1517   1.566   2.188   2.365  0.0872 -0.5569 -1.4161
  199WAT    EPW 1518   1.498   2.224   2.351  0.0300 -0.1218 -0.1073
  200WAT      O 1519   0.586   5.750   0.903  0.7365 -0.1640 -0.3627
  200WAT     H1 1520   0.500   5.738   0.893  0.4863  0.9044  0.3985
  200WAT     H2 1521   0.602   5.715   0.981  1.0592 -0.6246 -0.6313
  200WAT    EPW 1522   0.575   5.743   0.913  0.7472 -0.0742 -0.2899
  201WAT      O 1523   0.951   4.386   2.627 -0.3387 -0.0349 -0.1989
  201WAT     H1 1524   0.887   4.358   2.574 -2.1123  0.0744  1.7670
  201WAT     H2 1525   0.979   4.459   2.587  0.6681 -1.6321 -2.6107
  201WAT    EPW 1526   0.945   4.393   2.613 -0.4520 -0.2547 -0.2647
  202WAT      O 1527   4.495   2.245   6.348 -0.2154 -0.1742 -0.0068
  202WAT     H1 1528   4.441   2.312   6.332 -1.0550 -0.9161 -0.3270
  202WAT     H2 1529   4.573   2.283   6.356 -0.8714  1.0255  1.2003
  202WAT    EPW 1530   4.499   2.261   6.347 -0.4363 -0.1066  0.1242
  203WAT      O 1531   4.559   4.993   2.565  0.4590 -0.2606  0.1089
  203WAT     H1 1532   4.587   5.075   2.580  0.9705  0.0629 -2.1589
  203WAT     H2 1533   4.513   4.974   2.636  2.6302  0.9396  1.9765
  203WAT    EPW 1534   4.557   5.003   2.578  0.8553 -0.0355  0.0498
  204WAT      O 1535   5.087   4.592   6.505 -0.1569  0.2347 -0.0454
  204WAT     H1 1536   5.009   4.594   6.544  0.5739 -0.6612  1.5464
  204WAT     H2 1537   5.128   4.662   6.539  0.4620 -0.5197  0.8133
  204WAT    EPW 1538   5.082   4.603   6.516  0.0425 -0.0091  0.3166
  205WAT      O 1539   7.202   5.643   6.071 -0.2812  0.0739  0.0376
  205WAT     H1 1540   7.261   5.629   6.134 -1.3726 -0.4053  0.9933
  205WAT     H2 1541   7.250   5.657   6.000  0.9884  0.3266  0.9186
  205WAT    EPW 1542   7.218   5.643   6.070 -0.2549  0.0404  0.3090
  206WAT      O 1543   5.519   3.097   0.039  0.0719 -0.4298 -0.3762
  206WAT     H1 1544   5.561   3.051  -0.022 -0.9124 -1.0061 -0.6435
  206WAT     H2 1545   5.525   3.179   0.010  1.6634 -0.3745 -0.0010
  206WAT    EPW 1546   5.526   3.102   0.026  0.1616 -0.5068 -0.3602
  207WAT      O 1547   5.882   4.976   3.912 -0.3726  0.1846 -0.4857
  207WAT     H1 1548   5.879   5.025   3.984 -0.6153 -0.7407  0.1555
  207WAT     H2 1549   5.805   4.935   3.911 -0.1209 -0.2986 -0.9027
  207WAT    EPW 1550   5.870   4.977   3.923 -0.3713 -0.0235 -0.4525
  208WAT      O 1551   3.274   1.381   2.345  0.5486  0.0976 -0.2521
  208WAT     H1 1552   3.339   1.353   2.293  0.3810  2.9306 -2.2178
  208WAT     H2 1553   3.315   1.412   2.415  0.9244 -1.8609  0.4711
  208WAT    EPW 1554   3.290   1.381   2.348  0.5794  0.2268 -0.4356
  209WAT      O 1555   0.294   2.891   6.545 -0.2209  0.0044 -0.2245
  209WAT     H1 1556   0.261   2.954   6.493 -0.9819 -0.1301  0.0851
  209WAT     H2 1557   0.238   2.888   6.612  1.5354  1.2218  1.4060
  209WAT    EPW 1558   0.281   2.900   6.547 -0.0739  0.1644  0.0621
  210WAT      O 1559   0.574   6.851   6.597  0.1311 -0.5628 -0.1267
  210WAT     H1 1560   0.656   6.839   6.571  0.4884 -1.2890  1.2311
  210WAT     H2 1561   0.583   6.901   6.668 -0.3510 -2.5447  1.4274
  210WAT    EPW 1562   0.588   6.856   6.604  0.1127 -0.9628  0.3035
  211WAT      O 1563   2.836   1.136   6.273  0.0191 -0.4618  0.3768
  211WAT     H1 1564   2.815   1.199   6.216 -1.3967 -0.0670  1.2792
  211WAT     H2 1565   2.836   1.063   6.224  1.1688  0.1408 -0.5667
  211WAT    EPW 1566   2.833   1.134   6.257 -0.0202 -0.3145  0.3708
  212WAT      O 1567   6.482   0.372   2.021  0.1914  0.1560  0.0287
  212WAT     H1 1568   6.455   0.377   2.104  1.8764  1.0008  0.5618
  212WAT     H2 1569   6.498   0.287   2.010 -0.3334 -0.0031  0.4562
  212WAT    EPW 1570   6.480   0.360   2.031  0.3628  0.2573  0.1706
  213WAT      O 1571   4.556   4.576   2.221  0.2882  0.1049 -0.3651
  213WAT     H1 1572   4.600   4.617   2.284  1.3184  0.0956 -1.0638
  213WAT     H2 1573   4.496   4.635   2.196  0.5013  0.4610 -0.0443
  213WAT    EPW 1574   4.554   4.591   2.227  0.4719  0.1561 -0.4209
  214WAT      O 1575   2.459   1.928   0.672 -0.4088  0.2280 -0.5156
  214WAT     H1 1576   2.418   1.913   0.748  2.4952 -0.7198  1.0322
  214WAT     H2 1577   2.452   2.014   0.661 -1.3841  0.2975  0.5054
  214WAT    EPW 1578   2.452   1.939   0.682 -0.1239  0.0983 -0.1362
  215WAT      O 1579   0.425   0.363   6.276  0.1556  0.5820  0.2078
  215WAT     H1 1580   0.423   0.279   6.300 -1.4284  0.4597 -0.2629
  215WAT     H2 1581   0.493   0.367   6.222  0.4577 -0.3214  0.5050
  215WAT    EPW 1582   0.435   0.351   6.272 -0.0338  0.4305  0.1822
  216WAT      O 1583   4.722   6.646   3.712  0.2670 -0.2928  0.4598
  216WAT     H1 1584   4.786   6.587   3.713 -0.1772 -0.8936 -1.6936
  216WAT     H2 1585   4.763   6.721   3.696  0.5700 -0.4424  0.5415
  216WAT    EPW 1586   4.737   6.648   3.710  0.2462 -0.4036  0.1538
  217WAT      O 1587   3.422   5.334   0.258 -0.1542  0.5812 -0.3365
  217WAT     H1 1588   3.403   5.387   0.324  0.5303  0.7116 -0.2323
  217WAT     H2 1589   3.344   5.304   0.232 -0.4484  0.7113  0.3697
  217WAT    EPW 1590   3.408   5.337   0.264 -0.0965  0.6197 -0.2168
  218WAT      O 1591   3.114   3.343   3.290  0.1219 -0.0994 -0.6081
  218WAT     H1 1592   3.091   3.259   3.293 -1.3702  0.3000  0.0871
  218WAT     H2 1593   3.174   3.346   3.226 -0.3768 -1.5472 -1.1774
  218WAT    EPW 1594   3.120   3.331   3.281 -0.1722 -0.2543 -0.5895
  219WAT      O 1595   6.489   0.741   4.936 -0.5663 -0.3616 -0.3220
  219WAT     H1 1596   6.514   0.720   4.855 -1.2139  0.0327 -0.6319
  219WAT     H2 1597   6.458   0.667   4.969  0.6564 -0.7792 -0.0522
  219WAT    EPW 1598   6.489   0.727   4.929 -0.4814 -0.3650 -0.3279
  220WAT      O 1599   6.743   5.676   6.215  0.0744 -0.2087  0.3712
  220WAT     H1 1600   6.749   5.701   6.298 -1.1976 -0.0078  0.4256
  220WAT     H2 1601   6.664   5.639   6.210  0.5132 -1.0772 -0.5341
  220WAT    EPW 1602   6.732   5.674   6.227 -0.0487 -0.3073  0.2455
  221WAT      O 1603   6.528   3.457   4.690  0.2656  0.2785 -0.2840
  221WAT     H1 1604   6.545   3.487   4.770 -0.5311 -0.1421  0.0544
  221WAT     H2 1605   6.606   3.429   4.662  0.3117 -0.9901  0.9655
  221WAT    EPW 1606   6.542   3.457   4.698  0.1547  0.0290 -0.0494
  222WAT      O 1607   0.101   5.187   5.836 -0.2561 -0.1687  0.4631
  222WAT     H1 1608   0.046   5.183   5.903 -0.6725  0.2546  0.1600
  222WAT     H2 1609   0.166   5.237   5.865 -1.1631  1.3026  0.0802
  222WAT    EPW 1610   0.103   5.194   5.850 -0.4516  0.1112  0.3617
  223WAT      O 1611   0.544   5.315   4.419  0.5678  0.2619  0.8996
  223WAT     H1 1612   0.466   5.326   4.381  1.1423  0.3113 -0.3004
  223WAT     H2 1613   0.545   5.377   4.480 -0.3041  0.3022  0.8914
  223WAT    EPW 1614   0.533   5.326   4.422  0.5238  0.2751  0.7211
  224WAT      O 1615   3.914   2.377   6.921 -0.0882  0.1061 -0.1873
  224WAT     H1 1616   3.914   2.446   6.867 -2.4197  0.5718  0.2857
  224WAT     H2 1617   3.898   2.413   6.999  0.6816 -0.8027  0.4029
  224WAT    EPW 1618   3.912   2.393   6.925 -0.3189  0.0407 -0.0303
  225WAT      O 1619   0.719   4.713   6.816 -0.4683  0.1595 -0.4767
  225WAT     H1 1620   0.632   4.711   6.826 -0.1849 -1.1327  2.5021
  225WAT     H2 1621   0.739   4.630   6.796  0.1598  0.2300 -0.1513
  225WAT    EPW 1622   0.709   4.700   6.814 -0.3337 -0.0210  0.0114
  226WAT      O 1623   0.070   2.914   7.050  0.2798 -0.5019 -0.2558
  226WAT     H1 1624   0.148   2.913   7.089 -0.2709 -0.9335  0.8831
  226WAT     H2 1625   0.017   2.948   7.110 -0.3801  0.0370 -1.1102
  226WAT    EPW 1626   0.073   2.919   7.065  0.1010 -0.4861 -0.2138
  227WAT      O 1627   4.531   0.165   3.191  0.5315  0.4953 -0.1793
  227WAT     H1 1628   4.475   0.228   3.216  1.0378  1.2958 -0.9877
  227WAT     H2 1629   4.499   0.093   3.229 -0.3963  1.1337  0.3014
  227WAT    EPW 1630   4.518   0.164   3.200  0.4693  0.7079 -0.2277
  228WAT      O 1631   0.237   4.930   5.047  0.2395 -0.1446  0.4928
  228WAT     H1 1632   0.186   4.905   5.114 -2.2530  0.3804 -1.0638
  228WAT     H2 1633   0.235   5.017   5.052  0.8780 -0.1161  0.2951
  228WAT    EPW 1634   0.229   4.939   5.058 -0.0344 -0.0629  0.2336
  229WAT      O 1635   6.972   3.857   0.538  0.4272  0.2339  0.3838
  229WAT     H1 1636   6.894   3.817   0.545  0.9547 -1.1127 -0.8944
  229WAT     H2 1637   7.026   3.792   0.515  1.5513  1.5008 -0.6934
  229WAT    EPW 1638   6.968   3.841   0.536  0.6712  0.2221  0.0359
  230WAT      O 1639   2.271   3.447   0.083 -0.0145  0.0533 -0.4477
  230WAT     H1 1640   2.282   3.533   0.076 -1.8716  0.3001 -0.7106
  230WAT     H2 1641   2.280   3.419   0.000  0.9216 -0.0603 -0.3132
  230WAT    EPW 1642   2.274   3.456   0.069 -0.1506  0.0730 -0.4667
  231WAT      O 1643   3.609   2.004   0.455 -0.1356 -0.2864  0.1480
  231WAT     H1 1644   3.567   2.075   0.426  0.7851  0.4614  0.5867
  231WAT     H2 1645   3.585   1.942   0.398 -2.1227 -0.0065  0.5982
  231WAT    EPW 1646   3.599   2.005   0.442 -0.2931 -0.1346  0.2793
  232WAT      O 1647   2.777   3.549   2.322  0.4557 -0.3221 -0.7510
  232WAT     H1 1648   2.756   3.523   2.402 -0.2760 -2.1069 -1.4818
  232WAT     H2 1649   2.862   3.568   2.328 -0.0307  1.7799  0.9396
  232WAT    EPW 1650   2.787   3.548   2.335  0.2758 -0.2753 -0.6092
  233WAT      O 1651   0.185   6.324   6.162 -0.0975  0.1464 -0.7097
  233WAT     H1 1652   0.135   6.354   6.098  1.1348  1.5918 -1.0455
  233WAT     H2 1653   0.233   6.393   6.185  0.9902 -0.9003  0.3103
  233WAT    EPW 1654   0.185   6.338   6.156  0.2452  0.2053 -0.6087
  234WAT      O 1655   0.063   4.825   0.673 -0.2875 -0.2086 -0.3948
  234WAT     H1 1656   0.079   4.825   0.759  0.4631 -1.3258 -0.5186
  234WAT     H2 1657   0.005   4.890   0.664 -2.2423 -1.5538  1.2803
  234WAT    EPW 1658   0.057   4.835   0.685 -0.4654 -0.5723 -0.1657
  235WAT      O 1659   0.545   3.550   4.402 -0.3038 -0.4019 -0.0936
  235WAT     H1 1660   0.611   3.600   4.429 -0.7783  1.6324 -2.3181
  235WAT     H2 1661   0.585   3.479   4.372  1.1846  1.2869 -2.5628
  235WAT    EPW 1662   0.561   3.547   4.401 -0.1540  0.1481 -0.7870
  236WAT      O 1663   5.581   6.895   1.780  0.2069  0.6007  0.2671
  236WAT     H1 1664   5.498   6.892   1.808  0.3753  0.5655  0.7638
  236WAT     H2 1665   5.623   6.937   1.844  0.1456  2.7588 -1.0216
  236WAT    EPW 1666   5.575   6.901   1.794  0.2227  0.9143  0.1501
  237WAT      O 1667   3.339   1.831   5.027 -0.2783  0.3956 -0.4460
  237WAT     H1 1668   3.392   1.764   5.007 -0.5321 -0.0908  0.4590
  237WAT     H2 1669   3.286   1.836   4.958 -1.8192 -1.9373  0.4248
  237WAT    EPW 1670   3.339   1.822   5.014 -0.5434 -0.0208 -0.1837
  238WAT      O 1671   4.164   6.127   3.317  0.5210  0.1576 -0.0879
  238WAT     H1 1672   4.138   6.203   3.283  1.3309  0.5481  0.1338
  238WAT     H2 1673   4.096   6.100   3.364 -0.2012  0.1690 -1.0958
  238WAT    EPW 1674   4.150   6.134   3.319  0.5340  0.2170 -0.2041
  239WAT      O 1675   5.980   1.351   1.397 -0.4041  0.2141  0.1052
  239WAT     H1 1676   5.951   1.355   1.315  1.5977 -1.4734 -0.7957
  239WAT     H2 1677   6.040   1.414   1.400 -0.7158  0.4971  0.3867
  239WAT    EPW 1678   5.985   1.361   1.385 -0.1545  0.0066  0.0137
  240WAT      O 1679   0.153   2.158   1.130  0.2546 -0.0146 -0.4545
  240WAT     H1 1680   0.079   2.190   1.096 -0.6986 -1.1278  0.4686
  240WAT     H2 1681   0.198   2.132   1.061 -1.7081 -2.3972 -0.9559
  240WAT    EPW 1682   0.149   2.159   1.115 -0.1762 -0.5310 -0.3922
  241WAT      O 1683   5.935   0.348   3.408 -0.2703  1.2695  0.5927
  241WAT     H1 1684   5.994   0.284   3.414 -1.1137  0.4734  0.6980
  241WAT     H2 1685   5.972   0.415   3.449 -1.2778 -0.6023  5.2237
  241WAT    EPW 1686   5.949   0.348   3.415 -0.5437  0.8754  1.2924
  242WAT      O 1687   2.903   2.214   1.161 -0.2529 -0.5209 -0.1507
  242WAT     H1 1688   2.905   2.281   1.105 -1.6644 -0.0268  0.3446
  242WAT     H2 1689   2.919   2.144   1.111 -1.1256 -0.0557 -1.1191
  242WAT    EPW 1690   2.906   2.213   1.146 -0.5903 -0.3792 -0.2206
  243WAT      O 1691   1.806   2.582   6.219  0.2102  0.0155 -0.3954
  243WAT     H1 1692   1.823   2.617   6.141 -0.7051 -0.1564 -0.6757
  243WAT     H2 1693   1.801   2.651   6.272 -0.1422  0.2042 -0.6734
  243WAT    EPW 1694   1.808   2.597   6.216  0.0229  0.0180 -0.4778
  244WAT      O 1695   1.619   5.998   5.969  0.3335  0.3863 -0.0909
  244WAT     H1 1696   1.607   6.041   6.044  0.7321 -0.9524  0.7794
  244WAT     H2 1697   1.544   6.010   5.927  0.2214  1.4414  0.3585
  244WAT    EPW 1698   1.606   6.006   5.974  0.3758  0.3444  0.1041
  245WAT      O 1699   4.954   2.172   5.719  0.3166  0.0099  0.4735
  245WAT     H1 1700   4.905   2.104   5.695  1.6975 -0.6427 -0.6330
  245WAT     H2 1701   4.896   2.236   5.730 -1.1083 -1.4338  2.1169
  245WAT    EPW 1702   4.938   2.171   5.717  0.3101 -0.2998  0.5528
  246WAT      O 1703   3.753   1.590   6.559 -0.0155 -0.1888 -0.7387
  246WAT     H1 1704   3.699   1.648   6.523  0.8134  0.9819 -0.2045
  246WAT     H2 1705   3.705   1.518   6.567 -2.3252  1.4199  1.8741
  246WAT    EPW 1706   3.738   1.588   6.555 -0.2342  0.2218 -0.2738
  247WAT      O 1707   0.323   5.061   2.213  0.4724 -0.3769 -0.2324
  247WAT     H1 1708   0.362   4.988   2.184 -1.5286 -0.9080 -1.9278
  247WAT     H2 1709   0.265   5.078   2.150 -0.1273  1.8703  0.8457
  247WAT    EPW 1710   0.320   5.053   2.199  0.0882 -0.1234 -0.3236
  248WAT      O 1711   2.147   2.690   3.520 -0.8924 -0.7106 -0.2848
  248WAT     H1 1712   2.216   2.730   3.555  0.5124 -2.8069 -0.4503
  248WAT     H2 1713   2.151   2.711   3.436 -0.3074 -0.9628 -0.3281
  248WAT    EPW 1714   2.158   2.699   3.513 -0.5984 -1.0575 -0.3156
  249WAT      O 1715   4.775   1.471   1.089  0.3321  0.2207 -0.3108
  249WAT     H1 1716   4.712   1.515   1.048  0.0566  0.0539 -0.0751
  249WAT     H2 1717   4.824   1.439   1.024 -0.7710 -1.0368 -0.5882
  249WAT    EPW 1718   4.773   1.472   1.073  0.1284  0.0103 -0.3170
  250WAT      O 1719   2.382   2.872   3.527  0.0307 -0.4661  0.0217
  250WAT     H1 1720   2.374   2.952   3.493 -0.1768 -1.0438 -1.3225
  250WAT     H2 1721   2.467   2.866   3.545  0.2823 -0.4187 -1.1008
  250WAT    EPW 1722   2.393   2.883   3.525  0.0372 -0.5445 -0.3427
  251WAT      O 1723   7.283   0.966   5.902  0.0665 -0.4071  0.3877
  251WAT     H1 1724   7.199   0.988   5.894 -0.2747 -0.3055  3.2244
  251WAT     H2 1725   7.289   0.890   5.860 -1.3968 -0.3021 -0.0436
  251WAT    EPW 1726   7.272   0.958   5.895 -0.2001 -0.3766  0.7430
  252WAT      O 1727   7.080   2.149   0.400 -0.5164  0.0147 -0.1934
  252WAT     H1 1728   7.074   2.235   0.412  0.0544 -0.0093  0.2993
  252WAT     H2 1729   7.073   2.116   0.481 -0.5244 -0.3925 -0.3545
  252WAT    EPW 1730   7.078   2.157   0.413 -0.4333 -0.0490 -0.1444
  253WAT      O 1731   7.160   2.573   3.533  0.1507 -0.4772 -0.7441
  253WAT     H1 1732   7.084   2.533   3.551  0.9355 -1.1941  1.2714
  253WAT     H2 1733   7.196   2.522   3.472  0.2082 -1.7524  0.2999
  253WAT    EPW 1734   7.154   2.559   3.527  0.2751 -0.7715 -0.2921
  254WAT      O 1735   3.737   0.759   4.424 -0.2036 -0.1095 -0.4246
  254WAT     H1 1736   3.820   0.786   4.427  0.0196 -0.6518 -1.3254
  254WAT     H2 1737   3.698   0.807   4.486  1.0833 -0.9978  1.1564
  254WAT    EPW 1738   3.743   0.770   4.434  0.0195 -0.3208 -0.3241
  255WAT      O 1739   0.858   3.012   6.979  0.1250 -0.0417 -0.5506
  255WAT     H1 1740   0.889   2.965   7.046 -1.7233 -1.8562 -0.8560
  255WAT     H2 1741   0.917   3.000   6.916  1.0949  0.4010  0.2470
  255WAT    EPW 1742   0.871   3.004   6.980 -0.0047 -0.2444 -0.4779
  256WAT      O 1743   4.785   5.187   2.781  0.3803 -0.2163 -0.7206
  256WAT     H1 1744   4.793   5.207   2.696  2.8009  0.9367 -0.3168
  256WAT     H2 1745   4.793   5.265   2.821  1.3149 -0.9512  0.6178
  256WAT    EPW 1746   4.787   5.202   2.774  0.8760 -0.1546 -0.4632
  257WAT      O 1747   4.866   4.021   1.005 -0.1279  0.0970  0.3903
  257WAT     H1 1748   4.834   4.088   1.052  0.5092  0.3897  0.4154
  257WAT     H2 1749   4.862   3.954   1.061  1.0581  0.5377  1.0627
  257WAT    EPW 1750   4.861   4.021   1.020  0.1414  0.2053  0.4934
  258WAT      O 1751   0.393   2.610   6.492  0.2046  0.2142  0.1939
  258WAT     H1 1752   0.346   2.594   6.563  0.7655 -1.3363  0.2640
  258WAT     H2 1753   0.387   2.697   6.481  0.0273  0.4642  2.0527
  258WAT    EPW 1754   0.385   2.621   6.501  0.2613  0.0221  0.4789
  259WAT      O 1755   4.682   6.707   7.145  0.3891  0.7506 -0.3761
  259WAT     H1 1756   4.739   6.641   7.152  2.5197  2.3558 -1.3259
  259WAT     H2 1757   4.691   6.751   7.220  0.4699  1.0384 -0.5498
  259WAT    EPW 1758   4.692   6.704   7.157  0.7158  1.0302 -0.5421
  260WAT      O 1759   6.087   5.230   7.371  0.4509  0.2769 -0.2505
  260WAT     H1 1760   6.009   5.192   7.363  0.6290 -0.9275  2.6228
  260WAT     H2 1761   6.125   5.214   7.294 -0.7999 -2.3405 -0.4449
  260WAT    EPW 1762   6.081   5.222   7.358  0.2924 -0.2877  0.1453
  261WAT      O 1763   0.597   2.495   3.702  0.0880 -0.5506 -0.0294
  261WAT     H1 1764   0.667   2.443   3.711  0.1383 -0.4300  0.2688
  261WAT     H2 1765   0.632   2.574   3.690  0.0020 -0.4803  0.1799
  261WAT    EPW 1766   0.613   2.499   3.701  0.0827 -0.5224  0.0456
  262WAT      O 1767   7.120   1.881   7.219  0.2356 -0.3169 -0.2505
  262WAT     H1 1768   7.060   1.875   7.282  0.6022  1.0481  0.2735
  262WAT     H2 1769   7.195   1.865   7.261  0.4653  0.4102 -0.3665
  262WAT    EPW 1770   7.122   1.877   7.235  0.3237 -0.0078 -0.1902
  263WAT      O 1771   6.888   5.891   2.508  0.7489 -0.0995 -0.0517
  263WAT     H1 1772   6.847   5.821   2.478  0.0388  0.3037 -0.0496
  263WAT     H2 1773   6.884   5.947   2.441  2.1183 -0.3645 -0.3914
  263WAT    EPW 1774   6.881   5.889   2.494  0.8463 -0.0791 -0.1015
  264WAT      O 1775   5.190   0.437   6.993 -0.1657 -0.3047  0.0816
  264WAT     H1 1776   5.269   0.409   7.014 -0.6726 -0.6469  1.6373
  264WAT     H2 1777   5.180   0.509   7.042 -0.9340 -0.4476  0.1464
  264WAT    EPW 1778   5.200   0.444   7.003 -0.3541 -0.3764  0.3210
  265WAT      O 1779   2.271   6.347   5.575  0.0291 -0.1949  0.3425
  265WAT     H1 1780   2.250   6.267   5.549  0.6116 -0.2219 -0.0456
  265WAT     H2 1781   2.328   6.375   5.515 -0.3831  0.6179  0.3098
  265WAT    EPW 1782   2.276   6.340   5.562  0.0542 -0.0788  0.2803
  266WAT      O 1783   3.467   3.171   5.902  0.2509  0.1012  0.0174
  266WAT     H1 1784   3.491   3.194   5.821 -3.7567  1.3260 -1.0467
  266WAT     H2 1785   3.512   3.226   5.953  1.1462  0.8700 -1.5086
  266WAT    EPW 1786   3.478   3.183   5.898 -0.2089  0.3957 -0.3652
  267WAT      O 1787   0.299   3.618   0.406  0.1064 -0.3806  0.0379
  267WAT     H1 1788   0.351   3.631   0.337 -1.0061 -0.4728 -0.8442
  267WAT     H2 1789   0.333   3.547   0.445  2.0544  0.9374  0.8885
  267WAT    EPW 1790   0.312   3.609   0.402  0.2298 -0.1995  0.0332
  268WAT      O 1791   4.888   4.521   1.923  0.3628  0.2598 -0.8039
  268WAT     H1 1792   4.908   4.554   1.845  2.0857 -1.9784 -1.4058
  268WAT     H2 1793   4.813   4.479   1.908 -1.6855  3.2868 -0.1016
  268WAT    EPW 1794   4.880   4.520   1.909  0.3148  0.3763 -0.7891
  269WAT      O 1795   5.257   3.740   7.020  0.4618  0.1298  0.2406
  269WAT     H1 1796   5.274   3.799   7.082 -0.9953 -0.6144  1.4126
  269WAT     H2 1797   5.310   3.673   7.041  0.6077  0.2181  0.1539
  269WAT    EPW 1798   5.267   3.739   7.032  0.2681  0.0329  0.4009
  270WAT      O 1799   5.111   4.243   1.153 -0.2534 -0.6833 -0.1077
  270WAT     H1 1800   5.091   4.166   1.188 -0.9971  0.0140  1.0926
  270WAT     H2 1801   5.073   4.300   1.207  2.1703  0.6239  0.3751
  270WAT    EPW 1802   5.102   4.240   1.166 -0.0053 -0.3872  0.1409
  271WAT      O 1803   4.446   0.055   4.998 -0.0007  0.0714  0.0848
  271WAT     H1 1804   4.410   0.087   4.925  0.3142  1.3598  0.4648
  271WAT     H2 1805   4.386  -0.000   5.028 -0.9385  0.9075 -0.1919
  271WAT    EPW 1806   4.432   0.052   4.992 -0.0927  0.3852  0.1001
  272WAT      O 1807   6.528   6.741   0.634  0.5468 -0.1219  0.1943
  272WAT     H1 1808   6.613   6.720   0.631  0.4618 -0.6972  1.1452
  272WAT     H2 1809   6.490   6.664   0.650  0.2175  0.6377  3.9663
  272WAT    EPW 1810   6.535   6.726   0.636  0.4856 -0.0947  0.8920
  273WAT      O 1811   1.862   2.729   0.028 -0.0214 -0.2300  0.4647
  273WAT     H1 1812   1.888   2.765   0.103 -3.6642  0.2596  1.6792
  273WAT     H2 1813   1.905   2.775  -0.032  3.7191 -1.1925  2.0862
  273WAT    EPW 1814   1.872   2.741   0.030 -0.0070 -0.2999  0.8836
  274WAT      O 1815   5.680   3.498   2.826 -0.2743 -0.0163 -0.3882
  274WAT     H1 1816   5.738   3.549   2.866 -0.2180  0.7154 -1.3702
  274WAT     H2 1817   5.726   3.425   2.809  0.1927  0.3318 -0.6420
  274WAT    EPW 1818   5.695   3.494   2.829 -0.1970  0.1432 -0.5708
  275WAT      O 1819   3.590   1.463   6.980  0.3941  0.0586  0.4012
  275WAT     H1 1820   3.667   1.480   6.944  0.0693 -1.4211 -1.1083
  275WAT     H2 1821   3.610   1.439   7.062  1.5282 -0.2026  0.0671
  275WAT    EPW 1822   3.604   1.462   6.987  0.5137 -0.1986  0.1289
  276WAT      O 1823   4.957   6.470   6.857 -0.3481  0.1155  0.4196
  276WAT     H1 1824   4.999   6.508   6.923 -0.7778 -2.2991  2.2437
  276WAT     H2 1825   5.020   6.443   6.804  0.0236  1.8436 -0.0499
  276WAT    EPW 1826   4.972   6.471   6.859 -0.3567  0.0141  0.6197
  277WAT      O 1827   4.243   5.021   0.964 -0.2220  0.2249 -0.0040
  277WAT     H1 1828   4.231   4.992   0.883  2.7864  3.1840 -1.7770
  277WAT     H2 1829   4.173   5.071   0.978 -0.5480  0.0845 -1.0347
  277WAT    EPW 1830   4.231   5.024   0.954  0.1743  0.6413 -0.4181
  278WAT      O 1831   2.516   5.623   1.549  0.0535 -0.5385 -1.0499
  278WAT     H1 1832   2.508   5.569   1.481 -1.6923 -0.5996 -0.8427
  278WAT     H2 1833   2.476   5.695   1.523 -0.7134 -0.5858 -0.0749
  278WAT    EPW 1834   2.509   5.626   1.535 -0.3177 -0.5545 -0.8753
  279WAT      O 1835   6.717   1.625   0.509 -0.2636 -0.3118  0.7001
  279WAT     H1 1836   6.685   1.706   0.503  0.1194  0.0669  2.8070
  279WAT     H2 1837   6.800   1.637   0.534 -0.0930 -1.3382  0.6878
  279WAT    EPW 1838   6.724   1.639   0.512 -0.1818 -0.4074  1.0095
  280WAT      O 1839   0.738   2.870   1.892  0.2753  0.0931  0.2554
  280WAT     H1 1840   0.824   2.865   1.907  0.1795 -0.7723  0.5532
  280WAT     H2 1841   0.709   2.921   1.957  0.5741  0.4983  0.0767
  280WAT    EPW 1842   0.747   2.877   1.904  0.3053  0.0251  0.2730
  281WAT      O 1843   0.159   6.598   2.706  0.0854  0.3251  0.2004
  281WAT     H1 1844   0.147   6.512   2.698 -1.5838  0.6622 -1.4961
  281WAT     H2 1845   0.227   6.604   2.760  1.7653 -2.0909 -1.4529
  281WAT    EPW 1846   0.167   6.586   2.713  0.0870  0.0180 -0.2944
  282WAT      O 1847   2.071   4.419   5.740  0.6198 -0.1100  0.5440
  282WAT     H1 1848   2.115   4.438   5.667 -2.0756  0.9147 -0.9208
  282WAT     H2 1849   2.026   4.348   5.719 -0.9980  0.8016  0.7782
  282WAT    EPW 1850   2.071   4.411   5.726 -0.0173  0.1761  0.3622
  283WAT      O 1851   0.794   2.517   5.046 -0.2313 -0.4123 -0.4105
  283WAT     H1 1852   0.847   2.450   5.062 -0.3658 -0.2005  1.0640
  283WAT     H2 1853   0.715   2.481   5.047 -0.1978 -0.6385 -2.1144
  283WAT    EPW 1854   0.790   2.502   5.048 -0.2462 -0.4145 -0.4444
  284WAT      O 1855   2.849   6.914   2.095 -0.1665 -0.4205  0.2554
  284WAT     H1 1856   2.934   6.901   2.085 -0.2293 -0.9947  0.4128
  284WAT     H2 1857   2.839   6.999   2.082  0.4483 -0.3314  0.3589
  284WAT    EPW 1858   2.860   6.924   2.091 -0.0849 -0.4922  0.2940
  285WAT      O 1859   6.036   5.974   0.808 -0.2924  0.0817  0.5422
  285WAT     H1 1860   6.091   5.907   0.797 -0.5547 -0.0825  0.2111
  285WAT     H2 1861   6.083   6.044   0.786  0.5730  0.2265  2.6087
  285WAT    EPW 1862   6.051   5.974   0.803 -0.2033  0.0789  0.7986
  286WAT      O 1863   5.834   4.184   2.262  0.2073  0.2503  0.0508
  286WAT     H1 1864   5.912   4.215   2.238  0.6591  1.1293  2.3345
  286WAT     H2 1865   5.854   4.106   2.297 -0.0334  0.1876  0.0467
  286WAT    EPW 1866   5.849   4.177   2.264  0.2385  0.3709  0.3876
  287WAT      O 1867   6.694   4.121   2.628 -0.6580  0.2273 -0.3974
  287WAT     H1 1868   6.716   4.076   2.557 -0.3825  1.3664 -1.0562
  287WAT     H2 1869   6.651   4.190   2.596 -0.2289  0.9338  0.5139
  287WAT    EPW 1870   6.691   4.125   2.613 -0.5539  0.4999 -0.3601
  288WAT      O 1871   6.200   1.630   5.177  0.5495  0.2570  0.6677
  288WAT     H1 1872   6.206   1.569   5.240  0.3057 -0.0720  0.3757
  288WAT     H2 1873   6.261   1.688   5.199 -0.7309  1.0824  2.2434
  288WAT    EPW 1874   6.210   1.629   5.190  0.3243  0.3304  0.8573
  289WAT      O 1875   4.773   3.808   1.910  0.1550  0.2207 -0.5104
  289WAT     H1 1876   4.728   3.767   1.973 -1.0731  1.4986 -0.5151
  289WAT     H2 1877   4.850   3.825   1.948 -0.3160  0.3427  0.4203
  289WAT    EPW 1878   4.778   3.805   1.925 -0.0960  0.4275 -0.3736
  290WAT      O 1879   5.076   2.650   0.871 -0.1039  0.1997  0.8790
  290WAT     H1 1880   5.030   2.710   0.914  1.6477  1.7402  0.7200
  290WAT     H2 1881   5.021   2.621   0.810 -1.1322  1.3156  1.2441
  290WAT    EPW 1882   5.061   2.654   0.868  0.0029  0.5921  0.9095
  291WAT      O 1883   3.653   1.904   0.028 -0.0471 -0.0870 -0.1529
  291WAT     H1 1884   3.638   1.852  -0.040  1.0552 -1.0202  0.2765
  291WAT     H2 1885   3.725   1.948   0.005  1.4525 -1.7133  1.0346
  291WAT    EPW 1886   3.662   1.903   0.015  0.3373 -0.4651  0.0859
  292WAT      O 1887   5.396   6.411   4.763 -0.7049  0.1570  0.1143
  292WAT     H1 1888   5.466   6.460   4.745 -0.9297  0.6939  0.6691
  292WAT     H2 1889   5.402   6.346   4.705  0.0468  0.3949 -0.0951
  292WAT    EPW 1890   5.408   6.409   4.752 -0.6270  0.2715  0.1653
  293WAT      O 1891   0.631   1.131   3.282 -0.0173  0.4960  0.1641
  293WAT     H1 1892   0.663   1.108   3.360 -1.0600  0.3245  0.5622
  293WAT     H2 1893   0.641   1.059   3.234 -1.3533 -0.1464  0.7938
  293WAT    EPW 1894   0.637   1.117   3.287 -0.3687  0.3758  0.3160
  294WAT      O 1895   6.723   3.382   1.993 -0.0377 -0.0694 -0.5229
  294WAT     H1 1896   6.652   3.332   1.988  0.2705 -0.5754  0.1103
  294WAT     H2 1897   6.755   3.380   1.912 -0.9554  0.4836 -0.9116
  294WAT    EPW 1898   6.718   3.374   1.980 -0.1277 -0.0625 -0.4868
  295WAT      O 1899   2.214   0.619   4.620 -0.1800 -0.2552  0.7697
  295WAT     H1 1900   2.237   0.676   4.558  0.3691  0.9894  2.0645
  295WAT     H2 1901   2.178   0.669   4.681 -1.1350 -1.5150  1.2777
  295WAT    EPW 1902   2.213   0.635   4.620 -0.2399 -0.2574  1.0360
  296WAT      O 1903   1.751   2.015   6.335  0.5193 -0.5082  0.2646
  296WAT     H1 1904   1.810   1.951   6.340 -0.4275 -1.4044  0.6118
  296WAT     H2 1905   1.680   1.980   6.373 -0.6700  0.0025 -1.3431
  296WAT    EPW 1906   1.749   2.000   6.342  0.2037 -0.5651  0.0784
  297WAT      O 1907   3.793   2.204   2.214 -0.1535 -0.5367  0.1452
  297WAT     H1 1908   3.738   2.155   2.261 -0.9341  1.7804  1.8873
  297WAT     H2 1909   3.857   2.149   2.192 -1.0375 -2.3527  1.7877
  297WAT    EPW 1910   3.794   2.189   2.218 -0.3994 -0.4627  0.6452
  298WAT      O 1911   4.118   1.658   0.679 -0.7343 -0.5717 -0.4717
  298WAT     H1 1912   4.190   1.651   0.630  0.1119 -2.3088  0.8798
  298WAT     H2 1913   4.104   1.576   0.706 -1.4091  0.2138  1.7931
  298WAT    EPW 1914   4.127   1.645   0.676 -0.7090 -0.7122  0.0625
  299WAT      O 1915   1.942   2.858   0.271  0.7720 -0.1298 -0.3195
  299WAT     H1 1916   1.949   2.830   0.353  0.9692 -0.6662 -0.5175
  299WAT     H2 1917   2.021   2.892   0.254  0.2345  1.5493  0.2671
  299WAT    EPW 1918   1.955   2.859   0.281  0.7217  0.0390 -0.2621
  300WAT      O 1919   1.764   6.383   0.925  0.0078 -0.2529  0.9180
  300WAT     H1 1920   1.750   6.435   0.993 -2.3295 -0.7089  0.8741
  300WAT     H2 1921   1.783   6.306   0.961 -2.2564 -0.7620  1.1653
  300WAT    EPW 1922   1.764   6.379   0.940 -0.6720 -0.3955  0.9481
  301WAT      O 1923   2.904   4.843   2.128 -0.3962 -0.1497  0.0117
  301WAT     H1 1924   2.914   4.892   2.057  1.6890  3.7062  2.5803
  301WAT     H2 1925   2.835   4.879   2.168 -0.0269 -0.5852  1.0739
  301WAT    EPW 1926   2.896   4.855   2.124 -0.0336  0.3556  0.5480
  302WAT      O 1927   3.947   5.958   6.959 -0.3187  0.2580 -0.2766
  302WAT     H1 1928   3.956   5.904   6.891 -1.6736  0.6008 -0.7608
  302WAT     H2 1929   3.942   5.904   7.027  3.6772 -0.0681  0.0343
  302WAT    EPW 1930   3.948   5.942   6.959  0.0714  0.2604 -0.3022
  303WAT      O 1931   6.486   3.594   3.546  0.2043  0.8108 -0.0634
  303WAT     H1 1932   6.553   3.629   3.502 -1.0017  0.1067 -2.6836
  303WAT     H2 1933   6.489   3.509   3.525 -1.0743  0.6391  0.3337
  303WAT    EPW 1934   6.496   3.586   3.536 -0.1627  0.6815 -0.3918
  304WAT      O 1935   4.087   1.870   6.808  0.8016 -0.2520  0.1173
  304WAT     H1 1936   4.104   1.955   6.813  1.9522 -0.5337  2.0878
  304WAT     H2 1937   4.130   1.845   6.736  1.3224  0.6489  0.0980
  304WAT    EPW 1938   4.096   1.879   6.798  1.0485 -0.1605  0.4055
  305WAT      O 1939   5.500   1.963   2.316  0.6515  0.5414  0.4702
  305WAT     H1 1940   5.460   1.908   2.371  0.4866  1.1583  0.9816
  305WAT     H2 1941   5.513   1.915   2.244  0.8866 -0.2964  1.0517
  305WAT    EPW 1942   5.496   1.947   2.314  0.6619  0.5088  0.6317
  306WAT      O 1943   0.227   5.360   1.598  0.0300  0.0110  0.2483
  306WAT     H1 1944   0.180   5.433   1.588 -0.1232  0.1225  1.5735
  306WAT     H2 1945   0.266   5.350   1.521  2.5584  3.2590  0.8709
  306WAT    EPW 1946   0.225   5.369   1.585  0.3809  0.5073  0.5360
  307WAT      O 1947   6.600   2.299   4.273 -0.3130  0.0945  0.1855
  307WAT     H1 1948   6.520   2.331   4.287  0.8985  2.9934  1.3143
  307WAT     H2 1949   6.596   2.272   4.190 -2.7314 -0.9300  0.5360
  307WAT    EPW 1950   6.587   2.300   4.263 -0.4913  0.3714  0.4040
  308WAT      O 1951   0.101   3.414   2.334 -0.2670  0.3128 -0.1705
  308WAT     H1 1952   0.171   3.449   2.296 -0.1959 -0.2324 -0.5667
  308WAT     H2 1953   0.080   3.348   2.281  0.7013 -1.3905  1.4505
  308WAT    EPW 1954   0.108   3.409   2.321 -0.1135 -0.0193  0.0104
  309WAT      O 1955   1.671   7.042   5.538 -0.1248 -1.1804  0.2851
  309WAT     H1 1956   1.699   6.984   5.479  1.1656 -0.9825  0.6547
  309WAT     H2 1957   1.655   7.114   5.491 -1.3575 -1.7078 -0.1200
  309WAT    EPW 1958   1.673   7.044   5.523 -0.1163 -1.2290  0.2798
  310WAT      O 1959   6.552   5.192   2.323  0.3062  0.0389  0.1118
  310WAT     H1 1960   6.592   5.240   2.262 -1.2177  0.7091 -0.4094
  310WAT     H2 1961   6.597   5.117   2.322  1.4279  0.6803 -0.5539
  310WAT    EPW 1962   6.564   5.188   2.313  0.2468  0.2327 -0.0636
  311WAT      O 1963   5.908   6.629   0.641 -0.0673 -0.2977 -0.3712
  311WAT     H1 1964   5.973   6.679   0.672 -1.9725  1.2613  1.3468
  311WAT     H2 1965   5.913   6.642   0.555  1.1874  0.6772 -0.1877
  311WAT    EPW 1966   5.918   6.639   0.633 -0.1634  0.0766 -0.0903
  312WAT      O 1967   3.150   3.229   0.645 -0.8225 -0.0182 -0.0978
  312WAT     H1 1968   3.201   3.243   0.715 -1.5649  1.6223  0.1609
  312WAT     H2 1969   3.110   3.154   0.664 -0.0859 -0.2283  0.6766
  312WAT    EPW 1970   3.151   3.220   0.658 -0.8234  0.1931  0.0548
  313WAT      O 1971   5.948   2.958   5.339  0.3166  0.0599 -0.5817
  313WAT     H1 1972   6.001   2.894   5.312  0.6230 -0.0466  0.2425
  313WAT     H2 1973   5.877   2.947   5.290  1.1445  0.3932 -1.9427
  313WAT    EPW 1974   5.946   2.947   5.328  0.4842  0.0934 -0.6610
  314WAT      O 1975   0.814   6.343   2.681  0.7978 -0.1954 -0.1902
  314WAT     H1 1976   0.805   6.361   2.765  0.1398 -1.1806 -0.0259
  314WAT     H2 1977   0.884   6.389   2.657  1.6735 -0.7576  1.1645
  314WAT    EPW 1978   0.823   6.352   2.690  0.8300 -0.4240  0.0342
  315WAT      O 1979   6.432   3.147   3.753  0.1513  0.0247 -0.9039
  315WAT     H1 1980   6.387   3.159   3.827  1.9552 -0.3384  0.3019
  315WAT     H2 1981   6.504   3.195   3.765  1.4311 -1.6445 -1.5366
  315WAT    EPW 1982   6.436   3.156   3.766  0.6068 -0.2755 -0.8193
  316WAT      O 1983   6.536   0.168   3.785  0.0713  0.1526 -0.5203
  316WAT     H1 1984   6.453   0.182   3.762  0.0443 -1.9100 -1.8417
  316WAT     H2 1985   6.537   0.187   3.871 -1.7962  0.0139 -0.4427
  316WAT    EPW 1986   6.524   0.173   3.795 -0.2086 -0.1726 -0.7040
  317WAT      O 1987   6.059   1.471   3.258  0.5111  0.0860  0.0763
  317WAT     H1 1988   5.972   1.467   3.246  0.3399  0.6056  1.0153
  317WAT     H2 1989   6.091   1.468   3.177 -0.3317 -1.2276 -0.2339
  317WAT    EPW 1990   6.051   1.470   3.244  0.3613 -0.0313  0.1692
  318WAT      O 1991   7.202   2.066   3.652 -0.4221  0.2555 -0.3834
  318WAT     H1 1992   7.164   1.991   3.675  0.0149 -0.1241 -0.8748
  318WAT     H2 1993   7.237   2.095   3.727  2.1513 -1.6326 -0.6986
  318WAT    EPW 1994   7.202   2.059   3.666  0.0226 -0.0795 -0.5025
  319WAT      O 1995   2.981   4.866   3.180  0.3076  0.6321 -0.0164
  319WAT     H1 1996   3.057   4.902   3.204  0.1400  0.0012  1.5784
  319WAT     H2 1997   2.987   4.784   3.209 -1.3242  0.8093  0.9750
  319WAT    EPW 1998   2.993   4.859   3.188  0.0418  0.5651  0.3656
  320WAT      O 1999   1.838   1.108   3.283  0.1775 -0.0003  0.0655
  320WAT     H1 2000   1.800   1.094   3.360 -0.9063 -1.4369 -0.6758
  320WAT     H2 2001   1.773   1.139   3.234  0.8229  0.7754 -0.3098
  320WAT    EPW 2002   1.823   1.110   3.287  0.1128 -0.0979 -0.0995
  321WAT      O 2003   4.443   6.388   1.073 -0.1711  0.4173  0.1575
  321WAT     H1 2004   4.468   6.432   1.002 -0.2961  0.6381  0.2473
  321WAT     H2 2005   4.432   6.451   1.133  2.1862  0.0499  1.0715
  321WAT    EPW 2006   4.445   6.404   1.071  0.1587  0.3956  0.3058
  322WAT      O 2007   4.206   3.908   0.584 -0.1666  0.3445  0.2202
  322WAT     H1 2008   4.134   3.902   0.632 -0.6655  0.3855 -0.5028
  322WAT     H2 2009   4.182   3.875   0.507  1.0518 -1.2156  0.4544
  322WAT    EPW 2010   4.192   3.902   0.579 -0.0603  0.1201  0.1480
  323WAT      O 2011   2.796   3.419   3.812  0.4569 -0.0232 -0.3259
  323WAT     H1 2012   2.772   3.477   3.873 -0.8336  0.2294 -1.0257
  323WAT     H2 2013   2.783   3.342   3.851  1.7065  0.1337  0.4390
  323WAT    EPW 2014   2.790   3.416   3.827  0.4508  0.0373 -0.3163
  324WAT      O 2015   1.901   1.662   1.359 -0.2518  0.1968 -0.4179
  324WAT     H1 2016   1.892   1.590   1.311 -0.4966  0.2271 -0.4167
  324WAT     H2 2017   1.979   1.652   1.396 -0.8789 -0.7485  0.7026
  324WAT    EPW 2018   1.911   1.650   1.358 -0.3806  0.0616 -0.2522
  325WAT      O 2019   6.110   2.316   1.331 -0.2932 -0.5696 -0.1070
  325WAT     H1 2020   6.164   2.348   1.391  0.2045 -0.7690 -0.4431
  325WAT     H2 2021   6.162   2.266   1.281  0.0573  2.1411 -2.7545
  325WAT    EPW 2022   6.126   2.313   1.332 -0.1679 -0.1987 -0.5478
  326WAT      O 2023   2.802   4.439   1.457  0.3349  0.0158 -0.1146
  326WAT     H1 2024   2.857   4.371   1.460  0.4449  0.1310  1.1839
  326WAT     H2 2025   2.846   4.502   1.499 -0.4606  0.3509  0.2379
  326WAT    EPW 2026   2.817   4.438   1.464  0.2337  0.0823  0.1293
  327WAT      O 2027   3.926   2.251   2.916  0.1967 -0.6126 -0.0080
  327WAT     H1 2028   3.841   2.237   2.929  0.2080 -0.9708 -0.3053
  327WAT     H2 2029   3.964   2.188   2.963  0.2988 -0.4216  0.1657
  327WAT    EPW 2030   3.919   2.240   2.925  0.2134 -0.6373 -0.0262
  328WAT      O 2031   0.732   2.952   5.226 -0.0469  0.2853  0.3030
  328WAT     H1 2032   0.808   2.995   5.217  0.1526  0.0673  0.9297
  328WAT     H2 2033   0.672   3.015   5.221  0.1208  0.3718 -0.9746
  328WAT    EPW 2034   0.734   2.968   5.224  0.0073  0.2658  0.2069
  329WAT      O 2035   1.663   6.866   7.068  0.0756  0.2146 -0.0160
  329WAT     H1 2036   1.735   6.817   7.068  0.2155  0.3411 -1.6956
  329WAT     H2 2037   1.691   6.944   7.039 -0.7814  0.1043 -1.2470
  329WAT    EPW 2038   1.678   6.871   7.064 -0.0304  0.2170 -0.4460
  330WAT      O 2039   4.498   3.891   0.457 -0.1112 -0.3039  0.1416
  330WAT     H1 2040   4.551   3.959   0.473 -0.5368 -0.0938  0.6614
  330WAT     H2 2041   4.518   3.869   0.375  0.0127  0.4664 -0.0444
  330WAT    EPW 2042   4.509   3.898   0.447 -0.1557 -0.1591  0.1909
  331WAT      O 2043   5.239   7.084   0.231 -0.3779 -0.5732  0.8303
  331WAT     H1 2044   5.250   7.147   0.291 -0.8679  1.4239 -1.0599
  331WAT     H2 2045   5.163   7.105   0.194  0.0193 -1.6066 -0.6217
  331WAT    EPW 2046   5.229   7.097   0.234 -0.3916 -0.4309  0.3366
  332WAT      O 2047   4.349   3.172   1.209 -0.1836  0.8029  0.2433
  332WAT     H1 2048   4.392   3.166   1.285 -1.6838  2.1150  1.2680
  332WAT     H2 2049   4.299   3.100   1.209  0.3675  0.4119  0.1121
  332WAT    EPW 2050   4.348   3.160   1.220 -0.3238  0.9390  0.3753
  333WAT      O 2051   5.339   7.017   6.344  0.7543  0.3200  0.4183
  333WAT     H1 2052   5.357   7.039   6.426  1.1008 -0.2086  0.4890
  333WAT     H2 2053   5.277   6.956   6.352 -0.1330  1.1699  0.2274
  333WAT    EPW 2054   5.332   7.011   6.357  0.6744  0.3675  0.4005
  334WAT      O 2055   3.628   3.372   6.860  0.0828 -0.2010 -0.0340
  334WAT     H1 2056   3.668   3.447   6.840 -1.1045  0.8292  1.1769
  334WAT     H2 2057   3.661   3.352   6.938 -1.3482  0.4354  0.7825
  334WAT    EPW 2058   3.638   3.380   6.869 -0.3040  0.0452  0.2655
  335WAT      O 2059   0.152   0.717   5.040  0.3108  0.6002 -0.2624
  335WAT     H1 2060   0.195   0.694   4.968  0.8724  0.3126  0.1555
  335WAT     H2 2061   0.129   0.800   5.025  0.6919  0.6404 -0.6408
  335WAT    EPW 2062   0.155   0.726   5.027  0.4501  0.5636 -0.2566
  336WAT      O 2063   4.352   3.714   4.379  0.1420  0.4323 -1.2389
  336WAT     H1 2064   4.295   3.703   4.444 -0.7389  0.5134 -1.9731
  336WAT     H2 2065   4.429   3.715   4.419 -0.4276  1.2720 -0.1018
  336WAT    EPW 2066   4.355   3.712   4.394 -0.0723  0.5683 -1.1794
  337WAT      O 2067   5.413   5.385   1.637 -0.2867  0.6172 -0.2878
  337WAT     H1 2068   5.464   5.380   1.708  2.1872  1.9008 -1.8465
  337WAT     H2 2069   5.405   5.302   1.612  1.0798  0.3750  0.0155
  337WAT    EPW 2070   5.419   5.372   1.644  0.2806  0.7711 -0.4733
  338WAT      O 2071   1.754   4.014   4.514 -0.0817  0.3939 -0.1344
  338WAT     H1 2072   1.696   4.069   4.548 -0.2091 -0.3360  0.8745
  338WAT     H2 2073   1.706   3.948   4.485  0.2858 -0.6601  1.5745
  338WAT    EPW 2074   1.738   4.013   4.514 -0.0462  0.1304  0.2671
  339WAT      O 2075   5.133   4.317   2.379 -0.4254 -0.1596 -0.6937
  339WAT     H1 2076   5.183   4.361   2.435  0.8487 -1.2775 -0.8968
  339WAT     H2 2077   5.188   4.293   2.316 -1.3489 -0.8970 -1.2607
  339WAT    EPW 2078   5.148   4.320   2.378 -0.3736 -0.4337 -0.8075
  340WAT      O 2079   4.599   6.908   4.659 -0.3916 -0.3288 -0.6601
  340WAT     H1 2080   4.633   6.880   4.735  0.5091  0.6232 -0.6917
  340WAT     H2 2081   4.611   6.841   4.605  0.8388 -0.2715 -0.4857
  340WAT    EPW 2082   4.606   6.894   4.662 -0.0768 -0.1797 -0.6390
  341WAT      O 2083   4.882   0.253   6.111 -0.2840 -0.1198  0.1182
  341WAT     H1 2084   4.891   0.171   6.081 -2.5409  0.3003 -2.0600
  341WAT     H2 2085   4.797   0.269   6.100 -0.2583  1.9550  2.1878
  341WAT    EPW 2086   4.870   0.243   6.105 -0.6136  0.2488  0.1022
  342WAT      O 2087   1.939   0.426   1.052  0.0920 -0.2866  0.0514
  342WAT     H1 2088   1.894   0.471   0.992  0.7879 -0.0622 -0.3122
  342WAT     H2 2089   2.022   0.442   1.031  0.4042 -2.8558 -0.9379
  342WAT    EPW 2090   1.945   0.435   1.040  0.2409 -0.6330 -0.1485
  343WAT      O 2091   2.232   0.677   0.824  0.3420 -0.1501 -0.6709
  343WAT     H1 2092   2.316   0.688   0.805  0.7527 -2.4399 -0.4120
  343WAT     H2 2093   2.194   0.667   0.746  0.2893  0.7418 -0.7775
  343WAT    EPW 2094   2.239   0.677   0.810  0.3949 -0.3566 -0.6484
  344WAT      O 2095   1.167   0.291   4.554 -0.4441 -0.2745  0.0063
  344WAT     H1 2096   1.103   0.333   4.597  0.0366 -2.4625  3.2233
  344WAT     H2 2097   1.213   0.356   4.517 -2.0328  1.6891  1.2650
  344WAT    EPW 2098   1.164   0.307   4.555 -0.6078 -0.3077  0.6674
  345WAT      O 2099   1.575   7.056   4.530  0.5491 -0.4191 -0.0446
  345WAT     H1 2100   1.512   7.116   4.524  1.6040  0.9053  1.3333
  345WAT     H2 2101   1.618   7.066   4.454  0.1599 -0.0915 -0.2314
  345WAT    EPW 2102   1.572   7.066   4.518  0.6475 -0.1750  0.1313
  346WAT      O 2103   1.698   1.054   3.514 -0.1915  0.4055 -0.8763
  346WAT     H1 2104   1.613   1.043   3.496 -0.7443  1.5050  0.8568
  346WAT     H2 2105   1.700   1.129   3.558  1.7039  0.3903 -0.8583
  346WAT    EPW 2106   1.685   1.064   3.518  0.0068  0.5657 -0.6176
  347WAT      O 2107   1.508   0.587   2.107 -0.3758 -0.5947  0.0118
  347WAT     H1 2108   1.511   0.576   2.194 -2.6027  0.1272  0.2321
  347WAT     H2 2109   1.530   0.671   2.097 -0.9224 -0.4510 -0.0256
  347WAT    EPW 2110   1.512   0.598   2.118 -0.7855 -0.4669  0.0388
  348WAT      O 2111   2.222   4.261   3.985 -0.3852 -0.2142 -0.2811
  348WAT     H1 2112   2.235   4.184   4.023 -0.4114 -0.6882 -1.1919
  348WAT     H2 2113   2.301   4.297   3.983 -0.3588 -0.2518  0.0670
  348WAT    EPW 2114   2.235   4.255   3.990 -0.3851 -0.2898 -0.3642
  349WAT      O 2115   1.739   2.371   0.977 -0.2191 -0.5071 -1.0872
  349WAT     H1 2116   1.655   2.371   0.957 -0.8718  0.2346  1.2640
  349WAT     H2 2117   1.773   2.309   0.926 -1.9998 -0.2887 -2.6475
  349WAT    EPW 2118   1.732   2.362   0.967 -0.5786 -0.3653 -0.9704
  350WAT      O 2119   5.865   3.199   3.036 -0.1229 -0.2945  0.2688
  350WAT     H1 2120   5.838   3.272   3.077 -1.6801 -0.0758 -1.0479
  350WAT     H2 2121   5.883   3.226   2.955  2.1228 -0.8726  0.5186
  350WAT    EPW 2122   5.863   3.214   3.030 -0.0212 -0.3476  0.1112
  351WAT      O 2123   0.187   6.915   5.638  0.3097  0.0747  0.2635
  351WAT     H1 2124   0.115   6.961   5.651  0.6710  0.9625 -0.7742
  351WAT     H2 2125   0.195   6.912   5.552  1.1453 -0.6139  0.3429
  351WAT    EPW 2126   0.178   6.921   5.627  0.4865  0.1041  0.1220
  352WAT      O 2127   4.965   6.977   1.536  0.7823  0.0783  0.5089
  352WAT     H1 2128   4.934   7.057   1.548  0.9060  0.2411 -0.1750
  352WAT     H2 2129   4.966   6.969   1.449  0.9613 -0.5871  0.5681
  352WAT    EPW 2130   4.960   6.988   1.525  0.8270  0.0040  0.4166
  353WAT      O 2131   3.263   2.234   6.131  0.1181 -0.2841  0.0669
  353WAT     H1 2132   3.201   2.174   6.116 -0.4258  0.8095 -2.6608
  353WAT     H2 2133   3.240   2.269   6.208 -2.2353 -0.4713 -0.4827
  353WAT    EPW 2134   3.250   2.231   6.140 -0.3099 -0.1502 -0.4172
  354WAT      O 2135   3.154   6.493   5.224 -0.4419  0.3698  0.1840
  354WAT     H1 2136   3.102   6.428   5.250  0.6478  0.0787  1.7749
  354WAT     H2 2137   3.111   6.565   5.249 -1.8483  0.3561 -1.9477
  354WAT    EPW 2138   3.140   6.494   5.231 -0.4887  0.3248  0.1041
  355WAT      O 2139   0.885   3.864   6.984 -0.1063 -0.1040  0.4003
  355WAT     H1 2140   0.851   3.902   7.054  0.6952  0.3493  0.5621
  355WAT     H2 2141   0.847   3.786   6.982  0.8742 -0.6844  2.1637
  355WAT    EPW 2142   0.874   3.858   6.994  0.1570 -0.1227  0.6847
  356WAT      O 2143   3.150   3.369   4.586 -0.4493  0.0484 -0.5908
  356WAT     H1 2144   3.155   3.348   4.671  0.3965 -0.2828 -0.7147
  356WAT     H2 2145   3.071   3.342   4.563 -0.7750  0.3341  0.1433
  356WAT    EPW 2146   3.139   3.362   4.595 -0.3725  0.0417 -0.5007
  357WAT      O 2147   1.964   4.384   1.762 -0.6439  0.0358  0.1141
  357WAT     H1 2148   2.047   4.359   1.760 -0.1355  1.6520 -0.5418
  357WAT     H2 2149   1.953   4.413   1.843 -0.3523  0.4394  0.0152
  357WAT    EPW 2150   1.975   4.385   1.773 -0.5257  0.3342  0.0026
  358WAT      O 2151   6.273   4.186   4.947 -0.3576  0.2112  0.1424
  358WAT     H1 2152   6.301   4.262   4.915  0.0593  1.3200  2.8779
  358WAT     H2 2153   6.323   4.174   5.018 -1.9116 -1.4632  1.0331
  358WAT    EPW 2154   6.284   4.195   4.953 -0.5256  0.1277  0.6781
  359WAT      O 2155   0.801   5.753   3.091  0.2330  0.0347 -0.2525
  359WAT     H1 2156   0.883   5.759   3.063 -0.3584 -0.1030 -2.2027
  359WAT     H2 2157   0.758   5.723   3.021 -1.2359 -1.4158  1.1877
  359WAT    EPW 2158   0.807   5.749   3.077 -0.0713 -0.2000 -0.3279
  360WAT      O 2159   0.195   6.205   3.020 -1.0985 -0.4052 -0.6117
  360WAT     H1 2160   0.248   6.172   2.959  0.9156  0.2655  0.6785
  360WAT     H2 2161   0.202   6.148   3.086  0.8861  1.4465  0.8954
  360WAT    EPW 2162   0.204   6.192   3.021 -0.5078 -0.0326 -0.1985
  361WAT      O 2163   7.208   4.665   4.231  0.1252 -0.5087 -0.1567
  361WAT     H1 2164   7.206   4.599   4.289 -1.2281 -0.4190 -0.0683
  361WAT     H2 2165   7.207   4.624   4.154 -0.5722 -0.6040 -0.1021
  361WAT    EPW 2166   7.208   4.649   4.228 -0.1777 -0.5095 -0.1355
  362WAT      O 2167   2.005   1.432   4.906 -0.0426  0.9293  0.2613
  362WAT     H1 2168   1.946   1.434   4.970  0.3672  0.4616  0.6602
  362WAT     H2 2169   2.031   1.349   4.904  1.9394  1.4515  1.3629
  362WAT    EPW 2170   2.000   1.420   4.915  0.3107  0.9373  0.4829
  363WAT      O 2171   0.521   6.923   6.256  0.6249  0.2027  0.2439
  363WAT     H1 2172   0.494   6.905   6.337 -0.6352 -0.8381 -0.3698
  363WAT     H2 2173   0.560   6.849   6.231  2.8137  1.1674  0.5618
  363WAT    EPW 2174   0.523   6.909   6.264  0.7621  0.1915  0.2002
  364WAT      O 2175   7.078   1.803   2.248  0.3203 -0.1283 -0.1170
  364WAT     H1 2176   7.118   1.833   2.319  1.3531 -1.4367 -0.1172
  364WAT     H2 2177   7.107   1.857   2.185  0.8157 -0.0721  0.1536
  364WAT    EPW 2178   7.088   1.816   2.249  0.5460 -0.3133 -0.0770
  365WAT      O 2179   0.912   1.488   1.948  0.2728  0.4916  0.0135
  365WAT     H1 2180   0.871   1.471   1.873 -2.5167 -1.2129  1.7803
  365WAT     H2 2181   0.911   1.575   1.952 -1.5273  0.5618 -0.9286
  365WAT    EPW 2182   0.906   1.498   1.938 -0.4052  0.2502  0.1353
  366WAT      O 2183   3.370   0.709   1.128 -0.0872 -0.4276 -0.0642
  366WAT     H1 2184   3.314   0.684   1.066 -0.7805 -3.1695  1.5088
  366WAT     H2 2185   3.346   0.791   1.145 -2.8507 -1.0668 -0.3787
  366WAT    EPW 2186   3.358   0.717   1.122 -0.5979 -0.9271  0.1217
  367WAT      O 2187   2.031   0.189   4.502 -0.4366  0.4316 -0.6837
  367WAT     H1 2188   1.985   0.250   4.544 -1.1685 -0.0422 -0.7875
  367WAT     H2 2189   1.995   0.114   4.529  1.0918 -0.0319  0.2262
  367WAT    EPW 2190   2.019   0.187   4.512 -0.3189  0.2932 -0.5646
  368WAT      O 2191   6.588   5.856   6.926  0.3838 -0.2544  0.6664
  368WAT     H1 2192   6.608   5.836   7.009 -0.0102 -1.6331  0.4546
  368WAT     H2 2193   6.638   5.803   6.879 -0.9037 -0.9801  0.0726
  368WAT    EPW 2194   6.598   5.845   6.932  0.1354 -0.5652  0.5474
  369WAT      O 2195   7.255   0.228   1.219 -0.4293  0.1812  0.3133
  369WAT     H1 2196   7.284   0.276   1.152 -0.0975  2.1995  1.8078
  369WAT     H2 2197   7.328   0.206   1.261 -0.7334  1.1732  1.4192
  369WAT    EPW 2198   7.270   0.232   1.216 -0.4252  0.6259  0.6974
  370WAT      O 2199   3.179   2.558   3.655  0.3874 -0.6204  0.7030
  370WAT     H1 2200   3.256   2.531   3.623  0.2088 -1.4742  0.9490
  370WAT     H2 2201   3.174   2.517   3.732  0.2709  0.4653  1.2856
  370WAT    EPW 2202   3.190   2.548   3.661  0.3438 -0.5861  0.8254
  371WAT      O 2203   0.974   5.828   4.529  0.0053 -0.8067 -0.0596
  371WAT     H1 2204   0.971   5.762   4.587 -1.9052 -0.8728 -0.1721
  371WAT     H2 2205   1.053   5.862   4.541  1.0025 -3.0166  0.1205
  371WAT    EPW 2206   0.985   5.823   4.539 -0.1296 -1.1429 -0.0496
  372WAT      O 2207   1.930   6.585   0.330 -0.2000  0.4608 -0.6167
  372WAT     H1 2208   1.890   6.642   0.277  0.5020  0.5656 -1.0392
  372WAT     H2 2209   2.001   6.561   0.285  0.4769  0.6473  0.3299
  372WAT    EPW 2210   1.934   6.589   0.315  0.0037  0.5039 -0.5393
  373WAT      O 2211   2.410   0.514   5.928  0.1051  0.8546  0.2556
  373WAT     H1 2212   2.427   0.449   5.984 -2.0867  1.0824  1.2796
  373WAT     H2 2213   2.387   0.472   5.855 -0.3078  0.4936  0.5892
  373WAT    EPW 2214   2.409   0.498   5.926 -0.2797  0.8349  0.4561
  374WAT      O 2215   0.400   1.823   4.647 -0.3271 -0.2285 -0.6498
  374WAT     H1 2216   0.335   1.837   4.703  0.3967 -0.5602  0.3016
  374WAT     H2 2217   0.394   1.738   4.629  0.0403 -0.3347 -0.2914
  374WAT    EPW 2218   0.390   1.812   4.653 -0.1659 -0.2932 -0.4563
  375WAT      O 2219   5.564   2.176   4.051 -0.0471  0.6467 -0.2680
  375WAT     H1 2220   5.592   2.218   4.122  0.3259  0.7433 -0.4690
  375WAT     H2 2221   5.478   2.177   4.060 -0.1870 -4.4163  3.2184
  375WAT    EPW 2222   5.556   2.183   4.063 -0.0127 -0.0869  0.2173
  376WAT      O 2223   5.079   5.265   4.806 -0.2259  0.2671 -0.0485
  376WAT     H1 2224   4.998   5.244   4.781  0.2922 -0.0000 -1.6024
  376WAT     H2 2225   5.093   5.214   4.876 -0.6802 -1.1931 -0.9750
  376WAT    EPW 2226   5.069   5.254   4.813 -0.2165  0.0120 -0.4149
  377WAT      O 2227   1.699   5.047   5.232 -0.1043 -0.0276  0.0416
  377WAT     H1 2228   1.736   4.974   5.261  4.2509  1.1961 -1.7029
  377WAT     H2 2229   1.702   5.100   5.301 -1.6999 -0.8651  0.8112
  377WAT    EPW 2230   1.705   5.044   5.247  0.3033  0.0295 -0.1024
  378WAT      O 2231   6.140   5.745   6.253  0.0366 -0.1098 -0.1593
  378WAT     H1 2232   6.131   5.659   6.237 -1.7747  0.1395 -0.6932
  378WAT     H2 2233   6.218   5.764   6.217  1.0395 -1.7322  1.0302
  378WAT    EPW 2234   6.150   5.735   6.245 -0.0828 -0.3127 -0.0625
  379WAT      O 2235   2.945   4.521   3.845  0.4781 -0.3236  0.3513
  379WAT     H1 2236   2.974   4.439   3.841 -0.0984 -0.5689  1.0358
  379WAT     H2 2237   3.018   4.568   3.854  0.9484 -0.6087 -1.4954
  379WAT    EPW 2238   2.960   4.516   3.845  0.4624 -0.4019  0.1796
  380WAT      O 2239   0.320   4.659   4.948  0.0367  0.0923 -0.3955
  380WAT     H1 2240   0.393   4.676   4.905  0.8569 -1.6884  0.1673
  380WAT     H2 2241   0.290   4.738   4.971  1.8726  0.8612 -0.4814
  380WAT    EPW 2242   0.326   4.673   4.945  0.4290 -0.0572 -0.3250
  381WAT      O 2243   2.510   5.798   2.940  0.2730  0.8481  0.2539
  381WAT     H1 2244   2.429   5.807   2.970 -0.3821 -0.6133 -0.9647
  381WAT     H2 2245   2.524   5.712   2.943  0.4838  0.6880 -2.6351
  381WAT    EPW 2246   2.500   5.787   2.945  0.2074  0.6086 -0.3529
  382WAT      O 2247   1.516   4.467   6.402 -0.0857 -0.1410 -0.5279
  382WAT     H1 2248   1.556   4.391   6.384  1.4536  0.1478  1.3101
  382WAT     H2 2249   1.456   4.445   6.461 -0.5315 -0.1106 -0.9667
  382WAT    EPW 2250   1.513   4.452   6.408  0.0758 -0.0939 -0.3212
  383WAT      O 2251   2.525   2.876   5.640 -0.2466  0.2699 -0.8774
  383WAT     H1 2252   2.558   2.955   5.655  0.1139  0.1909 -1.2210
  383WAT     H2 2253   2.589   2.822   5.666 -0.4027  0.0954 -0.8517
  383WAT    EPW 2254   2.540   2.880   5.646 -0.2164  0.2325 -0.9244
  384WAT      O 2255   6.143   0.057   2.325  0.5505  0.3883 -0.3020
  384WAT     H1 2256   6.155   0.139   2.353 -0.1785  0.1570  0.7614
  384WAT     H2 2257   6.092   0.022   2.387  0.3149 -0.6750 -1.0752
  384WAT    EPW 2258   6.137   0.064   2.338  0.4080  0.1971 -0.2591
  385WAT      O 2259   3.995   1.493   6.466  0.2389  0.0846 -0.1809
  385WAT     H1 2260   3.922   1.536   6.488 -0.1152 -0.6537  0.1275
  385WAT     H2 2261   3.965   1.419   6.431  0.8342 -0.6230  0.7627
  385WAT    EPW 2262   3.980   1.488   6.464  0.2745 -0.1290  0.0041
  386WAT      O 2263   1.456   3.899   3.238  0.6216 -0.5672 -0.4942
  386WAT     H1 2264   1.440   3.816   3.259 -1.0700 -0.0160  0.6621
  386WAT     H2 2265   1.427   3.906   3.156  1.5411 -1.2907 -0.8956
  386WAT    EPW 2266   1.449   3.888   3.229  0.5075 -0.5926 -0.3827
  387WAT      O 2267   6.892   5.989   3.713  0.1312  0.3057 -0.2454
  387WAT     H1 2268   6.935   5.920   3.681 -1.7009 -0.8285 -0.4331
  387WAT     H2 2269   6.934   6.005   3.789  0.9534 -0.6344 -0.4748
  387WAT    EPW 2270   6.905   5.981   3.720 -0.0180 -0.0008 -0.3070
  388WAT      O 2271   3.722   5.688   6.800  0.1038 -0.3582  0.2443
  388WAT     H1 2272   3.778   5.734   6.752  0.7590 -1.6502 -0.2818
  388WAT     H2 2273   3.698   5.623   6.747 -2.6326  0.6334  0.1327
  388WAT    EPW 2274   3.727   5.685   6.785 -0.2036 -0.4026  0.1501
  389WAT      O 2275   5.887   6.122   0.080 -0.1725 -0.4728 -0.4363
  389WAT     H1 2276   5.898   6.157   0.159 -1.3436  1.2341 -0.9667
  389WAT     H2 2277   5.965   6.132   0.042  0.3206 -1.0637  0.3951
  389WAT    EPW 2278   5.900   6.129   0.086 -0.2727 -0.3079 -0.3918
  390WAT      O 2279   2.591   0.510   2.532 -0.4642  0.5002 -0.0056
  390WAT     H1 2280   2.552   0.437   2.504  2.2195 -0.4325 -1.7016
  390WAT     H2 2281   2.599   0.558   2.460  1.8731  0.3803  0.0809
  390WAT    EPW 2282   2.587   0.506   2.518  0.2775  0.3447 -0.2433
  391WAT      O 2283   4.038   5.655   0.404 -0.5061  0.3524  0.6228
  391WAT     H1 2284   4.023   5.602   0.472  0.0755  2.0588  2.1790
  391WAT     H2 2285   3.958   5.681   0.380 -0.8247 -1.4481 -0.4142
  391WAT    EPW 2286   4.024   5.651   0.411 -0.4672  0.3385  0.6995
  392WAT      O 2287   4.222   0.066   3.910 -0.9969 -0.1609 -0.6579
  392WAT     H1 2288   4.293   0.024   3.938 -0.1615  1.0713 -0.8486
  392WAT     H2 2289   4.207   0.031   3.832 -1.7343 -1.7292  0.1512
  392WAT    EPW 2290   4.230   0.055   3.903 -0.9824 -0.2105 -0.5665
  393WAT      O 2291   6.387   5.447   1.835  0.2391 -0.0424  0.2350
  393WAT     H1 2292   6.350   5.369   1.847 -0.4352  0.3677  0.9006
  393WAT     H2 2293   6.343   5.481   1.769  2.2951 -1.2747 -1.9077
  393WAT    EPW 2294   6.375   5.440   1.827  0.4432 -0.1639  0.0168
  394WAT      O 2295   4.233   0.600   5.675  0.0212  0.2864  0.2183
  394WAT     H1 2296   4.273   0.664   5.718  0.9404  0.3922 -0.7790
  394WAT     H2 2297   4.176   0.642   5.624  1.7009  0.4877 -1.6095
  394WAT    EPW 2298   4.230   0.615   5.674  0.4051  0.3317 -0.1990
  395WAT      O 2299   0.905   4.965   4.427 -0.3973  0.6054  0.5150
  395WAT     H1 2300   0.961   4.938   4.365  0.8717  2.6227  0.6979
  395WAT     H2 2301   0.920   4.910   4.493  1.1191  0.8385  0.4060
  395WAT    EPW 2302   0.915   4.953   4.428  0.0141  0.9378  0.5259
  396WAT      O 2303   3.111   5.021   0.829  0.3006  0.0434 -0.4670
  396WAT     H1 2304   3.046   5.034   0.771  0.1400  2.0013  0.0846
  396WAT     H2 2305   3.182   5.044   0.785  0.2581  0.8754 -0.1000
  396WAT    EPW 2306   3.112   5.026   0.814  0.2706  0.4556 -0.3313
  397WAT      O 2307   0.806   2.796   4.507  0.0465  0.4020  0.2193
  397WAT     H1 2308   0.814   2.816   4.423  0.7433  0.7722  0.3665
  397WAT     H2 2309   0.728   2.827   4.528 -0.1731  0.2203 -0.3094
  397WAT    EPW 2310   0.796   2.803   4.498  0.1170  0.4299  0.1629
  398WAT      O 2311   6.448   2.956   0.834 -0.0328 -0.0852  0.4413
  398WAT     H1 2312   6.533   2.974   0.832 -0.2019  0.9029  1.3988
  398WAT     H2 2313   6.411   3.029   0.804 -0.5584 -0.5058  0.0385
  398WAT    EPW 2314   6.455   2.969   0.829 -0.1354 -0.0014  0.5232
  399WAT      O 2315   0.952   2.181   4.444  0.5688  0.4701 -0.7254
  399WAT     H1 2316   0.964   2.148   4.364  0.6531  1.0651 -0.9645
  399WAT     H2 2317   0.967   2.266   4.433  1.1745  0.4733  0.0497
  399WAT    EPW 2318   0.956   2.189   4.430  0.6708  0.5585 -0.6462
  400WAT      O 2319   2.171   1.709   2.723 -0.8036  0.5160  0.2694
  400WAT     H1 2320   2.110   1.718   2.662  0.0275 -0.4896 -0.7630
  400WAT     H2 2321   2.246   1.717   2.678 -0.1692  0.2783  1.2496
  400WAT    EPW 2322   2.173   1.712   2.707 -0.5871  0.3323  0.2617
  401WAT      O 2323   5.844   0.973   2.137  0.3404  0.4437  0.1645
  401WAT     H1 2324   5.925   1.002   2.117  0.2670  1.7340  1.5981
  401WAT     H2 2325   5.824   1.016   2.210 -1.1948 -0.7538  0.4959
  401WAT    EPW 2326   5.853   0.984   2.145  0.1028  0.4574  0.4252
  402WAT      O 2327   2.725   0.134   3.995  0.6964  0.0995 -0.8129
  402WAT     H1 2328   2.675   0.156   3.927 -0.4081  0.6843  0.1376
  402WAT     H2 2329   2.681   0.068   4.032  0.0877  1.2216  0.5645
  402WAT    EPW 2330   2.711   0.128   3.991  0.4433  0.3517 -0.4690
  403WAT      O 2331   5.155   1.019   5.957  0.1885 -0.6092  0.2929
  403WAT     H1 2332   5.205   0.961   5.998  1.7570 -0.2293 -1.0149
  403WAT     H2 2333   5.128   0.977   5.886 -1.9432 -1.0192  1.2434
  403WAT    EPW 2334   5.158   1.004   5.953  0.1053 -0.6136  0.2401
  404WAT      O 2335   5.490   4.778   6.472 -0.2152 -0.1098 -0.2751
  404WAT     H1 2336   5.542   4.832   6.427  0.6052 -1.6625 -1.2871
  404WAT     H2 2337   5.415   4.779   6.428  0.3620 -1.0835 -1.3422
  404WAT    EPW 2338   5.487   4.786   6.459 -0.0087 -0.4830 -0.5822
  405WAT      O 2339   3.676   2.406   7.355 -0.3427 -0.0282 -0.0483
  405WAT     H1 2340   3.728   2.417   7.286  0.1781  3.5986  0.7160
  405WAT     H2 2341   3.613   2.355   7.325  1.3308 -0.9456 -2.3143
  405WAT    EPW 2342   3.675   2.400   7.341 -0.0185  0.3720 -0.2701
  406WAT      O 2343   3.637   2.697   3.168  0.9384 -0.4019  0.5042
  406WAT     H1 2344   3.550   2.703   3.162  0.9164  0.1944  1.3100
  406WAT     H2 2345   3.655   2.624   3.124  0.3155  0.8680 -2.1117
  406WAT    EPW 2346   3.626   2.687   3.160  0.8431 -0.1262  0.2368
  407WAT      O 2347   6.113   3.099   3.128  0.6316  0.2359 -0.5828
  407WAT     H1 2348   6.044   3.127   3.084  2.2044 -0.0747 -3.4926
  407WAT     H2 2349   6.112   3.012   3.116  0.6720  0.0241  0.7429
  407WAT    EPW 2350   6.103   3.090   3.120  0.8699  0.1588 -0.8168
  408WAT      O 2351   6.310   4.117   3.395 -0.1084  0.3758  0.3607
  408WAT     H1 2352   6.269   4.161   3.331 -0.4267  1.1777  1.0949
  408WAT     H2 2353   6.387   4.158   3.401 -0.0677  0.2833  0.4649
  408WAT    EPW 2354   6.316   4.130   3.386 -0.1494  0.4806  0.4846
  409WAT      O 2355   5.516   3.143   4.812  0.9618 -0.1912  0.5720
  409WAT     H1 2356   5.451   3.090   4.838  0.6412 -0.6792 -1.0972
  409WAT     H2 2357   5.526   3.198   4.879 -1.3937  0.1014  0.7698
  409WAT    EPW 2358   5.508   3.143   4.826  0.5665 -0.2200  0.3546
  410WAT      O 2359   2.613   0.737   6.003  0.3012  0.6859 -0.2445
  410WAT     H1 2360   2.558   0.677   5.972 -0.4543  1.5302 -0.5731
  410WAT     H2 2361   2.677   0.738   5.945 -0.6282  1.5478 -1.3087
  410WAT    EPW 2362   2.614   0.729   5.990  0.0523  0.9379 -0.4503
  411WAT      O 2363   1.237   4.571   4.254  0.0074  0.0082  0.5864
  411WAT     H1 2364   1.173   4.604   4.303 -0.6080 -2.4509  1.5475
  411WAT     H2 2365   1.196   4.542   4.183  0.6573  1.9088 -0.6371
  411WAT    EPW 2366   1.222   4.572   4.251  0.0125 -0.0743  0.5476
  412WAT      O 2367   4.728   3.243   7.298 -0.7135  0.7324  0.0000
  412WAT     H1 2368   4.716   3.328   7.282 -0.6831  1.4081  3.0005
  412WAT     H2 2369   4.662   3.223   7.352  1.1205 -0.2342  2.0347
  412WAT    EPW 2370   4.716   3.252   7.303 -0.4381  0.6894  0.7438
  413WAT      O 2371   2.500   3.091   1.650  0.1280  0.4192 -1.0376
  413WAT     H1 2372   2.469   3.102   1.569 -0.4819 -0.1049 -0.8911
  413WAT     H2 2373   2.459   3.019   1.677  1.7574 -0.4969 -0.9338
  413WAT    EPW 2374   2.489   3.082   1.642  0.2786  0.2064 -1.0006
  414WAT      O 2375   6.386   2.076   5.655 -0.0971 -0.3936  0.3316
  414WAT     H1 2376   6.337   2.147   5.645 -0.0374 -0.6427 -3.1299
  414WAT     H2 2377   6.448   2.101   5.711 -1.0886  1.6667  0.5979
  414WAT    EPW 2378   6.388   2.090   5.662 -0.2348 -0.1260 -0.1404
  415WAT      O 2379   2.451   5.481   4.861 -0.2920  0.1093 -0.0688
  415WAT     H1 2380   2.532   5.476   4.827  0.4731  0.4028  1.6045
  415WAT     H2 2381   2.466   5.498   4.946 -2.1515  1.6571  0.0006
  415WAT    EPW 2382   2.465   5.483   4.869 -0.4536  0.3813  0.1886
  416WAT      O 2383   3.281   6.846   7.288  0.6249  0.3020 -0.2140
  416WAT     H1 2384   3.248   6.830   7.367 -0.1653  0.0725 -0.5788
  416WAT     H2 2385   3.211   6.843   7.235  1.0180  1.2571 -0.8154
  416WAT    EPW 2386   3.266   6.843   7.292  0.5662  0.4092 -0.3567
  417WAT      O 2387   0.156   0.715   1.290 -0.1486  0.3520 -0.0997
  417WAT     H1 2388   0.072   0.740   1.289 -1.1932 -2.7643 -0.9714
  417WAT     H2 2389   0.154   0.639   1.332  2.4718  0.7133  0.8336
  417WAT    EPW 2390   0.143   0.708   1.296  0.0842 -0.0550 -0.0906
  418WAT      O 2391   3.011   1.241   2.718 -0.0357 -0.4479 -0.6387
  418WAT     H1 2392   3.088   1.219   2.752  0.2372  0.0850 -0.9014
  418WAT     H2 2393   3.023   1.230   2.632  0.1905  0.9370 -0.8046
  418WAT    EPW 2394   3.024   1.236   2.710  0.0380 -0.1646 -0.7020
  419WAT      O 2395   0.307   6.151   6.575  0.0505 -0.2814 -0.1358
  419WAT     H1 2396   0.251   6.215   6.594  1.0163  0.0996  1.5420
  419WAT     H2 2397   0.290   6.134   6.491 -1.0921  1.2957 -0.2648
  419WAT    EPW 2398   0.296   6.158   6.565  0.0244  0.0079  0.0930
  420WAT      O 2399   5.105   1.906   0.494 -0.1924 -0.3128  0.0677
  420WAT     H1 2400   5.159   1.843   0.519  1.3981  1.2945  0.8698
  420WAT     H2 2401   5.026   1.874   0.512  0.5950 -1.8753  0.8597
  420WAT    EPW 2402   5.101   1.892   0.500  0.1588 -0.3062  0.3031
  421WAT      O 2403   1.117   5.531   2.804 -0.0424 -0.0111 -0.5427
  421WAT     H1 2404   1.134   5.614   2.782 -1.7044  0.6127  0.3296
  421WAT     H2 2405   1.109   5.533   2.891 -1.7768 -0.7011 -0.6413
  421WAT    EPW 2406   1.118   5.544   2.813 -0.5441 -0.0209 -0.4284
  422WAT      O 2407   3.192   3.921   7.064 -0.1774 -0.2005  0.2187
  422WAT     H1 2408   3.175   3.993   7.018 -0.4874 -1.8676 -2.5197
  422WAT     H2 2409   3.258   3.944   7.117 -0.7595  2.2325 -0.0367
  422WAT    EPW 2410   3.199   3.935   7.065 -0.3092 -0.0874 -0.2236
  423WAT      O 2411   5.719   0.128   2.520 -0.3763  0.0726  0.4191
  423WAT     H1 2412   5.734   0.144   2.604 -0.7644 -2.5179  1.0575
  423WAT     H2 2413   5.649   0.075   2.521 -1.4367  1.2899 -1.6647
  423WAT    EPW 2414   5.711   0.123   2.532 -0.5903 -0.1303  0.2056
  424WAT      O 2415   0.714   6.380   7.030 -0.1934 -0.4390  0.1886
  424WAT     H1 2416   0.761   6.366   7.101  0.2359 -1.9543 -0.3529
  424WAT     H2 2417   0.649   6.431   7.058 -0.3599 -1.4601  1.7947
  424WAT    EPW 2418   0.711   6.386   7.044 -0.1546 -0.8137  0.3459
  425WAT      O 2419   2.886   7.103   6.763  0.3057 -0.2246  0.7455
  425WAT     H1 2420   2.900   7.058   6.690  1.0513  1.7310 -0.4017
  425WAT     H2 2421   2.813   7.068   6.795 -0.8836 -0.2097 -1.7087
  425WAT    EPW 2422   2.877   7.091   6.757  0.2402  0.0665  0.2135
  426WAT      O 2423   2.175   2.843   2.246  0.2914 -0.5606 -0.4742
  426WAT     H1 2424   2.172   2.780   2.185  2.5540  0.4674 -1.7678
  426WAT     H2 2425   2.102   2.829   2.293 -0.3742 -2.8094 -1.9874
  426WAT    EPW 2426   2.164   2.831   2.244  0.5273 -0.7410 -0.8889
  427WAT      O 2427   5.728   4.883   0.895 -0.4902  0.2572  0.0843
  427WAT     H1 2428   5.709   4.916   0.816 -4.2514  0.6416  0.9436
  427WAT     H2 2429   5.728   4.797   0.881 -2.3693  0.2590 -0.2403
  427WAT    EPW 2430   5.725   4.875   0.881 -1.3234  0.3142  0.1633
  428WAT      O 2431   0.181   2.199   1.983 -0.0581  0.3480  0.3647
  428WAT     H1 2432   0.204   2.117   1.962 -1.3018  0.2495 -0.7439
  428WAT     H2 2433   0.220   2.247   1.921 -1.0932  0.3675 -0.2948
  428WAT    EPW 2434   0.190   2.194   1.971 -0.3947  0.3363  0.1035
  429WAT      O 2435   5.083   5.591   6.835 -0.4518 -0.0963  0.2467
  429WAT     H1 2436   5.159   5.588   6.878 -0.1215 -0.8440 -0.3654
  429WAT     H2 2437   5.102   5.556   6.757 -1.2161  0.5495 -0.2412
  429WAT    EPW 2438   5.097   5.585   6.830 -0.5159 -0.1114  0.0842
  430WAT      O 2439   6.066   1.934   4.329  0.0146  0.4963  0.2816
  430WAT     H1 2440   6.048   1.855   4.296 -0.3742  0.4008  0.7191
  430WAT     H2 2441   5.990   1.960   4.363  0.6009  0.2256  1.8780
  430WAT    EPW 2442   6.052   1.926   4.329  0.0438  0.4422  0.5820
  431WAT      O 2443   6.496   6.836   4.144  0.0020  0.1083 -0.5522
  431WAT     H1 2444   6.489   6.911   4.187 -0.0723  0.9814 -1.9995
  431WAT     H2 2445   6.422   6.831   4.099  0.5461 -0.1708 -1.4531
  431WAT    EPW 2446   6.484   6.846   4.143  0.0714  0.1960 -0.8991
  432WAT      O 2447   5.242   2.026   2.145  0.7925  0.1006 -0.1067
  432WAT     H1 2448   5.302   2.001   2.204  0.1639 -0.0500  0.4801
  432WAT     H2 2449   5.170   1.984   2.169  0.2689  0.7936 -0.4027
  432WAT    EPW 2450   5.240   2.016   2.157  0.6223  0.1807 -0.0638
  433WAT      O 2451   3.090   1.962   2.676  0.3619  0.2982  0.0521
  433WAT     H1 2452   3.048   2.023   2.631 -0.5257  1.1696  1.9858
  433WAT     H2 2453   3.153   2.006   2.717  0.5866 -0.3239  0.3887
  433WAT    EPW 2454   3.093   1.977   2.675  0.2640  0.3350  0.3875
  434WAT      O 2455   2.285   1.903   4.138 -0.2587  0.3660  0.1064
  434WAT     H1 2456   2.350   1.912   4.081 -0.0294 -1.2395  0.0898
  434WAT     H2 2457   2.267   1.986   4.161  2.1255  0.8359  0.5277
  434WAT    EPW 2458   2.292   1.917   4.133  0.1274  0.1982  0.1662
  435WAT      O 2459   5.826   1.685   3.975 -0.4281  0.0393  0.2557
  435WAT     H1 2460   5.855   1.744   4.033  0.2652  1.3247 -1.3436
  435WAT     H2 2461   5.869   1.613   3.996 -0.1610  0.4787  1.3051
  435WAT    EPW 2462   5.836   1.683   3.987 -0.2862  0.2941  0.1745
  436WAT      O 2463   2.695   4.853   1.881 -0.0473 -0.3182  0.1014
  436WAT     H1 2464   2.721   4.770   1.878  1.7184  0.1977 -0.1690
  436WAT     H2 2465   2.769   4.898   1.866 -1.1291  1.2728 -0.8016
  436WAT    EPW 2466   2.710   4.848   1.878  0.0537 -0.0069 -0.0720
  437WAT      O 2467   5.092   5.030   0.035  0.4825  0.2701  0.0829
  437WAT     H1 2468   5.144   5.096   0.010  0.2967  1.3586  2.3218
  437WAT     H2 2469   5.033   5.069   0.086 -1.6920 -1.1621 -1.1886
  437WAT    EPW 2470   5.091   5.046   0.039  0.1338  0.2193  0.2258
  438WAT      O 2471   4.656   4.331   2.141 -0.0902  0.7089 -0.3735
  438WAT     H1 2472   4.638   4.413   2.163 -2.0062 -0.3369  2.6333
  438WAT     H2 2473   4.579   4.298   2.118 -0.0804 -1.0571  1.8033
  438WAT    EPW 2474   4.642   4.338   2.141 -0.3718  0.2935  0.3922
  439WAT      O 2475   1.003   4.386   3.568  0.0258  0.4563  0.2980
  439WAT     H1 2476   0.976   4.390   3.651  1.5812  1.4728  0.7954
  439WAT     H2 2477   1.080   4.427   3.569 -0.0808  0.8200 -1.7244
  439WAT    EPW 2478   1.010   4.393   3.580  0.2398  0.6602  0.0727
  440WAT      O 2479   2.482   0.287   4.836 -0.0407 -0.2130 -0.1641
  440WAT     H1 2480   2.552   0.239   4.856  0.1142  0.0131 -0.1582
  440WAT     H2 2481   2.435   0.234   4.785 -0.8481 -1.1247  1.4278
  440WAT    EPW 2482   2.486   0.272   4.831 -0.1371 -0.3143  0.0720
  441WAT      O 2483   5.408   2.809   4.334  0.2689  0.0013  0.5587
  441WAT     H1 2484   5.442   2.854   4.400  0.2212 -0.4385  0.8852
  441WAT     H2 2485   5.462   2.740   4.326  0.7460  0.4588 -0.3859
  441WAT    EPW 2486   5.421   2.806   4.343  0.3323  0.0039  0.4674
  442WAT      O 2487   6.580   2.121   6.313 -0.0613  0.0253 -0.3245
  442WAT     H1 2488   6.522   2.153   6.368  0.5881  0.4963  0.0980
  442WAT     H2 2489   6.642   2.088   6.365 -1.2600 -3.1629 -0.6440
  442WAT    EPW 2490   6.581   2.121   6.328 -0.1424 -0.3761 -0.3093
  443WAT      O 2491   0.293   0.312   0.877 -0.1183  0.3913 -0.4723
  443WAT     H1 2492   0.373   0.343   0.894 -0.1199 -0.3982  1.2077
  443WAT     H2 2493   0.285   0.322   0.791  2.5440 -1.1428 -1.0203
  443WAT    EPW 2494   0.304   0.318   0.867  0.2747  0.0480 -0.3051
  444WAT      O 2495   3.023   3.359   2.599  0.3541  0.2798 -0.2282
  444WAT     H1 2496   2.981   3.372   2.674  1.2875 -0.3686  0.4372
  444WAT     H2 2497   3.107   3.358   2.622  0.7165  0.9189 -1.4182
  444WAT    EPW 2498   3.029   3.361   2.613  0.5456  0.2784 -0.3057
  445WAT      O 2499   7.185   5.727   5.150  0.3637  0.4453  0.0289
  445WAT     H1 2500   7.199   5.776   5.079  1.4718 -1.3800 -1.1034
  445WAT     H2 2501   7.261   5.729   5.192 -0.0018  0.7641  0.6793
  445WAT    EPW 2502   7.198   5.734   5.146  0.4734  0.2228 -0.0423
  446WAT      O 2503   1.152   6.679   1.104 -0.0785  0.0499 -0.1365
  446WAT     H1 2504   1.130   6.605   1.064 -1.4148  2.0017 -3.3538
  446WAT     H2 2505   1.215   6.654   1.159  0.3323 -3.2674 -1.8500
  446WAT    EPW 2506   1.158   6.664   1.106 -0.2152 -0.1518 -0.8649
  447WAT      O 2507   3.615   4.157   2.349 -0.3409 -0.2217 -0.5726
  447WAT     H1 2508   3.648   4.217   2.403  0.5408  0.6558 -1.9994
  447WAT     H2 2509   3.681   4.141   2.294 -1.8306  0.6076 -2.7475
  447WAT    EPW 2510   3.630   4.163   2.348 -0.4307  0.0304 -1.1046
  448WAT      O 2511   3.982   2.671   2.076  0.7161  0.3647  0.0710
  448WAT     H1 2512   4.022   2.595   2.089  3.0491  1.5647  0.4857
  448WAT     H2 2513   3.903   2.659   2.111  0.3489 -2.3596 -1.3812
  448WAT    EPW 2514   3.976   2.658   2.083  1.0065  0.1396 -0.0823
  449WAT      O 2515   1.054   1.630   6.759 -0.3801  0.5499  0.3026
  449WAT     H1 2516   1.045   1.708   6.720 -1.0388  0.9900  1.2817
  449WAT     H2 2517   1.117   1.591   6.713  1.6414  2.5799  1.1366
  449WAT    EPW 2518   1.062   1.636   6.746 -0.1788  0.9148  0.5704
  450WAT      O 2519   4.777   6.211   7.173 -0.4126  0.1244  0.2641
  450WAT     H1 2520   4.824   6.283   7.189 -0.5283  0.6667 -1.6466
  450WAT     H2 2521   4.813   6.179   7.101  1.0453 -3.0219  2.1884
  450WAT    EPW 2522   4.789   6.217   7.165 -0.2143 -0.2603  0.2661
  451WAT      O 2523   6.250   1.412   6.713 -0.4113 -0.1792  0.2642
  451WAT     H1 2524   6.276   1.337   6.675 -1.5871 -0.3515 -0.2748
  451WAT     H2 2525   6.323   1.443   6.749  0.1288 -1.5428  0.4274
  451WAT    EPW 2526   6.265   1.405   6.713 -0.5052 -0.4061  0.2087
  452WAT      O 2527   4.196   0.750   2.561 -0.0732  0.4417 -0.0525
  452WAT     H1 2528   4.202   0.712   2.483  0.3063 -1.1148  0.7015
  452WAT     H2 2529   4.226   0.831   2.546 -1.3539  0.6535 -1.8007
  452WAT    EPW 2530   4.201   0.757   2.547 -0.2063  0.2431 -0.1993
  453WAT      O 2531   3.370   2.246   4.940 -0.3528 -0.4843  0.2693
  453WAT     H1 2532   3.291   2.279   4.927 -0.0160  0.3087  0.2066
  453WAT     H2 2533   3.423   2.316   4.940  0.2196 -0.8789  1.3651
  453WAT    EPW 2534   3.366   2.261   4.938 -0.2185 -0.4255  0.4219
  454WAT      O 2535   1.848   2.164   1.183  0.1112  0.6960 -0.1339
  454WAT     H1 2536   1.808   2.232   1.146  3.0945  2.0693 -1.1779
  454WAT     H2 2537   1.858   2.189   1.266 -0.8999  0.4589  0.0665
  454WAT    EPW 2538   1.844   2.178   1.190  0.4025  0.8638 -0.2586
  455WAT      O 2539   6.476   3.399   1.090 -0.6849 -1.0570  0.4876
  455WAT     H1 2540   6.429   3.380   1.161 -0.3174 -1.4374  0.6317
  455WAT     H2 2541   6.448   3.478   1.068 -1.1422 -1.1315  0.7775
  455WAT    EPW 2542   6.465   3.408   1.097 -0.6982 -1.1242  0.5517
  456WAT      O 2543   2.338   7.234   3.944 -0.3862  0.3644 -0.3247
  456WAT     H1 2544   2.363   7.311   3.911 -1.0008  1.0620  0.7560
  456WAT     H2 2545   2.280   7.256   4.005  0.8718 -0.8072  1.4084
  456WAT    EPW 2546   2.333   7.249   3.948 -0.2911  0.2944  0.0910
  457WAT      O 2547   4.471   3.146   4.520  0.3174 -0.3723 -0.0720
  457WAT     H1 2548   4.432   3.076   4.486 -0.6806  1.0460 -2.0224
  457WAT     H2 2549   4.514   3.114   4.589 -0.9874 -2.7018 -0.2350
  457WAT    EPW 2550   4.472   3.131   4.525 -0.0228 -0.5069 -0.3842
  458WAT      O 2551   4.605   6.389   5.796  0.2181  0.2165  0.2846
  458WAT     H1 2552   4.569   6.469   5.799  1.3896  0.7594  0.6634
  458WAT     H2 2553   4.685   6.405   5.766  1.1283 -0.5721  2.1546
  458WAT    EPW 2554   4.611   6.403   5.792  0.5256  0.1802  0.6168
  459WAT      O 2555   4.572   5.832   3.665 -0.0414  0.6976 -0.1917
  459WAT     H1 2556   4.562   5.916   3.643  1.7121  0.9831 -0.0626
  459WAT     H2 2557   4.644   5.807   3.622  0.1156 -0.4073  0.6447
  459WAT    EPW 2558   4.581   5.841   3.656  0.2408  0.5766 -0.0490
  460WAT      O 2559   4.434   2.808   2.377 -0.1195  0.7947 -1.1770
  460WAT     H1 2560   4.474   2.827   2.451 -0.0331 -1.5392 -0.5684
  460WAT     H2 2561   4.352   2.835   2.390 -0.9546 -2.3414  1.1009
  460WAT    EPW 2562   4.428   2.815   2.390 -0.2301 -0.0133 -0.7506
  461WAT      O 2563   2.121   6.256   1.933 -0.2329 -0.0085  0.1536
  461WAT     H1 2564   2.153   6.303   2.000  0.1577  0.5171 -0.3953
  461WAT     H2 2565   2.036   6.274   1.934 -0.2672 -0.1626  0.6273
  461WAT    EPW 2566   2.113   6.266   1.943 -0.1803  0.0464  0.1425
  462WAT      O 2567   3.186   4.005   2.001 -0.5021 -0.3690 -0.5535
  462WAT     H1 2568   3.188   3.943   1.939 -0.7595  2.0099 -3.1157
  462WAT     H2 2569   3.114   3.987   2.046  1.4856 -4.2906  1.6390
  462WAT    EPW 2570   3.176   3.993   1.999 -0.2465 -0.5969 -0.6081
  463WAT      O 2571   1.565   1.184   3.174 -0.0328  0.3237 -0.3358
  463WAT     H1 2572   1.507   1.175   3.109  1.0431 -1.3887 -1.1427
  463WAT     H2 2573   1.530   1.139   3.240 -0.1129  0.1989 -0.4632
  463WAT    EPW 2574   1.551   1.176   3.174  0.1143  0.0523 -0.4738
  464WAT      O 2575   5.238   2.630   3.079  0.1953  0.2109  0.2350
  464WAT     H1 2576   5.166   2.676   3.063 -0.0371  0.2784  1.4075
  464WAT     H2 2577   5.217   2.550   3.052  0.2934  0.5606 -0.9854
  464WAT    EPW 2578   5.224   2.625   3.072  0.1754  0.2725  0.2279
  465WAT      O 2579   4.022   6.627   1.475  0.4841 -0.2015 -0.4930
  465WAT     H1 2580   3.959   6.568   1.490  0.9579 -0.7564 -0.6286
  465WAT     H2 2581   4.006   6.689   1.534 -0.0781 -0.4244 -0.4034
  465WAT    EPW 2582   4.010   6.627   1.486  0.4711 -0.3164 -0.4998
  466WAT      O 2583   4.932   6.511   3.378 -0.1880 -0.3006 -0.4299
  466WAT     H1 2584   4.931   6.426   3.356 -3.3911 -0.4628 -0.1669
  466WAT     H2 2585   4.862   6.519   3.431  0.9420  2.2182  0.8464
  466WAT    EPW 2586   4.921   6.499   3.383 -0.4943  0.0475 -0.2025
  467WAT      O 2587   5.263   6.612   2.575  0.0350  0.1180 -0.1665
  467WAT     H1 2588   5.235   6.694   2.588 -0.5337 -0.0629 -0.2323
  467WAT     H2 2589   5.189   6.565   2.574  0.3545 -0.3882 -0.1853
  467WAT    EPW 2590   5.248   6.618   2.577 -0.0018  0.0165 -0.1790
  468WAT      O 2591   0.697   4.393   0.848 -0.3802 -0.3081 -0.3952
  468WAT     H1 2592   0.708   4.340   0.916 -0.7658  0.1795  0.0596
  468WAT     H2 2593   0.656   4.462   0.882  0.5072  0.4887 -0.8878
  468WAT    EPW 2594   0.692   4.395   0.863 -0.3060 -0.1184 -0.4008
  469WAT      O 2595   0.482   3.640   6.801  0.1835  0.2134  0.3852
  469WAT     H1 2596   0.417   3.624   6.745  0.8082 -0.1756 -0.2629
  469WAT     H2 2597   0.464   3.588   6.869 -0.0397 -0.0953  0.0966
  469WAT    EPW 2598   0.470   3.630   6.803  0.2428  0.1103  0.2468
  470WAT      O 2599   0.055   3.852   2.984  0.0318  0.3584  0.8147
  470WAT     H1 2600  -0.018   3.838   2.939 -0.2076  0.3102  1.2180
  470WAT     H2 2601   0.042   3.809   3.059  0.5005  0.2914  0.8629
  470WAT    EPW 2602   0.042   3.843   2.988  0.0657  0.3414  0.8814
  471WAT      O 2603   2.164   6.905   5.719 -0.0627  0.4629  0.4976
  471WAT     H1 2604   2.171   6.982   5.679 -1.0233  0.8742  1.1112
  471WAT     H2 2605   2.089   6.910   5.762 -1.1361 -1.5041 -0.9410
  471WAT    EPW 2606   2.154   6.917   5.719 -0.3631  0.2331  0.3757
  472WAT      O 2607   7.034   0.448   0.968  0.0361 -0.4621  0.1147
  472WAT     H1 2608   7.016   0.463   1.052  0.1941 -1.3321  0.3227
  472WAT     H2 2609   7.120   0.465   0.963  0.0977 -0.7385  0.2138
  472WAT    EPW 2610   7.044   0.452   0.980  0.0686 -0.6314  0.1601
  473WAT      O 2611   2.984   0.773   6.158 -0.0035  0.3085  0.6531
  473WAT     H1 2612   2.922   0.829   6.133  0.3270  0.3135 -0.1972
  473WAT     H2 2613   3.051   0.826   6.180 -0.4316  0.3246  2.0139
  473WAT    EPW 2614   2.985   0.789   6.157 -0.0179  0.3116  0.7285
  474WAT      O 2615   3.061   6.026   3.252  0.0756 -0.0506  0.5786
  474WAT     H1 2616   3.100   5.949   3.265  1.3784  0.8527  2.5383
  474WAT     H2 2617   3.125   6.079   3.226 -0.8516  0.3638 -1.0165
  474WAT    EPW 2618   3.076   6.023   3.250  0.1311  0.1440  0.6325
  475WAT      O 2619   0.467   4.956   7.046  1.0505  0.0633 -0.3021
  475WAT     H1 2620   0.487   4.999   7.119  0.1398  0.6813 -0.4048
  475WAT     H2 2621   0.447   4.876   7.074  3.3729 -0.5647 -0.1682
  475WAT    EPW 2622   0.467   4.951   7.061  1.2590  0.0618 -0.2975
  476WAT      O 2623   0.029   2.002   2.897 -0.1749 -0.5153 -0.0850
  476WAT     H1 2624   0.052   2.043   2.971 -0.1269 -0.8578  0.0914
  476WAT     H2 2625  -0.058   1.999   2.903 -0.2881  0.7779 -0.7518
  476WAT    EPW 2626   0.020   2.008   2.909 -0.1845 -0.3749 -0.1574
  477WAT      O 2627   1.438   0.386   3.612 -0.8098  0.1312 -0.2860
  477WAT     H1 2628   1.509   0.394   3.562 -1.6471 -0.2551 -1.5556
  477WAT     H2 2629   1.405   0.309   3.589 -1.2292 -0.0498  0.8552
  477WAT    EPW 2630   1.444   0.376   3.602 -0.9955  0.0474 -0.3050
  478WAT      O 2631   1.665   4.432   2.346  0.1439 -0.2308 -0.2151
  478WAT     H1 2632   1.603   4.492   2.353  0.5003  0.1491 -0.2964
  478WAT     H2 2633   1.723   4.456   2.407 -0.3972 -1.3257  0.7783
  478WAT    EPW 2634   1.664   4.444   2.356  0.1166 -0.3364 -0.0803
  479WAT      O 2635   6.253   6.603   7.199  0.1087  0.6134  0.3105
  479WAT     H1 2636   6.268   6.525   7.163 -1.0708  0.3145  0.4208
  479WAT     H2 2637   6.166   6.605   7.207  0.2365  1.2861  1.7592
  479WAT    EPW 2638   6.242   6.592   7.195 -0.0466  0.6686  0.5408
  480WAT      O 2639   6.771   0.860   4.759 -0.1160 -0.3106  0.1641
  480WAT     H1 2640   6.753   0.873   4.675 -1.4896  0.1834  0.4990
  480WAT     H2 2641   6.769   0.941   4.793  0.6554 -0.4799  0.6340
  480WAT    EPW 2642   6.768   0.874   4.752 -0.2050 -0.2626  0.2830
  481WAT      O 2643   5.901   6.199   0.344  0.1449  0.5058  0.1034
  481WAT     H1 2644   5.866   6.120   0.356  0.1015  0.1423 -2.0232
  481WAT     H2 2645   5.987   6.185   0.351  0.1198  0.3297  0.0624
  481WAT    EPW 2646   5.909   6.186   0.346  0.1348  0.4261 -0.2168
  482WAT      O 2647   0.087   2.366   6.907  0.0615 -0.1436 -0.1463
  482WAT     H1 2648   0.003   2.358   6.888 -0.3366  2.2762  0.3099
  482WAT     H2 2649   0.096   2.451   6.926  2.7868 -0.1116 -1.1043
  482WAT    EPW 2650   0.076   2.378   6.907  0.4053  0.2186 -0.2204
  483WAT      O 2651   1.195   2.236   5.278 -0.6882  0.2895  0.2406
  483WAT     H1 2652   1.204   2.165   5.227 -2.8429 -1.1861  1.7462
  483WAT     H2 2653   1.141   2.287   5.232 -2.0577 -0.7216  0.6712
  483WAT    EPW 2654   1.189   2.233   5.263 -1.2088 -0.0778  0.5267
  484WAT      O 2655   1.457   5.338   6.138  0.4044  0.4365 -0.9761
  484WAT     H1 2656   1.441   5.424   6.137  0.7468  0.5042 -2.0774
  484WAT     H2 2657   1.398   5.306   6.082 -0.6307 -0.2525  0.4249
  484WAT    EPW 2658   1.446   5.346   6.129  0.3020  0.3447 -0.9318
  485WAT      O 2659   1.110   3.323   3.676  0.2687 -0.4989 -0.4851
  485WAT     H1 2660   1.131   3.305   3.758  0.8359  1.3744 -0.1703
  485WAT     H2 2661   1.127   3.408   3.668  0.0832 -0.5852 -2.5019
  485WAT    EPW 2662   1.115   3.333   3.687  0.3251 -0.2349 -0.7365
  486WAT      O 2663   4.538   2.018   1.203  0.5448  0.7602 -0.0195
  486WAT     H1 2664   4.535   2.067   1.131  1.1440  0.6919 -0.0945
  486WAT     H2 2665   4.620   1.988   1.204  0.8576  1.6277  1.2687
  486WAT    EPW 2666   4.549   2.021   1.192  0.6795  0.8782  0.1597
  487WAT      O 2667   5.971   1.105   0.829  0.2884 -0.5135 -0.0753
  487WAT     H1 2668   5.925   1.178   0.841  1.2621 -0.1959  1.9842
  487WAT     H2 2669   5.921   1.059   0.773 -0.6291  1.4308 -0.9337
  487WAT    EPW 2670   5.957   1.109   0.822  0.2967 -0.1794  0.1021
  488WAT      O 2671   2.751   2.064   3.191  0.2725  0.0821  0.4327
  488WAT     H1 2672   2.738   2.132   3.138 -1.2516  0.7048  1.5335
  488WAT     H2 2673   2.720   1.996   3.145  3.7191 -0.3832 -1.5694
  488WAT    EPW 2674   2.745   2.064   3.176  0.5565  0.1054  0.2995
  489WAT      O 2675   2.794   2.189   7.084  0.0868  0.1470 -0.1586
  489WAT     H1 2676   2.752   2.227   7.151  0.2681  1.1070 -0.5786
  489WAT     H2 2677   2.746   2.117   7.068  0.2030 -0.2464  1.1722
  489WAT    EPW 2678   2.781   2.184   7.092  0.1307  0.2307 -0.0241
  490WAT      O 2679   3.239   3.845   0.005  0.3140 -0.1196  0.2586
  490WAT     H1 2680   3.286   3.901  -0.042 -0.6361  0.9764  0.5591
  490WAT     H2 2681   3.243   3.771  -0.041 -0.9012  1.0030 -1.8242
  490WAT    EPW 2682   3.246   3.842  -0.009 -0.0058  0.2081 -0.0047
  491WAT      O 2683   4.699   4.325   2.448 -0.3096  0.0014 -0.2844
  491WAT     H1 2684   4.674   4.333   2.365 -0.4407  0.4259 -0.2077
  491WAT     H2 2685   4.650   4.260   2.479 -1.1466  0.6626 -0.2013
  491WAT    EPW 2686   4.688   4.317   2.441 -0.4526  0.1618 -0.2608
  492WAT      O 2687   1.306   1.824   0.542  0.5242 -0.3687 -0.1407
  492WAT     H1 2688   1.324   1.740   0.531 -0.6456 -0.5430 -0.9819
  492WAT     H2 2689   1.219   1.827   0.540  0.5128  0.7358  0.9088
  492WAT    EPW 2690   1.296   1.812   0.540  0.3497 -0.2313 -0.1099
  493WAT      O 2691   0.176   0.812   5.497  0.1454 -0.4683 -0.5805
  493WAT     H1 2692   0.093   0.807   5.470  0.9108 -0.0947 -3.2467
  493WAT     H2 2693   0.222   0.789   5.427  2.3257 -1.0018  0.9301
  493WAT    EPW 2694   0.171   0.808   5.483  0.5805 -0.4919 -0.7512
  494WAT      O 2695   5.492   0.798   6.928  0.0300  0.0553 -0.2461
  494WAT     H1 2696   5.473   0.783   7.012 -1.8763  1.8403 -0.2675
  494WAT     H2 2697   5.572   0.766   6.919  0.6007  0.4577  2.4681
  494WAT    EPW 2698   5.501   0.791   6.939 -0.1673  0.3784  0.1517
  495WAT      O 2699   1.417   1.375   0.742  0.0075 -0.5518 -0.1901
  495WAT     H1 2700   1.413   1.416   0.819  0.1148 -0.3876 -0.2703
  495WAT     H2 2701   1.500   1.349   0.737  0.5036  1.0565 -1.0678
  495WAT    EPW 2702   1.429   1.378   0.752  0.0966 -0.2900 -0.3316
  496WAT      O 2703   0.722   6.754   4.704  0.4193  0.5558  0.0349
  496WAT     H1 2704   0.661   6.744   4.766 -0.0596  0.0062 -0.5131
  496WAT     H2 2705   0.733   6.841   4.701 -0.9824  0.7540 -0.4599
  496WAT    EPW 2706   0.714   6.766   4.713  0.1415  0.5039 -0.1192
  497WAT      O 2707   0.570   6.016   6.844 -0.5044  0.3262 -0.1629
  497WAT     H1 2708   0.551   5.949   6.792  0.0377 -0.8326  1.0807
  497WAT     H2 2709   0.606   6.074   6.790  2.9997 -2.0582 -0.7486
  497WAT    EPW 2710   0.573   6.015   6.828  0.0933 -0.1972 -0.0657
  498WAT      O 2711   6.576   4.846   3.326 -0.1870  0.2028 -0.1833
  498WAT     H1 2712   6.558   4.863   3.242 -0.9513  0.1055 -0.0457
  498WAT     H2 2713   6.631   4.778   3.322 -0.6788 -0.1754 -0.5866
  498WAT    EPW 2714   6.581   4.839   3.313 -0.3726  0.1326 -0.2225
  499WAT      O 2715   3.390   4.083   6.848  0.8363 -0.2761  0.0610
  499WAT     H1 2716   3.420   4.036   6.915  0.4142 -0.1349  0.3568
  499WAT     H2 2717   3.337   4.027   6.806 -0.8255  0.3171  1.2403
  499WAT    EPW 2718   3.386   4.068   6.851  0.5285 -0.1676  0.2789
  500WAT      O 2719   5.791   7.188   5.698 -0.1039 -0.2508  0.4130
  500WAT     H1 2720   5.756   7.162   5.774 -1.8683  0.8833  0.0443
  500WAT     H2 2721   5.838   7.258   5.720 -0.2476 -0.1911  0.5390
  500WAT    EPW 2722   5.793   7.194   5.713 -0.3857 -0.0744  0.3771
  501WAT      O 2723   4.368   3.759   2.145  0.0320  0.1619 -0.2106
  501WAT     H1 2724   4.450   3.731   2.137  1.0596  2.7158  0.3943
  501WAT     H2 2725   4.368   3.834   2.101 -1.4504  1.1372  1.3362
  501WAT    EPW 2726   4.380   3.766   2.137 -0.0352  0.6833  0.1072
  502WAT      O 2727   7.168   4.971   6.507  0.5306 -0.4700 -0.1338
  502WAT     H1 2728   7.151   4.974   6.421  0.5847  2.3109 -0.1375
  502WAT     H2 2729   7.224   4.906   6.514  0.3935 -0.8976 -2.1980
  502WAT    EPW 2730   7.173   4.962   6.495  0.5184 -0.1224 -0.4393
  503WAT      O 2731   6.129   4.691   3.674 -0.0515  0.0350  0.1130
  503WAT     H1 2732   6.117   4.775   3.656  0.2670  0.7303  2.7075
  503WAT     H2 2733   6.204   4.672   3.634  0.5060  1.3574  0.4599
  503WAT    EPW 2734   6.139   4.701   3.665  0.0779  0.3330  0.5475
  504WAT      O 2735   1.666   1.822   3.305 -0.4188 -0.3639  0.0408
  504WAT     H1 2736   1.691   1.751   3.260 -0.7672 -0.5346  0.1199
  504WAT     H2 2737   1.705   1.811   3.383  1.4430  0.6682 -0.6694
  504WAT    EPW 2738   1.676   1.810   3.310 -0.1952 -0.2367 -0.0524
  505WAT      O 2739   3.586   1.719   5.922  0.0165  0.2266 -0.7621
  505WAT     H1 2740   3.618   1.668   5.859 -1.1273 -2.7118  0.8438
  505WAT     H2 2741   3.658   1.757   5.955  0.8526  0.1431 -2.3584
  505WAT    EPW 2742   3.601   1.717   5.918 -0.0289 -0.2198 -0.7607
  506WAT      O 2743   6.944   2.941   5.335  0.6886 -0.1394 -0.1065
  506WAT     H1 2744   6.957   2.867   5.291 -0.3821 -0.0061 -0.6733
  506WAT     H2 2745   6.899   2.991   5.279  0.5121  0.5518  0.6333
  506WAT    EPW 2746   6.939   2.937   5.321  0.5044 -0.0176 -0.0809
  507WAT      O 2747   4.847   2.473   5.724  0.4103 -0.0924 -0.1673
  507WAT     H1 2748   4.812   2.456   5.646 -0.3273  1.7432 -0.3008
  507WAT     H2 2749   4.780   2.506   5.769  0.7524 -1.4294  1.3676
  507WAT    EPW 2750   4.832   2.476   5.719  0.3519 -0.0187  0.0397
  508WAT      O 2751   5.917   3.268   3.774 -0.2665 -0.4021 -0.1571
  508WAT     H1 2752   5.896   3.268   3.859  2.0131 -0.4253  0.4685
  508WAT     H2 2753   5.929   3.184   3.756  1.5488 -0.2473  0.1694
  508WAT    EPW 2754   5.915   3.256   3.784  0.3384 -0.3826 -0.0165
  509WAT      O 2755   6.402   6.141   1.872  0.1110  0.4578 -0.5630
  509WAT     H1 2756   6.358   6.141   1.796  1.0130 -0.4675 -1.1103
  509WAT     H2 2757   6.352   6.094   1.925  0.8251 -1.3956 -1.4487
  509WAT    EPW 2758   6.388   6.134   1.868  0.3498  0.0473 -0.7747
  510WAT      O 2759   0.747   2.571   2.166 -0.6259  0.2124 -0.1654
  510WAT     H1 2760   0.799   2.506   2.141 -0.8527  0.5545 -1.6595
  510WAT     H2 2761   0.785   2.602   2.238  0.3817 -0.5162 -0.3615
  510WAT    EPW 2762   0.760   2.566   2.173 -0.5106  0.1553 -0.4150
  511WAT      O 2763   6.450   4.573   6.571  0.0526 -0.6452  0.1370
  511WAT     H1 2764   6.373   4.597   6.605  0.2589  2.0917 -1.0560
  511WAT     H2 2765   6.508   4.597   6.632  0.0365 -2.0078  0.7092
  511WAT    EPW 2766   6.447   4.580   6.585  0.0807 -0.4422  0.0453
  512WAT      O 2767   4.034   6.127   0.098  0.3379  0.0093 -0.4703
  512WAT     H1 2768   3.986   6.195   0.122  0.0952 -0.0374 -0.8152
  512WAT     H2 2769   3.997   6.060   0.139  0.2643  0.0122 -0.5302
  512WAT    EPW 2770   4.022   6.127   0.107  0.2912  0.0028 -0.5301
  513WAT      O 2771   3.284   2.151   6.427  0.0362 -0.3176  0.3607
  513WAT     H1 2772   3.319   2.111   6.358  0.4100 -1.0686  0.9716
  513WAT     H2 2773   3.287   2.091   6.490 -3.5864 -0.9603  0.1708
  513WAT    EPW 2774   3.289   2.136   6.426 -0.4437 -0.5235  0.4229
  514WAT      O 2775   5.938   6.820   1.053  0.0687  0.1947 -0.1120
  514WAT     H1 2776   5.918   6.739   1.028  0.7627  0.3394 -1.2014
  514WAT     H2 2777   5.864   6.850   1.089 -0.4113 -0.6598 -0.3802
  514WAT    EPW 2778   5.924   6.813   1.055  0.1003  0.0899 -0.3125
  515WAT      O 2779   4.650   3.811   2.977 -0.5057  0.4402 -0.0242
  515WAT     H1 2780   4.580   3.838   2.932  0.3781 -0.8096 -2.2867
  515WAT     H2 2781   4.708   3.874   2.965 -0.5015  0.4351 -0.0299
  515WAT    EPW 2782   4.648   3.824   2.969 -0.3745  0.2548 -0.3593
  516WAT      O 2783   1.473   6.138   1.874 -0.6875 -0.0035  0.2661
  516WAT     H1 2784   1.555   6.168   1.869 -1.0359  0.9618  0.0664
  516WAT     H2 2785   1.457   6.136   1.959  0.2482 -2.2812  0.4684
  516WAT    EPW 2786   1.483   6.142   1.886 -0.6008 -0.1973  0.2665
  517WAT      O 2787   1.642   4.596   3.705 -0.0829 -0.4478 -0.1132
  517WAT     H1 2788   1.621   4.632   3.782  1.3091  0.1065  0.0483
  517WAT     H2 2789   1.716   4.552   3.723  0.2505 -0.3307 -1.1265
  517WAT    EPW 2790   1.650   4.595   3.719  0.1720 -0.3486 -0.2390
  518WAT      O 2791   3.480   1.915   3.343  0.1682  0.1307 -0.0728
  518WAT     H1 2792   3.470   1.997   3.372  0.2576 -0.2571  1.1386
  518WAT     H2 2793   3.451   1.866   3.410 -0.8866 -0.8294 -1.1866
  518WAT    EPW 2794   3.474   1.920   3.357  0.0256 -0.0684 -0.0584
  519WAT      O 2795   5.199   0.523   6.280  0.0017  0.5605 -0.1331
  519WAT     H1 2796   5.169   0.566   6.211  0.8420  0.1369 -0.7789
  519WAT     H2 2797   5.208   0.441   6.250 -0.7311  0.1164  0.8116
  519WAT    EPW 2798   5.196   0.517   6.266  0.0176  0.4323 -0.0889
  520WAT      O 2799   3.724   1.150   4.017 -0.6789  0.1171  0.3048
  520WAT     H1 2800   3.724   1.099   4.088 -1.2989 -0.9513 -0.4388
  520WAT     H2 2801   3.748   1.095   3.953 -3.0894  0.2678 -0.8199
  520WAT    EPW 2802   3.728   1.134   4.018 -1.1266 -0.0185  0.0288
  521WAT      O 2803   4.221   4.944   1.613  0.3469 -0.1612  0.1128
  521WAT     H1 2804   4.183   4.977   1.684  0.6170 -1.2667  0.7944
  521WAT     H2 2805   4.237   5.014   1.564 -0.4720  0.5507  0.8372
  521WAT    EPW 2806   4.218   4.959   1.616  0.2658 -0.2193  0.3205
  522WAT      O 2807   0.799   1.345   5.713 -0.1616  0.3977 -0.0948
  522WAT     H1 2808   0.807   1.306   5.635 -2.5279  1.6885 -1.0953
  522WAT     H2 2809   0.832   1.286   5.769 -0.2331 -1.4261 -1.8667
  522WAT    EPW 2810   0.805   1.330   5.710 -0.5217  0.3190 -0.5043
  523WAT      O 2811   4.893   2.483   2.409  0.2311 -0.3928  0.1142
  523WAT     H1 2812   4.937   2.558   2.400  0.1072 -0.4390 -0.9375
  523WAT     H2 2813   4.830   2.489   2.350  0.3369 -1.4152 -0.1146
  523WAT    EPW 2814   4.890   2.495   2.399  0.2284 -0.5506 -0.0749
  524WAT      O 2815   5.540   5.713   3.626 -0.0883 -0.3865 -0.2037
  524WAT     H1 2816   5.529   5.797   3.605  0.5649 -0.9510 -3.3184
  524WAT     H2 2817   5.615   5.713   3.671 -1.7611  0.9783  2.8647
  524WAT    EPW 2818   5.549   5.726   3.629 -0.2389 -0.2683 -0.2106
  525WAT      O 2819   0.121   4.012   2.067  0.1193 -0.0177  0.3071
  525WAT     H1 2820   0.195   4.058   2.078  0.4531  0.0790 -1.8645
  525WAT     H2 2821   0.137   3.937   2.107  1.3165  0.1072  0.1070
  525WAT    EPW 2822   0.134   4.008   2.074  0.3454  0.0150 -0.0433
  526WAT      O 2823   0.300   3.852   0.226  0.3972 -0.2860  0.3620
  526WAT     H1 2824   0.323   3.900   0.295  0.8774 -0.2136  0.1602
  526WAT     H2 2825   0.236   3.801   0.256  0.7968 -0.4581  0.9342
  526WAT    EPW 2826   0.294   3.851   0.241  0.5272 -0.3008  0.4167
  527WAT      O 2827   2.176   1.293   1.684 -0.0792  0.4398  0.6860
  527WAT     H1 2828   2.236   1.243   1.723 -0.4997 -0.9488 -0.3714
  527WAT     H2 2829   2.192   1.373   1.717  2.6637  0.2525  0.0686
  527WAT    EPW 2830   2.187   1.298   1.695  0.2639  0.2070  0.4386
  528WAT      O 2831   0.650   2.229   4.474 -0.2254 -0.4141  0.1206
  528WAT     H1 2832   0.604   2.157   4.459 -0.1077 -0.7803  1.3872
  528WAT     H2 2833   0.725   2.199   4.505 -0.0396  0.2423  0.3119
  528WAT    EPW 2834   0.654   2.214   4.477 -0.1806 -0.3712  0.3360
  529WAT      O 2835   0.444   0.714   0.366  0.2732  0.0494 -0.5085
  529WAT     H1 2836   0.472   0.753   0.439  0.2850 -0.4345 -0.2505
  529WAT     H2 2837   0.390   0.652   0.395 -1.4016  1.2025 -1.0196
  529WAT    EPW 2838   0.440   0.711   0.381  0.0275  0.1482 -0.5459
  530WAT      O 2839   6.869   5.867   5.303 -0.5293  0.0806 -0.0842
  530WAT     H1 2840   6.836   5.804   5.253 -0.2195 -1.3109  1.4087
  530WAT     H2 2841   6.955   5.863   5.289 -0.6559  2.8366 -2.9481
  530WAT    EPW 2842   6.877   5.857   5.294 -0.5023  0.2822 -0.2867
  531WAT      O 2843   3.229   5.146   3.065  0.2713 -0.3663  0.0842
  531WAT     H1 2844   3.239   5.083   3.124  0.3852  0.2799  0.7676
  531WAT     H2 2845   3.149   5.176   3.080  0.0545 -0.6196 -0.5204
  531WAT    EPW 2846   3.219   5.141   3.076  0.2561 -0.3083  0.0959
  532WAT      O 2847   2.209   3.497   2.041 -0.4803  0.2292  0.4466
  532WAT     H1 2848   2.288   3.478   2.009 -0.2820 -0.4957  1.3167
  532WAT     H2 2849   2.158   3.435   2.007 -0.3733 -0.2139  1.0770
  532WAT    EPW 2850   2.213   3.485   2.031 -0.4352  0.0566  0.6683
  533WAT      O 2851   4.077   0.869   2.938  0.0259  0.1419  0.1506
  533WAT     H1 2852   4.022   0.917   2.891  0.5019  1.0978  0.5589
  533WAT     H2 2853   4.055   0.787   2.917 -0.0541  0.5344 -1.4127
  533WAT    EPW 2854   4.066   0.864   2.928  0.0844  0.3411 -0.0200
  534WAT      O 2855   2.158   6.652   4.844  0.2958  0.0051 -0.0809
  534WAT     H1 2856   2.131   6.583   4.798 -0.2407 -0.1056  0.3907
  534WAT     H2 2857   2.202   6.616   4.910  1.2635  0.1715 -0.6207
  534WAT    EPW 2858   2.160   6.636   4.847  0.3595  0.0133 -0.0910
  535WAT      O 2859   5.429   1.530   6.813  0.4778  0.2664  0.4002
  535WAT     H1 2860   5.499   1.479   6.804  1.0229  1.1112 -0.3715
  535WAT     H2 2861   5.457   1.594   6.865  0.3302  0.6593  0.0119
  535WAT    EPW 2862   5.443   1.532   6.819  0.5365  0.4492  0.2288
  536WAT      O 2863   5.648   7.139   1.013  0.2194 -0.2858  0.3915
  536WAT     H1 2864   5.628   7.055   1.000  0.6362 -0.4739  0.9027
  536WAT     H2 2865   5.726   7.147   0.974 -0.5762  0.3187 -1.1698
  536WAT    EPW 2866   5.657   7.127   1.005  0.1634 -0.2243  0.2364
  537WAT      O 2867   1.735   7.077   4.284 -0.4382  0.5746 -0.4648
  537WAT     H1 2868   1.821   7.064   4.284 -0.5194 -0.2507 -1.9860
  537WAT     H2 2869   1.728   7.163   4.272  0.1349  0.9496  1.5385
  537WAT    EPW 2870   1.747   7.088   4.282 -0.3656  0.5081 -0.3936
  538WAT      O 2871   3.109   1.796   1.053  0.2571  0.1538 -0.6929
  538WAT     H1 2872   3.112   1.883   1.055 -0.0516  0.1779 -1.1744
  538WAT     H2 2873   3.166   1.772   1.114  0.0101  0.6990 -0.2376
  538WAT    EPW 2874   3.118   1.805   1.063  0.1750  0.2379 -0.6968
  539WAT      O 2875   1.674   2.999   1.241 -0.5712  0.3947 -0.4677
  539WAT     H1 2876   1.733   2.979   1.301 -0.9297 -1.4818 -0.6831
  539WAT     H2 2877   1.678   3.086   1.236  0.8903  0.4314  0.7867
  539WAT    EPW 2878   1.683   3.009   1.249 -0.4083  0.1229 -0.3142
  540WAT      O 2879   5.887   2.036   4.107 -0.4035  0.4657  0.1827
  540WAT     H1 2880   5.959   2.016   4.153  1.4613 -0.0508 -2.6671
  540WAT     H2 2881   5.824   1.993   4.148  1.3218 -0.9121  1.5578
  540WAT    EPW 2882   5.888   2.027   4.120  0.1269  0.1858 -0.0351
  541WAT      O 2883   3.457   3.703   2.586  0.3791 -0.5029  0.2069
  541WAT     H1 2884   3.537   3.736   2.599  0.4724 -0.7838  0.3613
  541WAT     H2 2885   3.422   3.757   2.527 -0.1568  0.9408  1.7717
  541WAT    EPW 2886   3.464   3.716   2.579  0.3137 -0.3312  0.4609
  542WAT      O 2887   2.856   0.748   5.138 -0.1166 -0.3150 -0.0467
  542WAT     H1 2888   2.827   0.808   5.082  1.9556  0.8720  0.0571
  542WAT     H2 2889   2.798   0.749   5.202  0.4596  2.5288  0.5431
  542WAT    EPW 2890   2.843   0.757   5.139  0.2746  0.2804  0.0558
  543WAT      O 2891   7.116   4.518   3.580  0.5549  0.2236  0.7506
  543WAT     H1 2892   7.107   4.431   3.574  0.2222  0.2665  0.6211
  543WAT     H2 2893   7.081   4.547   3.506  1.3674  0.4295  0.4297
  543WAT    EPW 2894   7.110   4.509   3.568  0.6258  0.2603  0.6841
  544WAT      O 2895   2.545   3.230   3.685 -0.2067  1.0424  0.0759
  544WAT     H1 2896   2.554   3.310   3.650 -2.7087  0.9133 -1.0643
  544WAT     H2 2897   2.509   3.246   3.763 -2.3729  1.0192 -0.8672
  544WAT    EPW 2898   2.541   3.244   3.691 -0.8963  1.0199 -0.2318
  545WAT      O 2899   2.673   6.928   7.248  0.1890  0.6907  0.5103
  545WAT     H1 2900   2.755   6.917   7.275  0.7212  0.3437 -1.1221
  545WAT     H2 2901   2.641   6.847   7.244  0.2993  0.6806 -0.3750
  545WAT    EPW 2902   2.680   6.914   7.251  0.2839  0.6380  0.1384
  546WAT      O 2903   2.625   0.755   7.096 -0.1020  0.3543 -0.3896
  546WAT     H1 2904   2.691   0.751   7.040  1.7228  0.4476  1.6224
  546WAT     H2 2905   2.582   0.680   7.083 -0.1495  0.6599 -2.2932
  546WAT    EPW 2906   2.628   0.743   7.086  0.1605  0.4132 -0.3736
  547WAT      O 2907   0.501   5.940   3.734  0.0361 -0.2062  0.5744
  547WAT     H1 2908   0.508   5.903   3.655 -1.0961  0.4817  0.1255
  547WAT     H2 2909   0.471   5.875   3.785  1.0628 -0.7360  0.5269
  547WAT    EPW 2910   0.498   5.925   3.730  0.0205 -0.1828  0.5011
  548WAT      O 2911   2.432   1.439   1.320  0.1153 -0.0415  0.5091
  548WAT     H1 2912   2.445   1.451   1.235 -0.0168  0.6264  0.5768
  548WAT     H2 2913   2.506   1.403   1.347  0.1029 -0.3899  0.0854
  548WAT    EPW 2914   2.445   1.436   1.312  0.0939  0.0057  0.4565
  549WAT      O 2915   0.752   0.818   2.383 -0.2720  0.2845  0.4904
  549WAT     H1 2916   0.740   0.853   2.462  0.1385 -1.2047  1.2542
  549WAT     H2 2917   0.672   0.800   2.356 -0.4080  0.6855  0.6144
  549WAT    EPW 2918   0.739   0.821   2.391 -0.2315  0.1238  0.6216
  550WAT      O 2919   4.164   1.379   1.062 -0.1682 -0.7968  0.3437
  550WAT     H1 2920   4.242   1.340   1.064  0.2551  0.0110  0.0640
  550WAT     H2 2921   4.143   1.380   0.978 -0.6903 -1.3970  0.4604
  550WAT    EPW 2922   4.172   1.373   1.050 -0.1828 -0.7661  0.3196
  551WAT      O 2923   5.291   1.292   6.482  0.4069 -0.1717 -0.1296
  551WAT     H1 2924   5.257   1.215   6.504  0.5296 -0.5520 -1.2124
  551WAT     H2 2925   5.228   1.330   6.435  0.2341  0.5303  0.6368
  551WAT    EPW 2926   5.277   1.287   6.479  0.3995 -0.1242 -0.1763
  552WAT      O 2927   1.986   6.471   5.252  0.2023 -0.7717 -0.6961
  552WAT     H1 2928   2.013   6.497   5.331 -2.1047  0.5049 -0.2153
  552WAT     H2 2929   2.000   6.385   5.252 -1.0263 -1.0708  1.7448
  552WAT    EPW 2930   1.992   6.462   5.264 -0.3200 -0.6273 -0.2645
  553WAT      O 2931   0.061   1.783   2.483 -0.2398 -0.2353 -0.1241
  553WAT     H1 2932   0.117   1.837   2.444 -0.1349  0.3595  0.8208
  553WAT     H2 2933   0.074   1.798   2.568 -0.1524 -1.8121  0.1616
  553WAT    EPW 2934   0.071   1.793   2.490 -0.2114 -0.3804  0.0577
  554WAT      O 2935   4.527   3.288   0.341  0.4100  0.1586 -0.1198
  554WAT     H1 2936   4.508   3.285   0.255  2.1441 -0.8012 -0.5211
  554WAT     H2 2937   4.467   3.236   0.377  1.1229 -1.4670 -1.1213
  554WAT    EPW 2938   4.515   3.280   0.333  0.7715 -0.2234 -0.3271
  555WAT      O 2939   5.771   6.399   0.190  0.0685  0.1638  0.3998
  555WAT     H1 2940   5.825   6.330   0.192 -0.1567 -0.0433 -0.3871
  555WAT     H2 2941   5.786   6.438   0.266  2.8025  1.2367 -0.5628
  555WAT    EPW 2942   5.782   6.395   0.202  0.4391  0.2917  0.1414
  556WAT      O 2943   3.382   6.561   5.421 -0.5193  0.2222 -0.2223
  556WAT     H1 2944   3.433   6.494   5.444  1.4596  1.1347 -1.6752
  556WAT     H2 2945   3.361   6.544   5.338  0.6543  1.7121 -0.8699
  556WAT    EPW 2946   3.386   6.548   5.412 -0.0536  0.5771 -0.5326
  557WAT      O 2947   2.625   4.648   7.267  0.5235  0.0059 -0.7065
  557WAT     H1 2948   2.676   4.711   7.299  0.2942  0.6100 -1.4880
  557WAT     H2 2949   2.545   4.675   7.290  0.5355 -1.0626  0.7378
  557WAT    EPW 2950   2.620   4.661   7.275  0.4914 -0.0627 -0.6086
  558WAT      O 2951   5.375   4.155   4.321  0.2393  0.4852  0.1250
  558WAT     H1 2952   5.333   4.081   4.337  1.4260 -0.0308  0.9509
  558WAT     H2 2953   5.403   4.146   4.239 -2.6499  1.5678 -1.1217
  558WAT    EPW 2954   5.373   4.143   4.311 -0.0122  0.5689  0.0629
  559WAT      O 2955   3.564   5.657   6.217  0.2188  0.0298  0.0283
  559WAT     H1 2956   3.613   5.638   6.147  2.6436 -0.7459  1.8075
  559WAT     H2 2957   3.605   5.617   6.282 -1.8411  0.8717  1.9699
  559WAT    EPW 2958   3.578   5.648   6.216  0.2727  0.0396  0.5780
  560WAT      O 2959   2.326   4.303   2.647 -0.0188 -0.1419 -1.4091
  560WAT     H1 2960   2.384   4.369   2.650 -2.8197  2.5038  0.4813
  560WAT     H2 2961   2.372   4.235   2.676  2.4547  1.4637 -1.1714
  560WAT    EPW 2962   2.342   4.303   2.652 -0.0672  0.4861 -1.0948
  561WAT      O 2963   5.113   5.060   6.982  0.2698 -0.2069  0.2530
  561WAT     H1 2964   5.113   5.144   7.003 -0.8755 -0.3272  0.8869
  561WAT     H2 2965   5.096   5.020   7.059 -0.7172 -0.8997 -0.3014
  561WAT    EPW 2966   5.110   5.066   6.997 -0.0452 -0.3271  0.2647
  562WAT      O 2967   1.491   4.455   4.380  0.5380  0.5508 -0.1265
  562WAT     H1 2968   1.418   4.503   4.375  0.2916  0.5539  2.4592
  562WAT     H2 2969   1.515   4.462   4.463  0.4141 -3.9390  0.5499
  562WAT    EPW 2970   1.483   4.463   4.391  0.4833 -0.1120  0.3554
  563WAT      O 2971   4.888   2.264   4.614  0.1702  0.1062 -0.9421
  563WAT     H1 2972   4.900   2.177   4.614  1.4257  0.2200 -2.7655
  563WAT     H2 2973   4.933   2.291   4.544 -1.6924  2.0422 -1.5048
  563WAT    EPW 2974   4.896   2.255   4.604  0.0805  0.4090 -1.2946
  564WAT      O 2975   1.390   2.789   3.003  0.1908 -0.0329 -0.2240
  564WAT     H1 2976   1.393   2.709   2.968 -2.8146 -0.5251  0.3169
  564WAT     H2 2977   1.436   2.838   2.948 -0.1465 -1.6701 -2.0864
  564WAT    EPW 2978   1.397   2.784   2.990 -0.3030 -0.3474 -0.4192
  565WAT      O 2979   1.678   1.704   2.884  1.0038 -0.4351  0.2655
  565WAT     H1 2980   1.701   1.765   2.825 -0.0860 -1.3788 -1.1805
  565WAT     H2 2981   1.631   1.749   2.942  2.2972  0.5584  0.6164
  565WAT    EPW 2982   1.675   1.720   2.884  1.0339 -0.4277  0.1037
  566WAT      O 2983   4.255   5.313   3.044 -0.4579  0.4167  0.4038
  566WAT     H1 2984   4.329   5.312   2.998  0.7185  4.0490  1.8952
  566WAT     H2 2985   4.252   5.233   3.080  1.3109 -0.6984 -1.6964
  566WAT    EPW 2986   4.266   5.301   3.043 -0.0228  0.7885  0.3139
  567WAT      O 2987   0.013   4.904   1.959 -0.1001 -0.3457 -0.5595
  567WAT     H1 2988  -0.040   4.927   1.894 -2.1780 -1.7852  0.4722
  567WAT     H2 2989  -0.043   4.890   2.025  1.6355 -1.6207  0.7115
  567WAT    EPW 2990  -0.003   4.905   1.959 -0.1507 -0.7467 -0.2193
  568WAT      O 2991   5.342   5.907   5.222 -0.2085  0.1073  0.4502
  568WAT     H1 2992   5.381   5.945   5.290 -0.6092  1.1808  0.0910
  568WAT     H2 2993   5.332   5.824   5.249  0.4408  0.2993  1.3457
  568WAT    EPW 2994   5.346   5.900   5.236 -0.1718  0.2942  0.5294
  569WAT      O 2995   1.597   3.909   7.173  0.5671 -0.0844  0.0430
  569WAT     H1 2996   1.681   3.890   7.159  0.4313 -1.2351  0.6815
  569WAT     H2 2997   1.561   3.832   7.195 -0.2207  0.7205  1.8404
  569WAT    EPW 2998   1.604   3.895   7.174  0.4307 -0.1355  0.4028
  570WAT      O 2999   1.674   1.292   0.759 -0.2079  0.0316  0.0291
  570WAT     H1 3000   1.737   1.351   0.775 -0.9803  0.6511  0.9171
  570WAT     H2 3001   1.693   1.228   0.815 -0.2781  0.1590  0.2025
  570WAT    EPW 3002   1.686   1.291   0.770 -0.3324  0.1420  0.1859
  571WAT      O 3003   6.258   3.547   0.333  0.1473 -0.3815  0.1730
  571WAT     H1 3004   6.192   3.594   0.302 -0.5689 -0.8486  0.9409
  571WAT     H2 3005   6.304   3.526   0.262 -0.4689  0.0220 -0.3566
  571WAT    EPW 3006   6.255   3.551   0.318 -0.0495 -0.3909  0.2082
  572WAT      O 3007   2.820   3.239   5.424  0.0750 -0.3669  1.0176
  572WAT     H1 3008   2.883   3.234   5.364 -0.5244  0.9006  0.2303
  572WAT     H2 3009   2.840   3.310   5.470 -2.2996  1.9830 -1.2075
  572WAT    EPW 3010   2.832   3.249   5.422 -0.3643  0.1675  0.5726
  573WAT      O 3011   6.008   2.485   0.249  0.3615  0.0498  0.4146
  573WAT     H1 3012   6.006   2.399   0.267  0.1744 -0.2795 -1.0172
  573WAT     H2 3013   6.083   2.511   0.284  1.6452 -1.2447 -1.1670
  573WAT    EPW 3014   6.019   2.476   0.256  0.5235 -0.1901 -0.0305
  574WAT      O 3015   7.224   5.636   0.822 -0.2271  0.1461  0.3057
  574WAT     H1 3016   7.248   5.687   0.756 -0.4980  0.4145  0.4127
  574WAT     H2 3017   7.253   5.679   0.892 -0.8925  0.4047  0.4279
  574WAT    EPW 3018   7.232   5.650   0.823 -0.3654  0.2239  0.3396
  575WAT      O 3019   6.973   5.943   1.022 -0.0327  0.2159 -0.2397
  575WAT     H1 3020   7.039   5.991   0.989 -0.6395  1.0519 -0.2545
  575WAT     H2 3021   6.930   5.998   1.073 -1.4348  0.0337 -1.1567
  575WAT    EPW 3022   6.977   5.958   1.025 -0.3295  0.3125 -0.3774
  576WAT      O 3023   1.903   3.991   6.821 -0.3602 -0.9482  0.0644
  576WAT     H1 3024   1.824   3.981   6.785  0.1688 -0.1017 -1.4115
  576WAT     H2 3025   1.958   3.970   6.757  0.6578  2.9244 -0.5774
  576WAT    EPW 3026   1.900   3.987   6.806 -0.1317 -0.2511 -0.2484
  577WAT      O 3027   5.948   1.371   0.221  0.0113 -0.2335  0.4047
  577WAT     H1 3028   5.870   1.372   0.260 -0.7292  1.2653 -0.9608
  577WAT     H2 3029   5.978   1.291   0.236 -1.8128 -0.8658  0.9503
  577WAT    EPW 3030   5.941   1.360   0.229 -0.3676 -0.1055  0.2836
  578WAT      O 3031   6.328   3.466   5.502 -0.3749 -0.1112  0.0564
  578WAT     H1 3032   6.243   3.471   5.518 -1.4586 -1.3666 -4.0756
  578WAT     H2 3033   6.345   3.540   5.458  0.7246  0.1392  0.8588
  578WAT    EPW 3034   6.318   3.478   5.498 -0.3726 -0.2597 -0.4355
  579WAT      O 3035   3.346   2.889   1.006  0.1145  0.7742  0.4079
  579WAT     H1 3036   3.367   2.824   0.952 -1.0492  0.2507  0.5562
  579WAT     H2 3037   3.343   2.959   0.955 -1.9041  0.1320 -0.4313
  579WAT    EPW 3038   3.349   2.890   0.991 -0.3556  0.6020  0.3059
  580WAT      O 3039   1.917   5.313   2.767 -0.2615  0.0046  0.2174
  580WAT     H1 3040   1.890   5.241   2.726  0.1181 -0.5831  0.9696
  580WAT     H2 3041   1.849   5.367   2.762 -1.4991 -1.3196  1.7768
  580WAT    EPW 3042   1.903   5.311   2.761 -0.3882 -0.2778  0.5589
  581WAT      O 3043   4.123   4.872   5.023 -0.2047 -0.7342 -0.2019
  581WAT     H1 3044   4.178   4.887   4.957 -0.1953 -0.6458 -0.1748
  581WAT     H2 3045   4.044   4.879   4.987 -0.1989 -1.6675 -0.4151
  581WAT    EPW 3046   4.120   4.875   5.008 -0.2025 -0.8590 -0.2294
  582WAT      O 3047   3.343   1.416   3.890 -0.0789  0.5094 -0.2198
  582WAT     H1 3048   3.288   1.482   3.899 -1.2350 -0.2174 -1.5255
  582WAT     H2 3049   3.291   1.347   3.876  1.1155  0.0192 -2.9329
  582WAT    EPW 3050   3.327   1.415   3.889 -0.0733  0.3296 -0.8135
  583WAT      O 3051   3.728   4.964   3.476 -0.8757  0.8282 -0.5523
  583WAT     H1 3052   3.712   5.049   3.469 -2.7896  0.5870  0.4101
  583WAT     H2 3053   3.749   4.953   3.560  0.4423  0.4726 -0.8945
  583WAT    EPW 3054   3.729   4.975   3.487 -0.9637  0.7400 -0.4606
  584WAT      O 3055   1.574   5.349   7.030 -0.3359 -0.3962 -0.1320
  584WAT     H1 3056   1.604   5.401   7.094 -1.0299  0.3204 -0.3893
  584WAT     H2 3057   1.520   5.400   6.985 -2.1958 -1.7402  0.4776
  584WAT    EPW 3058   1.571   5.364   7.033 -0.7131 -0.4889 -0.0799
  585WAT      O 3059   1.880   4.951   4.732  0.1160 -0.2267 -0.5560
  585WAT     H1 3060   1.924   4.879   4.712 -0.4698 -0.5090 -0.8218
  585WAT     H2 3061   1.921   4.980   4.804  0.4857 -0.7005 -0.5717
  585WAT    EPW 3062   1.893   4.945   4.740  0.0841 -0.3384 -0.5976
  586WAT      O 3063   1.354   7.147   1.835  0.1226 -0.0896 -0.3759
  586WAT     H1 3064   1.415   7.086   1.849  1.6679  1.6071  0.7727
  586WAT     H2 3065   1.321   7.163   1.914 -1.6005 -0.6886 -0.9209
  586WAT    EPW 3066   1.358   7.140   1.848  0.0963  0.0725 -0.2867
  587WAT      O 3067   0.525   4.271   2.516  0.0274  0.1522 -0.6543
  587WAT     H1 3068   0.458   4.269   2.461  0.8756 -0.6289 -1.7039
  587WAT     H2 3069   0.592   4.244   2.468  0.3854 -2.9866  1.3228
  587WAT    EPW 3070   0.525   4.267   2.501  0.2056 -0.4269 -0.5173
  588WAT      O 3071   5.498   3.943   1.741 -0.6951 -0.2467 -0.6467
  588WAT     H1 3072   5.542   3.903   1.804 -2.1259  1.0996  1.3367
  588WAT     H2 3073   5.450   3.879   1.706 -0.0665 -0.9805 -0.1919
  588WAT    EPW 3074   5.497   3.928   1.745 -0.8136 -0.1563 -0.2865
  589WAT      O 3075   2.111   4.102   6.972  0.0727  0.0400 -0.3611
  589WAT     H1 3076   2.033   4.071   6.951  0.2455 -0.8301  0.2183
  589WAT     H2 3077   2.131   4.059   7.045  1.1389  0.1594 -0.5656
  589WAT    EPW 3078   2.103   4.091   6.980  0.2558 -0.0709 -0.3057
  590WAT      O 3079   4.858   3.681   5.094 -0.4626 -0.1512  0.7217
  590WAT     H1 3080   4.868   3.748   5.038  1.0449  1.7077  3.0284
  590WAT     H2 3081   4.930   3.633   5.081  0.3184  0.7474  1.5940
  590WAT    EPW 3082   4.870   3.684   5.084 -0.1245  0.2561  1.1913
  591WAT      O 3083   0.813   1.746   2.278 -0.0901 -0.0184  0.8298
  591WAT     H1 3084   0.858   1.794   2.334 -0.3247  1.1247  0.0634
  591WAT     H2 3085   0.863   1.675   2.268  1.9194  1.4493 -0.4306
  591WAT    EPW 3086   0.827   1.742   2.285  0.1721  0.3673  0.5304
  592WAT      O 3087   1.132   0.476   3.817  0.9243 -0.5133 -0.2448
  592WAT     H1 3088   1.208   0.492   3.856  1.2361 -0.1170 -1.0023
  592WAT     H2 3089   1.136   0.522   3.743  0.7879 -2.0337 -1.2547
  592WAT    EPW 3090   1.144   0.485   3.811  0.9502 -0.6794 -0.5059
  593WAT      O 3091   6.663   6.590   5.970 -0.3192 -0.8663  0.1359
  593WAT     H1 3092   6.743   6.577   5.937  0.7685  0.4465  2.0560
  593WAT     H2 3093   6.649   6.517   6.017 -0.5155 -1.3353 -0.6279
  593WAT    EPW 3094   6.673   6.577   5.972 -0.1876 -0.7416  0.3067
  594WAT      O 3095   5.129   0.789   6.967  0.3153 -0.3700  0.2978
  594WAT     H1 3096   5.174   0.760   6.898 -0.9039 -1.8243  0.0552
  594WAT     H2 3097   5.159   0.740   7.033 -0.1018 -0.5586  0.3495
  594WAT    EPW 3098   5.140   0.778   6.966  0.0736 -0.6127  0.2696
  595WAT      O 3099   1.559   4.747   2.619 -0.1385 -0.0088  0.1735
  595WAT     H1 3100   1.532   4.670   2.586 -0.4411  0.0365  0.3098
  595WAT     H2 3101   1.615   4.776   2.559 -0.6968  0.0829 -0.3235
  595WAT    EPW 3102   1.563   4.740   2.605 -0.2657  0.0115  0.1202
  596WAT      O 3103   7.108   4.426   2.103 -0.0861  0.7073  0.5638
  596WAT     H1 3104   7.125   4.341   2.108 -0.6160  0.6146  0.8558
  596WAT     H2 3105   7.138   4.449   2.024 -0.4350  0.1354  0.2591
  596WAT    EPW 3106   7.115   4.417   2.092 -0.2159  0.6091  0.5619
  597WAT      O 3107   0.892   5.424   6.926 -0.3002  0.7651 -0.4017
  597WAT     H1 3108   0.825   5.409   6.980  0.2470  0.6102  0.2390
  597WAT     H2 3109   0.922   5.502   6.951  1.5895 -0.4178  1.2875
  597WAT    EPW 3110   0.886   5.433   6.938  0.0598  0.5675 -0.0575
  598WAT      O 3111   5.587   1.263   1.260  0.0209 -0.4131 -0.1503
  598WAT     H1 3112   5.552   1.184   1.267  0.7748 -0.8562 -1.1426
  598WAT     H2 3113   5.610   1.283   1.342 -3.3519  0.3201  0.7456
  598WAT    EPW 3114   5.585   1.254   1.273 -0.3659 -0.3703 -0.1645
  599WAT      O 3115   5.513   3.267   5.468 -0.4072 -0.4978 -0.0215
  599WAT     H1 3116   5.563   3.246   5.399 -0.8076 -0.9923 -0.1744
  599WAT     H2 3117   5.570   3.286   5.531 -0.0088  2.0547 -1.0598
  599WAT    EPW 3118   5.528   3.266   5.467 -0.4075 -0.1938 -0.1975
  600WAT      O 3119   4.588   5.258   0.538  0.1434  0.6321 -0.6317
  600WAT     H1 3120   4.637   5.242   0.608  0.4540  0.6622 -0.8397
  600WAT     H2 3121   4.562   5.340   0.550 -1.4943  0.0049  0.4594
  600WAT    EPW 3122   4.592   5.268   0.550 -0.0526  0.5439 -0.5012
  601WAT      O 3123   6.952   1.040   3.040 -0.7325 -0.3155  0.0880
  601WAT     H1 3124   6.956   0.978   2.979  2.6029  0.5860 -0.8392
  601WAT     H2 3125   6.867   1.057   3.046 -1.5117 -2.8541 -1.7695
  601WAT    EPW 3126   6.940   1.033   3.032 -0.3549 -0.5573 -0.3233
  602WAT      O 3127   6.850   2.505   2.961  0.5659 -0.2827 -0.0030
  602WAT     H1 3128   6.785   2.448   2.951 -0.0388  0.5173 -0.7306
  602WAT     H2 3129   6.861   2.539   2.882 -0.8175  2.4619  0.8736
  602WAT    EPW 3130   6.842   2.501   2.948  0.2722  0.2409  0.0190
  603WAT      O 3131   0.508   2.728   6.996 -0.4460 -0.0523  0.1378
  603WAT     H1 3132   0.507   2.642   6.979 -1.9878 -0.0837  0.1889
  603WAT     H2 3133   0.454   2.735   7.064 -1.1425  1.0614 -0.4961
  603WAT    EPW 3134   0.500   2.716   7.004 -0.7766  0.1076  0.0517
  604WAT      O 3135   6.052   4.897   2.116  0.0881 -0.1095  0.1875
  604WAT     H1 3136   6.050   4.926   2.034  0.3991  0.6780  0.4548
  604WAT     H2 3137   6.051   4.810   2.107 -0.5352 -0.0281 -0.6239
  604WAT    EPW 3138   6.051   4.888   2.103  0.0419  0.0189  0.1071
  605WAT      O 3139   0.886   3.466   4.150 -0.3238  0.2781  0.1686
  605WAT     H1 3140   0.928   3.542   4.140 -0.9295  0.5012 -0.8019
  605WAT     H2 3141   0.924   3.414   4.091  0.3310 -0.2950  1.0720
  605WAT    EPW 3142   0.898   3.470   4.140 -0.3166  0.2264  0.1587
  606WAT      O 3143   6.449   1.406   1.425  0.2828 -0.0024 -1.0043
  606WAT     H1 3144   6.522   1.431   1.384 -0.6016  1.5184 -1.7496
  606WAT     H2 3145   6.437   1.324   1.398  1.4848 -0.1353 -1.1780
  606WAT    EPW 3146   6.458   1.398   1.415  0.3297  0.2026 -1.1401
  607WAT      O 3147   1.272   1.725   7.308  0.2084  0.0565  0.1470
  607WAT     H1 3148   1.239   1.731   7.389  0.6223 -1.2137  0.4359
  607WAT     H2 3149   1.203   1.702   7.260 -0.0072  0.6729  0.1466
  607WAT    EPW 3150   1.257   1.722   7.313  0.2377 -0.0401  0.1896
  608WAT      O 3151   4.220   1.265   2.895 -0.3213 -0.0732 -0.1853
  608WAT     H1 3152   4.183   1.203   2.944  0.1765  0.1181  0.4501
  608WAT     H2 3153   4.279   1.301   2.948  1.5913 -1.1121 -1.5002
  608WAT    EPW 3154   4.223   1.261   2.910  0.0348 -0.1984 -0.2856
  609WAT      O 3155   4.826   2.137   0.694 -0.1264  0.2638 -0.3027
  609WAT     H1 3156   4.911   2.127   0.708  0.0649  0.4867 -1.2162
  609WAT     H2 3157   4.823   2.179   0.617 -1.0923 -1.6432 -1.3743
  609WAT    EPW 3158   4.838   2.142   0.684 -0.2408  0.0150 -0.5959
  610WAT      O 3159   2.073   3.435   1.708  0.8719 -0.0169  0.3863
  610WAT     H1 3160   2.015   3.482   1.662  1.2975 -1.0259 -1.2388
  610WAT     H2 3161   2.022   3.380   1.754  0.5031 -0.3654 -0.4248
  610WAT    EPW 3162   2.057   3.434   1.708  0.8803 -0.2174  0.0264
  611WAT      O 3163   3.637   0.109   0.987 -0.7628 -0.0725 -0.5648
  611WAT     H1 3164   3.659   0.126   0.904 -0.9706 -1.3661 -0.8917
  611WAT     H2 3165   3.710   0.129   1.031  0.4050 -2.2220 -1.4026
  611WAT    EPW 3166   3.651   0.115   0.981 -0.6210 -0.5811 -0.7368
  612WAT      O 3167   1.784   3.725   6.233 -0.2540 -0.2977 -0.3114
  612WAT     H1 3168   1.702   3.709   6.208 -0.0249 -0.5308 -0.9374
  612WAT     H2 3169   1.831   3.666   6.189  0.4131  0.8461 -1.2270
  612WAT    EPW 3170   1.779   3.714   6.223 -0.1216 -0.1631 -0.5391
  613WAT      O 3171   2.689   6.402   2.943 -0.1708 -0.4304  0.0750
  613WAT     H1 3172   2.721   6.388   2.863 -1.6417  0.8277 -0.7953
  613WAT     H2 3173   2.637   6.471   2.932  0.0550  0.1492  2.2705
  613WAT    EPW 3174   2.686   6.410   2.929 -0.3547 -0.1589  0.2708
  614WAT      O 3175   3.551   1.833   5.321  0.4260 -0.1430 -0.0428
  614WAT     H1 3176   3.600   1.897   5.289  0.4836 -0.7847 -1.3301
  614WAT     H2 3177   3.591   1.811   5.395  0.4229  1.2620  0.4050
  614WAT    EPW 3178   3.564   1.839   5.327  0.4341 -0.0303 -0.1668
  615WAT      O 3179   4.655   6.875   2.874  0.5690  0.4770  0.3159
  615WAT     H1 3180   4.650   6.840   2.794 -0.9103  1.0006  0.1464
  615WAT     H2 3181   4.580   6.919   2.882  0.0858 -0.6060  2.4903
  615WAT    EPW 3182   4.643   6.876   2.863  0.2791  0.3944  0.6121
  616WAT      O 3183   6.589   6.502   2.205  0.0087  0.5521  0.1136
  616WAT     H1 3184   6.523   6.472   2.156 -0.7098 -0.7682  1.7911
  616WAT     H2 3185   6.572   6.587   2.214 -0.1647  0.6926 -1.3792
  616WAT    EPW 3186   6.577   6.510   2.199 -0.1231  0.3778  0.1409
  617WAT      O 3187   5.859   5.172   5.992  0.8088  0.0582 -0.0144
  617WAT     H1 3188   5.873   5.255   5.969 -0.6855  0.5851  0.8032
  617WAT     H2 3189   5.854   5.176   6.080  0.8382 -0.9174  0.0443
  617WAT    EPW 3190   5.861   5.185   6.002  0.5924 -0.0081  0.1150
  618WAT      O 3191   0.068   7.151   3.448  0.0635  0.0410  0.8216
  618WAT     H1 3192   0.091   7.142   3.365 -0.3324 -0.6608  0.7744
  618WAT     H2 3193   0.126   7.207   3.480  1.8046 -1.5858  0.6965
  618WAT    EPW 3194   0.080   7.158   3.441  0.2622 -0.3030  0.7961
  619WAT      O 3195   7.149   4.192   6.254 -0.1724 -0.2843  0.2267
  619WAT     H1 3196   7.149   4.112   6.219  0.6733 -0.0626 -0.3142
  619WAT     H2 3197   7.066   4.217   6.246 -0.2101 -0.6498 -0.7047
  619WAT    EPW 3198   7.137   4.184   6.248 -0.0530 -0.3056  0.0092
  620WAT      O 3199   6.133   5.642   3.564  0.1926 -0.2156 -0.0477
  620WAT     H1 3200   6.081   5.644   3.634 -1.2724  0.0240 -1.1022
  620WAT     H2 3201   6.203   5.597   3.592 -0.0892  0.3733  1.7156
  620WAT    EPW 3202   6.136   5.636   3.578 -0.0654 -0.0932  0.0570
  621WAT      O 3203   4.572   5.357   1.850  0.0999  0.5693 -0.0272
  621WAT     H1 3204   4.652   5.327   1.834  0.8087  2.1416  0.3818
  621WAT     H2 3205   4.522   5.287   1.841  1.4617 -0.3545 -0.7622
  621WAT    EPW 3206   4.577   5.342   1.847  0.4058  0.6651 -0.0754
  622WAT      O 3207   1.563   6.554   5.650  0.1440  0.3654  0.6642
  622WAT     H1 3208   1.649   6.563   5.663  0.9868 -2.2577 -2.0508
  622WAT     H2 3209   1.537   6.507   5.719  0.7509  1.4876  1.7036
  622WAT    EPW 3210   1.572   6.548   5.662  0.3582  0.1437  0.4167
  623WAT      O 3211   4.516   1.633   6.034 -0.1408  0.5137 -0.1851
  623WAT     H1 3212   4.588   1.664   5.996 -0.2350  1.6434  0.4949
  623WAT     H2 3213   4.538   1.629   6.119 -0.6383  0.1618 -0.0689
  623WAT    EPW 3214   4.530   1.637   6.041 -0.2282  0.6286 -0.0674
  624WAT      O 3215   2.398   4.896   6.594  0.0703  0.2546  0.2193
  624WAT     H1 3216   2.445   4.841   6.642 -2.0239 -0.7736  1.2118
  624WAT     H2 3217   2.379   4.961   6.649 -0.6651  0.0492  0.2254
  624WAT    EPW 3218   2.402   4.897   6.609 -0.3477  0.0724  0.3668
  625WAT      O 3219   0.301   2.477   5.034 -0.0993  0.7309  0.6602
  625WAT     H1 3220   0.238   2.537   5.035  0.0611  0.9240  2.9348
  625WAT     H2 3221   0.258   2.401   5.029 -0.4334  0.9080  0.8780
  625WAT    EPW 3222   0.286   2.474   5.033 -0.1249  0.7856  1.0283
  626WAT      O 3223   3.433   2.209   5.508 -0.0121  0.7684  0.3759
  626WAT     H1 3224   3.426   2.204   5.421 -0.6248  0.2260  0.4461
  626WAT     H2 3225   3.379   2.147   5.537 -0.7783  1.7609  1.1653
  626WAT    EPW 3226   3.424   2.199   5.500 -0.2158  0.8349  0.5029
  627WAT      O 3227   5.148   6.773   0.747 -0.0590 -0.3661 -0.3077
  627WAT     H1 3228   5.158   6.790   0.832  3.6455 -2.0009 -0.1952
  627WAT     H2 3229   5.185   6.843   0.708 -1.6619  0.3345 -0.6495
  627WAT    EPW 3230   5.155   6.786   0.754  0.2515 -0.5041 -0.3415
  628WAT      O 3231   3.322   0.771   5.308  0.4170 -0.0546  0.3059
  628WAT     H1 3232   3.270   0.727   5.254  0.3577  1.2558 -0.7642
  628WAT     H2 3233   3.287   0.758   5.387  0.1473 -1.5027 -0.0293
  628WAT    EPW 3234   3.309   0.762   5.312  0.3684 -0.0750  0.0983
  629WAT      O 3235   0.417   5.263   1.363  0.0838  0.1028  0.3613
  629WAT     H1 3236   0.359   5.197   1.366  2.3268 -2.0792 -0.5014
  629WAT     H2 3237   0.411   5.292   1.281  0.0921 -0.0191  0.3172
  629WAT    EPW 3238   0.407   5.257   1.351  0.4164 -0.2375  0.2273
  630WAT      O 3239   0.378   6.959   2.455 -0.0633  0.0459  0.1117
  630WAT     H1 3240   0.381   6.900   2.391  1.5293 -0.9817  1.0319
  630WAT     H2 3241   0.341   7.028   2.419  0.0553 -0.7753 -1.6758
  630WAT    EPW 3242   0.373   6.960   2.440  0.1895 -0.2272 -0.0164
  631WAT      O 3243   3.757   1.365   0.546  0.0073 -0.8451 -0.1162
  631WAT     H1 3244   3.821   1.318   0.582  0.2151 -0.0761  0.5508
  631WAT     H2 3245   3.753   1.437   0.595 -1.4621 -0.9208 -0.0672
  631WAT    EPW 3246   3.766   1.369   0.558 -0.1791 -0.7427 -0.0104
  632WAT      O 3247   1.881   0.297   6.763  0.7035 -0.1343 -0.4712
  632WAT     H1 3248   1.887   0.212   6.743  0.3112  0.1337 -1.8353
  632WAT     H2 3249   1.957   0.314   6.801  0.4483 -1.2828  0.6483
  632WAT    EPW 3250   1.893   0.287   6.765  0.6079 -0.2644 -0.5073
  633WAT      O 3251   6.347   0.536   5.927  0.1554 -0.2221 -0.1662
  633WAT     H1 3252   6.369   0.457   5.898  1.5153 -0.3421  1.0934
  633WAT     H2 3253   6.358   0.587   5.857  1.2419 -0.8277 -0.4598
  633WAT    EPW 3254   6.352   0.532   5.913  0.5168 -0.3293 -0.0235
  634WAT      O 3255   1.583   2.682   0.828  0.3512 -0.2716  0.3974
  634WAT     H1 3256   1.603   2.750   0.879  0.3697  0.1603 -0.1790
  634WAT     H2 3257   1.520   2.641   0.872 -1.3628  1.4280 -0.3215
  634WAT    EPW 3258   1.577   2.686   0.842  0.1007  0.0433  0.2061
  635WAT      O 3259   4.554   0.354   5.169  0.8679  0.3602 -0.1247
  635WAT     H1 3260   4.486   0.311   5.136  0.7323  1.2345 -1.0155
  635WAT     H2 3261   4.537   0.356   5.255 -0.2109  0.5267 -0.3249
  635WAT    EPW 3262   4.542   0.348   5.177  0.6885  0.5140 -0.2859
  636WAT      O 3263   6.233   4.078   1.308  0.2371  0.6840  0.3074
  636WAT     H1 3264   6.303   4.040   1.344 -1.1067 -1.1683  1.1211
  636WAT     H2 3265   6.266   4.150   1.269  2.5015  0.0567  0.9310
  636WAT    EPW 3266   6.248   4.083   1.308  0.3731  0.3177  0.5198
  637WAT      O 3267   5.359   4.347   0.476  0.6556  0.4437  0.4870
  637WAT     H1 3268   5.394   4.427   0.469  2.4032 -0.3123  0.0349
  637WAT     H2 3269   5.412   4.297   0.427 -0.4354 -0.9881  0.7006
  637WAT    EPW 3270   5.372   4.351   0.468  0.7526  0.1205  0.4517
  638WAT      O 3271   0.642   5.333   1.006 -0.1675 -0.0373  0.0833
  638WAT     H1 3272   0.650   5.405   0.957 -0.1759 -0.3092 -0.3158
  638WAT     H2 3273   0.715   5.334   1.055  0.9061 -0.8936 -1.4221
  638WAT    EPW 3274   0.654   5.344   1.006 -0.0101 -0.2040 -0.1980
  639WAT      O 3275   1.123   3.966   2.054 -0.0542 -0.2295  0.1575
  639WAT     H1 3276   1.064   3.970   2.118  0.6244 -1.8008  0.9314
  639WAT     H2 3277   1.180   4.028   2.075 -1.4193  1.3871 -0.6595
  639WAT    EPW 3278   1.123   3.975   2.067 -0.1556 -0.2228  0.1511
  640WAT      O 3279   0.943   5.042   3.511 -0.0488  0.0339 -0.8362
  640WAT     H1 3280   0.967   5.126   3.508  0.3585  0.1253  2.2614
  640WAT     H2 3281   0.878   5.038   3.454 -0.4505  2.6018 -0.6965
  640WAT    EPW 3282   0.937   5.054   3.502 -0.0480  0.4267 -0.3579
  641WAT      O 3283   0.134   5.878   0.064  0.6086 -0.2458 -0.3080
  641WAT     H1 3284   0.151   5.944   0.009  2.2862 -0.2711  0.1181
  641WAT     H2 3285   0.085   5.824   0.016 -1.0892  1.4076 -0.5792
  641WAT    EPW 3286   0.129   5.880   0.049  0.6056 -0.0053 -0.2851
  642WAT      O 3287   1.797   4.798   1.814 -0.0732 -0.3911 -0.0580
  642WAT     H1 3288   1.716   4.766   1.806 -0.1422 -0.4462  0.8034
  642WAT     H2 3289   1.842   4.732   1.847  0.1331 -0.1045  0.2413
  642WAT    EPW 3290   1.791   4.784   1.818 -0.0529 -0.3569  0.1135
  643WAT      O 3291   5.698   0.871   4.081 -0.1393  0.0458 -0.1368
  643WAT     H1 3292   5.761   0.890   4.024  0.8502  2.5722  1.5869
  643WAT     H2 3293   5.629   0.914   4.050 -0.0727  0.0578 -0.2710
  643WAT    EPW 3294   5.697   0.880   4.068  0.0167  0.4208  0.0980
  644WAT      O 3295   3.014   6.651   4.645 -0.2923 -0.1895 -0.6882
  644WAT     H1 3296   2.951   6.594   4.664  0.4668 -1.6169 -2.2497
  644WAT     H2 3297   3.088   6.608   4.662  0.3231 -0.0781 -2.7847
  644WAT    EPW 3298   3.016   6.636   4.650 -0.0893 -0.3839 -1.2285
  645WAT      O 3299   1.573   1.961   4.058  0.5698  0.2040  0.0670
  645WAT     H1 3300   1.509   2.019   4.048  1.7276  1.7634  1.2418
  645WAT     H2 3301   1.593   1.966   4.143  1.4702 -1.0838 -0.0338
  645WAT    EPW 3302   1.567   1.970   4.069  0.8738  0.2441  0.2257
  646WAT      O 3303   4.187   0.755   1.794 -0.0991 -0.9202  0.1317
  646WAT     H1 3304   4.122   0.762   1.851  1.5420 -2.2486  2.3379
  646WAT     H2 3305   4.228   0.832   1.800 -0.4329 -0.7375  0.0847
  646WAT    EPW 3306   4.184   0.768   1.803  0.0940 -1.0895  0.4506
  647WAT      O 3307   1.916   5.336   5.823  0.0983 -0.2936 -0.0630
  647WAT     H1 3308   1.834   5.343   5.851  0.3563  1.0235  0.4433
  647WAT     H2 3309   1.910   5.284   5.753 -1.1723 -0.1781 -0.0592
  647WAT    EPW 3310   1.903   5.330   5.816 -0.0513 -0.0820  0.0123
  648WAT      O 3311   6.848   1.024   1.629 -0.4169 -0.3218 -0.0663
  648WAT     H1 3312   6.801   1.061   1.566  1.3267 -0.4911 -1.5603
  648WAT     H2 3313   6.835   1.076   1.698 -3.8682 -1.1653  0.0936
  648WAT    EPW 3314   6.839   1.038   1.630 -0.6691 -0.4714 -0.2634
  649WAT      O 3315   5.795   0.400   2.166 -0.0286 -0.1428  0.1598
  649WAT     H1 3316   5.852   0.463   2.187  1.3125 -2.1747  3.4753
  649WAT     H2 3317   5.718   0.435   2.184  0.6846  0.5869  2.0943
  649WAT    EPW 3318   5.792   0.414   2.172  0.2749 -0.3352  0.9353
  650WAT      O 3319   4.621   0.329   0.745 -0.0961 -0.5166 -0.7052
  650WAT     H1 3320   4.650   0.254   0.777  1.7493  0.5289  0.2056
  650WAT     H2 3321   4.591   0.372   0.815  0.7424  0.3949 -0.8791
  650WAT    EPW 3322   4.621   0.324   0.760  0.3004 -0.2275 -0.5964
  651WAT      O 3323   1.165   1.226   5.972  0.0706  0.1799 -0.6876
  651WAT     H1 3324   1.199   1.232   5.892 -0.8593 -0.7436 -1.1757
  651WAT     H2 3325   1.084   1.198   5.958  0.1244 -0.7331  0.6198
  651WAT    EPW 3326   1.158   1.222   5.958 -0.0588 -0.0914 -0.5666
  652WAT      O 3327   5.596   1.835   4.633  0.1679 -0.5277  0.4664
  652WAT     H1 3328   5.591   1.899   4.693 -1.4632 -0.5385  0.4100
  652WAT     H2 3329   5.654   1.779   4.666  0.7894  0.4367  1.0558
  652WAT    EPW 3330   5.604   1.836   4.646  0.0188 -0.3868  0.5452
  653WAT      O 3331   1.596   2.481   4.671 -0.4238  0.4204  0.1357
  653WAT     H1 3332   1.650   2.524   4.725 -0.8061  1.1506 -0.0538
  653WAT     H2 3333   1.618   2.398   4.683  1.4854  0.7392 -0.6913
  653WAT    EPW 3334   1.607   2.475   4.681 -0.1983  0.5753 -0.0145
  654WAT      O 3335   1.648   1.703   7.053 -0.2187 -0.5702 -0.1033
  654WAT     H1 3336   1.707   1.746   7.101 -1.0246 -0.3638  0.7093
  654WAT     H2 3337   1.628   1.760   6.990  1.1114 -0.9746 -0.9508
  654WAT    EPW 3338   1.654   1.718   7.050 -0.1413 -0.5994 -0.1084
  655WAT      O 3339   1.252   2.271   4.188  0.0585 -0.4742  0.0940
  655WAT     H1 3340   1.259   2.358   4.189  0.6742 -0.5264  0.8504
  655WAT     H2 3341   1.325   2.244   4.227  0.4934 -1.3800 -1.3071
  655WAT    EPW 3342   1.264   2.280   4.194  0.2137 -0.6157 -0.0012
  656WAT      O 3343   1.165   4.940   1.498 -0.5650  0.1988 -0.5239
  656WAT     H1 3344   1.135   5.022   1.501 -0.5721  0.3565 -3.0300
  656WAT     H2 3345   1.228   4.943   1.438 -0.3804 -1.5920 -0.4709
  656WAT    EPW 3346   1.170   4.953   1.489 -0.5388 -0.0424 -0.8863
  657WAT      O 3347   0.559   3.371   1.183 -0.1329 -0.0387 -0.3556
  657WAT     H1 3348   0.558   3.289   1.152  3.5588  0.2298 -1.7802
  657WAT     H2 3349   0.559   3.360   1.270 -4.4124 -1.1306 -0.2778
  657WAT    EPW 3350   0.559   3.357   1.191 -0.2197 -0.1603 -0.5546
  658WAT      O 3351   6.836   3.011   4.911  0.4376 -0.1035  0.2802
  658WAT     H1 3352   6.879   2.936   4.897  1.4103  0.4399  0.2175
  658WAT     H2 3353   6.901   3.069   4.920 -0.3006  1.0064 -1.2108
  658WAT    EPW 3354   6.852   3.009   4.911  0.4722  0.1407  0.0507
  659WAT      O 3355   1.401   0.837   4.689 -0.7810  0.5337  0.2915
  659WAT     H1 3356   1.341   0.811   4.631  0.2984 -0.6640 -0.3620
  659WAT     H2 3357   1.355   0.867   4.756 -2.0815  1.1956 -0.8702
  659WAT    EPW 3358   1.386   0.838   4.690 -0.8137  0.4546  0.0234
  660WAT      O 3359   3.967   0.623   0.663 -0.1829  0.4274 -0.0498
  660WAT     H1 3360   3.887   0.638   0.632 -0.7562 -2.7933 -0.4601
  660WAT     H2 3361   4.020   0.647   0.597 -0.8077  1.9309 -0.0357
  660WAT    EPW 3362   3.963   0.629   0.649 -0.3599  0.1737 -0.1083
  661WAT      O 3363   6.222   5.980   5.014 -0.1373  0.0985  0.1249
  661WAT     H1 3364   6.214   5.966   5.100 -1.3410 -0.2137 -0.0181
  661WAT     H2 3365   6.292   6.031   5.008  0.4510 -0.5245  1.2276
  661WAT    EPW 3366   6.231   5.985   5.026 -0.2282 -0.0396  0.2667
  662WAT      O 3367   4.222   5.823   0.116  0.1563  0.6222  0.2950
  662WAT     H1 3368   4.207   5.885   0.057 -0.4322  0.2628  0.0639
  662WAT     H2 3369   4.163   5.762   0.098 -0.4498  0.7703  1.6198
  662WAT    EPW 3370   4.211   5.823   0.105 -0.0202  0.5910  0.4566
  663WAT      O 3371   4.876   4.178   2.059 -0.0302 -0.0339  0.1001
  663WAT     H1 3372   4.846   4.132   1.991 -1.5148  0.1506  0.5855
  663WAT     H2 3373   4.811   4.233   2.077  1.5114  1.9909 -0.1763
  663WAT    EPW 3374   4.862   4.179   2.052 -0.0217  0.2924  0.1310
  664WAT      O 3375   3.068   0.053   4.947  0.1050  0.2820 -0.4089
  664WAT     H1 3376   3.030   0.075   4.872  0.4398 -0.2715 -0.7551
  664WAT     H2 3377   3.018   0.090   5.008 -0.1125  0.8211 -0.9098
  664WAT    EPW 3378   3.055   0.062   4.945  0.1224  0.2799 -0.5341
  665WAT      O 3379   4.714   1.116   3.966  0.1754  0.1957  0.3480
  665WAT     H1 3380   4.745   1.103   4.046 -0.3825 -2.3400  0.2350
  665WAT     H2 3381   4.637   1.076   3.966  0.0974  0.2488 -1.4290
  665WAT    EPW 3382   4.707   1.109   3.978  0.0815 -0.1711  0.0688
  666WAT      O 3383   0.517   5.112   6.600 -0.4157  0.3179  0.2637
  666WAT     H1 3384   0.550   5.039   6.566 -0.3311  0.7640 -0.6227
  666WAT     H2 3385   0.560   5.121   6.676 -0.3938 -0.5169  0.3524
  666WAT    EPW 3386   0.528   5.103   6.606 -0.4000  0.2605  0.1459
  667WAT      O 3387   2.105   6.026   6.922 -0.0669 -0.2130 -0.0468
  667WAT     H1 3388   2.070   6.093   6.966  1.5619 -0.0605  1.0956
  667WAT     H2 3389   2.048   6.012   6.858  0.2137  3.1894 -1.2444
  667WAT    EPW 3390   2.091   6.034   6.919  0.2151  0.3122 -0.0550
  668WAT      O 3391   3.814   2.501   3.983  0.0690 -0.1181 -0.3119
  668WAT     H1 3392   3.763   2.571   3.971 -0.2458  0.0615  1.6742
  668WAT     H2 3393   3.760   2.434   3.965 -0.5209  0.1037  0.5618
  668WAT    EPW 3394   3.798   2.501   3.979 -0.0646 -0.0588  0.1105
  669WAT      O 3395   2.176   4.997   4.573  0.0113 -0.5667 -0.0408
  669WAT     H1 3396   2.225   5.056   4.532  0.8860 -0.8652  0.5364
  669WAT     H2 3397   2.095   5.027   4.563  0.5275  3.6824  4.5014
  669WAT    EPW 3398   2.171   5.010   4.566  0.2168  0.0169  0.7154
  670WAT      O 3399   1.855   6.677   0.623  0.8152 -0.0436  0.0362
  670WAT     H1 3400   1.877   6.690   0.706 -0.6079 -1.1439  0.6214
  670WAT     H2 3401   1.924   6.708   0.579  1.0824  1.6865  1.5506
  670WAT    EPW 3402   1.869   6.684   0.629  0.6445  0.0495  0.3464
  671WAT      O 3403   5.607   4.422   5.041  0.1496  0.3190  0.4827
  671WAT     H1 3404   5.693   4.417   5.057 -0.0483 -0.7603  1.3305
  671WAT     H2 3405   5.602   4.415   4.954  1.0916  3.5990  0.0240
  671WAT    EPW 3406   5.619   4.420   5.031  0.2595  0.6441  0.5402
  672WAT      O 3407   2.144   6.462   2.098  0.1732 -0.5189 -0.0781
  672WAT     H1 3408   2.147   6.506   2.173  3.1803 -1.1884  0.3325
  672WAT     H2 3409   2.139   6.524   2.038 -2.4402  0.0294  0.5530
  672WAT    EPW 3410   2.144   6.478   2.101  0.2313 -0.5368  0.0758
  673WAT      O 3411   3.051   2.356   5.115 -0.4099  0.1268 -0.7781
  673WAT     H1 3412   3.087   2.280   5.138  0.0101  0.5504 -0.0273
  673WAT     H2 3413   3.089   2.375   5.039  1.9677  1.1907  0.5700
  673WAT    EPW 3414   3.062   2.348   5.107  0.0033  0.3466 -0.4680
  674WAT      O 3415   6.869   5.403   0.222 -0.0125  0.0044 -0.1468
  674WAT     H1 3416   6.824   5.464   0.265  0.5281  1.0382 -1.0088
  674WAT     H2 3417   6.902   5.353   0.285 -1.4094 -0.1039  0.5374
  674WAT    EPW 3418   6.867   5.405   0.237 -0.1390  0.1411 -0.1731
  675WAT      O 3419   5.115   6.796   1.704 -0.4941 -0.0261  0.0763
  675WAT     H1 3420   5.073   6.784   1.780 -0.3335 -1.0508  0.0134
  675WAT     H2 3421   5.068   6.858   1.664  1.9123  4.1920  2.8971
  675WAT    EPW 3422   5.102   6.803   1.710 -0.1149  0.4457  0.4837
  676WAT      O 3423   3.395   3.157   0.848  0.9320 -0.6587  0.5899
  676WAT     H1 3424   3.386   3.216   0.912  1.9816 -1.4917  1.5578
  676WAT     H2 3425   3.477   3.170   0.821  0.6314 -0.5979 -0.3197
  676WAT    EPW 3426   3.406   3.167   0.854  1.0426 -0.7727  0.5985
  677WAT      O 3427   2.781   0.295   4.233 -0.0956  0.3640 -0.0440
  677WAT     H1 3428   2.745   0.256   4.303 -0.0467 -1.7197 -1.1136
  677WAT     H2 3429   2.773   0.236   4.170  3.1157  0.7111 -0.9466
  677WAT    EPW 3430   2.774   0.281   4.234  0.3860  0.1075 -0.3354
  678WAT      O 3431   2.932   2.189   2.532  0.3428 -0.2900 -0.6585
  678WAT     H1 3432   2.864   2.220   2.576  0.6692 -0.0526 -0.3128
  678WAT     H2 3433   2.915   2.210   2.449  1.6655  3.0529 -0.2563
  678WAT    EPW 3434   2.920   2.197   2.526  0.5864  0.2389 -0.5480
  679WAT      O 3435   2.239   0.311   4.666 -0.2208 -0.4289 -0.0061
  679WAT     H1 3436   2.190   0.246   4.635 -0.1548  0.0010 -1.0549
  679WAT     H2 3437   2.193   0.340   4.734 -1.0893 -0.4685 -0.5599
  679WAT    EPW 3438   2.225   0.305   4.671 -0.3393 -0.3712 -0.2429
  680WAT      O 3439   0.326   1.032   0.666 -0.3040  0.4787 -0.4070
  680WAT     H1 3440   0.407   1.037   0.699 -0.7822  1.5459  0.6939
  680WAT     H2 3441   0.339   1.023   0.581  1.0040 -1.5213 -0.0821
  680WAT    EPW 3442   0.340   1.031   0.659 -0.1814  0.3409 -0.1963
  681WAT      O 3443   0.182   4.219   6.547  0.0128  0.0083  0.0558
  681WAT     H1 3444   0.184   4.132   6.558 -0.9985  0.1195  1.2748
  681WAT     H2 3445   0.221   4.250   6.618  0.5438  0.5681 -0.4651
  681WAT    EPW 3446   0.188   4.211   6.559 -0.0582  0.1074  0.1590
  682WAT      O 3447   2.135   3.792   6.403  0.1759 -0.0648  0.6504
  682WAT     H1 3448   2.157   3.713   6.373 -0.3602  0.3909 -1.1233
  682WAT     H2 3449   2.138   3.842   6.331 -0.6172  1.2774  1.5088
  682WAT    EPW 3450   2.138   3.787   6.388 -0.0204  0.2008  0.5152
  683WAT      O 3451   7.011   4.033   2.809 -0.6439 -0.3937  0.2717
  683WAT     H1 3452   7.040   4.006   2.731  0.6564  0.4695  0.4168
  683WAT     H2 3453   6.998   3.959   2.853  0.9296 -0.8596  0.0117
  683WAT    EPW 3454   7.014   4.018   2.804 -0.2194 -0.3350  0.2547
  684WAT      O 3455   1.024   1.601   0.830 -0.9150 -0.3753 -0.3035
  684WAT     H1 3456   1.027   1.534   0.775 -0.2158 -0.3931 -0.2527
  684WAT     H2 3457   0.952   1.587   0.876 -0.2774 -1.6182  0.3646
  684WAT    EPW 3458   1.014   1.589   0.829 -0.7175 -0.5615 -0.1973
  685WAT      O 3459   4.387   4.454   3.776  0.1873 -0.0010 -0.1467
  685WAT     H1 3460   4.362   4.379   3.740 -0.1580 -0.2048  0.5024
  685WAT     H2 3461   4.449   4.430   3.832 -0.2731  0.1323  0.4229
  685WAT    EPW 3462   4.392   4.440   3.779  0.0683 -0.0114  0.0333
  686WAT      O 3463   6.018   3.037   0.009  0.2663  0.0248 -0.2672
  686WAT     H1 3464   6.075   2.972  -0.001 -0.1294 -0.3328 -0.2513
  686WAT     H2 3465   6.066   3.102   0.042  0.1486 -1.1188  2.3527
  686WAT    EPW 3466   6.033   3.037   0.012  0.1904 -0.1969  0.1222
  687WAT      O 3467   1.337   0.608   7.326 -0.0710 -0.3495 -0.2819
  687WAT     H1 3468   1.386   0.624   7.396  0.6428  0.1022 -0.8706
  687WAT     H2 3469   1.273   0.557   7.357  0.7374 -0.9109  0.5133
  687WAT    EPW 3470   1.335   0.603   7.341  0.1538 -0.3657 -0.2514
  688WAT      O 3471   0.290   2.990   2.452  0.1955  0.2397 -0.3685
  688WAT     H1 3472   0.274   3.074   2.434  1.8600  0.4272 -1.1896
  688WAT     H2 3473   0.226   2.968   2.508 -0.3418  2.0010 -0.2304
  688WAT    EPW 3474   0.278   2.999   2.458  0.3620  0.5276 -0.4694
  689WAT      O 3475   2.610   2.898   2.305  0.6402  0.4908  0.5578
  689WAT     H1 3476   2.667   2.856   2.356  0.3337 -1.1670 -0.3777
  689WAT     H2 3477   2.645   2.977   2.295  3.0459 -0.5718 -0.3148
  689WAT    EPW 3478   2.624   2.903   2.311  0.9503  0.0889  0.2907
  690WAT      O 3479   0.754   4.938   6.999 -0.4908  0.6072 -0.2102
  690WAT     H1 3480   0.747   4.872   6.943 -0.5079  1.7563 -1.6485
  690WAT     H2 3481   0.675   4.942   7.036 -0.0376 -1.0951  1.0646
  690WAT    EPW 3482   0.741   4.929   6.996 -0.4263  0.5255 -0.2343
  691WAT      O 3483   4.968   4.568   6.189  0.4540 -0.3219 -0.7258
  691WAT     H1 3484   4.944   4.550   6.107  0.9794 -1.0571 -0.7262
  691WAT     H2 3485   4.902   4.538   6.237  1.6387 -3.1440 -0.6641
  691WAT    EPW 3486   4.955   4.561   6.184  0.7066 -0.8474 -0.7167
  692WAT      O 3487   6.096   0.140   7.355  0.3889 -0.1616 -0.0688
  692WAT     H1 3488   6.142   0.166   7.285 -0.2223  1.3068  0.0405
  692WAT     H2 3489   6.158   0.120   7.414  0.9120  0.9119 -0.2270
  692WAT    EPW 3490   6.112   0.141   7.353  0.3759  0.2139 -0.0761
  693WAT      O 3491   0.412   4.466   1.439  0.3738  0.2229 -0.3769
  693WAT     H1 3492   0.442   4.417   1.504 -0.0223 -1.8782 -1.6877
  693WAT     H2 3493   0.357   4.521   1.479  1.2662  0.0408  1.2184
  693WAT    EPW 3494   0.409   4.467   1.455  0.4471 -0.1144 -0.3349
  694WAT      O 3495   2.346   4.066   6.807 -0.2263  0.3143  0.5580
  694WAT     H1 3496   2.263   4.078   6.830 -0.1827  1.8525  0.0326
  694WAT     H2 3497   2.365   4.138   6.761  0.7868 -0.9390 -1.0983
  694WAT    EPW 3498   2.337   4.079   6.804 -0.0702  0.3564  0.2358
  695WAT      O 3499   1.215   5.545   2.490  0.4242 -0.0960  0.1610
  695WAT     H1 3500   1.141   5.592   2.484 -0.2485 -1.1212  0.2049
  695WAT     H2 3501   1.247   5.568   2.568 -1.4038 -1.7692  1.5215
  695WAT    EPW 3502   1.209   5.555   2.501  0.0548 -0.4946  0.3685
  696WAT      O 3503   0.506   2.694   5.611 -0.2364 -0.2026  0.4094
  696WAT     H1 3504   0.537   2.728   5.537 -1.3754  0.1543  0.0765
  696WAT     H2 3505   0.577   2.659   5.649  0.6731  1.0822 -0.0334
  696WAT    EPW 3506   0.521   2.694   5.606 -0.2703  0.0399  0.2948
  697WAT      O 3507   1.355   0.679   2.564 -0.2214 -0.1957 -0.2283
  697WAT     H1 3508   1.311   0.753   2.578  0.9856  1.1066 -2.5842
  697WAT     H2 3509   1.408   0.673   2.633  0.4462  1.8229 -0.4996
  697WAT    EPW 3510   1.357   0.689   2.576  0.0555  0.2948 -0.6164
  698WAT      O 3511   4.489   0.350   4.220 -0.1601  0.8142  0.0625
  698WAT     H1 3512   4.561   0.307   4.246 -0.7097 -0.1821 -0.0001
  698WAT     H2 3513   4.425   0.308   4.261 -0.7684  1.2590 -0.4190
  698WAT    EPW 3514   4.490   0.337   4.230 -0.3312  0.7327 -0.0178
  699WAT      O 3515   6.131   6.800   0.702  0.4943  0.3917 -0.4209
  699WAT     H1 3516   6.080   6.865   0.730  0.9309  0.9965 -1.0151
  699WAT     H2 3517   6.137   6.814   0.616  1.9921  0.5734 -0.3158
  699WAT    EPW 3518   6.124   6.812   0.694  0.7800  0.5079 -0.4932
  700WAT      O 3519   3.764   1.686   1.971  0.7399 -0.0585  0.2589
  700WAT     H1 3520   3.742   1.754   1.920 -1.8190 -0.5088  0.6464
  700WAT     H2 3521   3.822   1.720   2.026  1.5533  1.1073 -1.2442
  700WAT    EPW 3522   3.769   1.701   1.971  0.4821  0.0472  0.0941
  701WAT      O 3523   1.734   2.178   0.620  0.0248 -0.3251 -0.1582
  701WAT     H1 3524   1.666   2.233   0.611 -1.2274 -1.9660 -1.4375
  701WAT     H2 3525   1.784   2.195   0.551  0.1517 -0.1551 -0.0274
  701WAT    EPW 3526   1.731   2.189   0.609 -0.1414 -0.5424 -0.3278
  702WAT      O 3527   7.062   0.882   3.257  0.0807 -0.4798  0.0596
  702WAT     H1 3528   7.033   0.930   3.189 -0.8922 -1.9674 -0.6287
  702WAT     H2 3529   7.028   0.803   3.242  0.0674 -0.9229  2.1649
  702WAT    EPW 3530   7.053   0.878   3.244 -0.0650 -0.7650  0.2689
  703WAT      O 3531   0.133   6.368   5.664  0.3654  0.1421  0.6799
  703WAT     H1 3532   0.149   6.296   5.712  0.5558  0.9625  1.9037
  703WAT     H2 3533   0.213   6.398   5.646  0.3671 -1.0634 -1.6795
  703WAT    EPW 3534   0.147   6.362   5.669  0.3938  0.0852  0.5122
  704WAT      O 3535   1.533   4.328   3.719  0.0876 -0.5795  0.8654
  704WAT     H1 3536   1.595   4.287   3.673 -1.4106 -0.3380 -1.5596
  704WAT     H2 3537   1.561   4.411   3.722  0.6928 -0.7912  1.3484
  704WAT    EPW 3538   1.546   4.334   3.713 -0.0443 -0.5751  0.5786
  705WAT      O 3539   1.304   2.502   0.366 -0.1758 -0.0814  0.0837
  705WAT     H1 3540   1.246   2.512   0.301 -1.4138 -3.1655  0.5379
  705WAT     H2 3541   1.374   2.470   0.327 -0.4123 -0.5884  0.0656
  705WAT    EPW 3542   1.306   2.499   0.351 -0.3936 -0.6119  0.1481
  706WAT      O 3543   2.287   4.276   5.307  0.5575 -0.0499  0.4318
  706WAT     H1 3544   2.348   4.253   5.365 -0.2149  2.7899  2.5893
  706WAT     H2 3545   2.332   4.319   5.245  1.0449 -0.2801  0.6215
  706WAT    EPW 3546   2.303   4.279   5.306  0.5154  0.3356  0.7786
  707WAT      O 3547   1.552   1.059   7.091  0.4590  0.2109 -0.2948
  707WAT     H1 3548   1.521   1.129   7.132 -2.8524 -0.9078 -0.6210
  707WAT     H2 3549   1.524   0.992   7.140 -1.1518 -1.0360 -2.7429
  707WAT    EPW 3550   1.544   1.059   7.104 -0.2681 -0.1385 -0.7046
  708WAT      O 3551   1.616   1.040   6.464 -0.2730 -0.0492  0.0295
  708WAT     H1 3552   1.618   0.957   6.437 -0.4961 -0.0055 -0.1208
  708WAT     H2 3553   1.677   1.043   6.526 -0.6877 -0.4738  0.4568
  708WAT    EPW 3554   1.626   1.028   6.469 -0.3672 -0.1054  0.0704
  709WAT      O 3555   2.798   1.417   6.946  0.0095 -0.4398  0.8867
  709WAT     H1 3556   2.806   1.408   7.032  1.7516 -0.8455  0.7237
  709WAT     H2 3557   2.775   1.337   6.920 -1.2455 -0.1419  1.0175
  709WAT    EPW 3558   2.796   1.404   6.955  0.0815 -0.4557  0.8819
  710WAT      O 3559   4.950   4.512   3.877 -0.0778  0.2902 -0.2059
  710WAT     H1 3560   4.973   4.430   3.860 -1.2453 -0.2992  0.8139
  710WAT     H2 3561   5.012   4.560   3.839  1.5000 -1.0984  0.5042
  710WAT    EPW 3562   4.962   4.507   3.869 -0.0172 -0.0020  0.0496
  711WAT      O 3563   1.897   1.299   1.778  0.0570 -0.1384  0.1340
  711WAT     H1 3564   1.910   1.365   1.834 -0.8527  1.3475 -1.3089
  711WAT     H2 3565   1.972   1.294   1.735  0.0017  0.2160 -0.0063
  711WAT    EPW 3566   1.910   1.308   1.780 -0.0856  0.1335 -0.0999
  712WAT      O 3567   1.912   0.015   6.346  0.2645 -0.1840  0.1171
  712WAT     H1 3568   1.836   0.007   6.389 -0.9927  1.4112 -1.6389
  712WAT     H2 3569   1.972  -0.004   6.406 -1.3271  2.4732  2.8155
  712WAT    EPW 3570   1.910   0.011   6.361 -0.1563  0.4442  0.2563
  713WAT      O 3571   0.172   1.366   0.587  0.0435  0.1508 -0.5518
  713WAT     H1 3572   0.114   1.417   0.546  0.3877  0.2031 -0.9835
  713WAT     H2 3573   0.127   1.335   0.655  0.2234  2.1938  0.5983
  713WAT    EPW 3574   0.157   1.369   0.591  0.1209  0.4603 -0.4457
  714WAT      O 3575   6.859   6.879   0.403  0.0438 -0.1075 -0.6151
  714WAT     H1 3576   6.832   6.886   0.485 -0.6881  1.3031 -0.9510
  714WAT     H2 3577   6.797   6.832   0.364 -0.4747  0.6728 -0.7365
  714WAT    EPW 3578   6.846   6.873   0.409 -0.1409  0.2162 -0.6827
  715WAT      O 3579   3.659   3.108   3.224 -0.0003 -0.3508 -0.1711
  715WAT     H1 3580   3.715   3.042   3.215  1.2281  0.6509 -0.2635
  715WAT     H2 3581   3.619   3.112   3.147 -1.1246 -1.8533  0.2957
  715WAT    EPW 3582   3.662   3.099   3.211  0.0151 -0.4248 -0.1158
  716WAT      O 3583   1.570   3.784   1.183 -0.5671  0.1591  0.0650
  716WAT     H1 3584   1.498   3.832   1.190 -1.5197 -1.1304 -0.5048
  716WAT     H2 3585   1.607   3.813   1.109 -1.6448 -0.6041 -0.8039
  716WAT    EPW 3586   1.565   3.795   1.173 -0.8670 -0.1441 -0.1475
  717WAT      O 3587   2.997   0.848   6.817  0.1748  0.5118  0.3391
  717WAT     H1 3588   3.082   0.841   6.837  0.1238  1.1013  0.8001
  717WAT     H2 3589   2.958   0.800   6.878  0.1298  0.9357  0.6526
  717WAT    EPW 3590   3.004   0.840   6.829  0.1606  0.6615  0.4535
  718WAT      O 3591   1.570   6.964   1.901  0.1495 -0.3331  0.0562
  718WAT     H1 3592   1.623   7.005   1.845 -0.0347 -1.7825 -1.2597
  718WAT     H2 3593   1.550   6.890   1.859 -3.1857  0.2561  0.2906
  718WAT    EPW 3594   1.575   6.959   1.887 -0.3704 -0.4602 -0.1036
  719WAT      O 3595   0.297   4.856   0.920  0.0622  0.0853  0.7776
  719WAT     H1 3596   0.357   4.796   0.898  0.3923  0.5303  0.4465
  719WAT     H2 3597   0.229   4.808   0.947 -0.0068 -0.4628 -0.3270
  719WAT    EPW 3598   0.296   4.840   0.921  0.1008  0.0701  0.5655
  720WAT      O 3599   5.307   3.970   4.045 -0.1551  0.4593 -0.3039
  720WAT     H1 3600   5.299   3.952   3.960 -0.6705 -0.8171 -0.0130
  720WAT     H2 3601   5.355   3.903   4.075  0.7338  1.3322  0.2681
  720WAT    EPW 3602   5.313   3.957   4.037 -0.0999  0.3997 -0.1764
  721WAT      O 3603   4.211   6.444   2.086  0.2844  0.0359 -0.5698
  721WAT     H1 3604   4.149   6.390   2.115  0.7396 -0.3006 -0.1858
  721WAT     H2 3605   4.198   6.517   2.132  0.4983 -0.2209 -0.0841
  721WAT    EPW 3606   4.200   6.447   2.097  0.3833 -0.0517 -0.4413
  722WAT      O 3607   6.493   6.900   5.181  0.4944  0.4768  0.1534
  722WAT     H1 3608   6.547   6.831   5.187  0.0305  0.0987  0.1047
  722WAT     H2 3609   6.417   6.864   5.157 -0.0605  0.8509  1.2715
  722WAT    EPW 3610   6.490   6.884   5.179  0.3439  0.4762  0.3114
  723WAT      O 3611   1.163   3.682   1.271  0.8191  0.2225 -0.3610
  723WAT     H1 3612   1.234   3.656   1.227  0.6393 -0.5726 -0.1990
  723WAT     H2 3613   1.169   3.640   1.347 -0.5552 -1.0665 -0.8909
  723WAT    EPW 3614   1.174   3.672   1.276  0.5895 -0.0854 -0.4153
  724WAT      O 3615   6.160   2.743   1.393 -0.5113 -0.3443  0.1359
  724WAT     H1 3616   6.195   2.666   1.415  0.3566  0.3622  1.3612
  724WAT     H2 3617   6.226   2.787   1.358 -0.2737  0.7353  1.7881
  724WAT    EPW 3618   6.175   2.738   1.391 -0.3480 -0.0804  0.5610
  725WAT      O 3619   3.449   0.654   2.010  0.1118 -0.2575 -0.4191
  725WAT     H1 3620   3.461   0.574   2.043 -0.1052 -0.2897 -0.4169
  725WAT     H2 3621   3.530   0.684   1.999  0.2252  0.2853  1.4465
  725WAT    EPW 3622   3.462   0.646   2.013  0.0965 -0.1820 -0.1432
  726WAT      O 3623   4.818   5.832   4.530  0.0921  0.1464  0.1254
  726WAT     H1 3624   4.763   5.776   4.567 -1.0569  0.7965 -0.5524
  726WAT     H2 3625   4.801   5.825   4.445  1.0781  0.3403 -0.1013
  726WAT    EPW 3626   4.808   5.823   4.523  0.0680  0.2711 -0.0082
  727WAT      O 3627   4.598   4.181   0.528  0.1061  0.2795  0.2289
  727WAT     H1 3628   4.636   4.226   0.464 -0.3212  1.1315  0.5711
  727WAT     H2 3629   4.571   4.242   0.584  1.1107 -0.4678  1.6004
  727WAT    EPW 3630   4.600   4.196   0.527  0.1914  0.2950  0.4821
  728WAT      O 3631   3.504   5.323   0.751  0.3816 -0.0184 -0.3475
  728WAT     H1 3632   3.509   5.409   0.737 -3.2173  0.4743  0.2300
  728WAT     H2 3633   3.495   5.317   0.838  0.3554 -0.9598 -0.4057
  728WAT    EPW 3634   3.503   5.335   0.762 -0.1539 -0.0847 -0.2708
  729WAT      O 3635   4.824   7.043   5.016  0.2627 -0.0404 -0.2171
  729WAT     H1 3636   4.770   6.979   4.991  0.8358  0.2696 -2.4979
  729WAT     H2 3637   4.900   7.002   5.028  0.2423 -0.0260 -0.0339
  729WAT    EPW 3638   4.827   7.028   5.014  0.3444  0.0075 -0.5269
  730WAT      O 3639   3.992   5.428   1.701  0.6427  0.3715  0.5173
  730WAT     H1 3640   4.058   5.425   1.759  0.4303  1.2077  0.8111
  730WAT     H2 3641   3.940   5.490   1.732  0.3432  0.5915 -0.3986
  730WAT    EPW 3642   3.994   5.436   1.714  0.5671  0.5275  0.4254
  731WAT      O 3643   1.034   6.232   4.542  0.6302 -1.1107  0.0741
  731WAT     H1 3644   0.966   6.190   4.577 -0.3778  0.0945 -0.3632
  731WAT     H2 3645   1.018   6.316   4.561  0.4839 -0.4886 -2.4707
  731WAT    EPW 3646   1.022   6.238   4.550  0.4597 -0.8408 -0.3664
  732WAT      O 3647   5.065   3.165   1.651 -0.6673  0.1258  0.3181
  732WAT     H1 3648   5.069   3.179   1.737  2.9850 -1.4281  0.6165
  732WAT     H2 3649   5.095   3.239   1.616  0.8365 -0.2979  0.6493
  732WAT    EPW 3650   5.070   3.178   1.659  0.0943 -0.1663  0.4111
  733WAT      O 3651   0.023   3.749   0.021 -0.3464 -0.8052  0.1208
  733WAT     H1 3652   0.033   3.738   0.107 -0.1983 -0.8694  0.0950
  733WAT     H2 3653  -0.059   3.721   0.007 -0.1009 -1.5279  0.1144
  733WAT    EPW 3654   0.012   3.743   0.032 -0.2883 -0.9214  0.1160
  734WAT      O 3655   6.677   0.924   4.498  0.7018 -0.1018 -0.0964
  734WAT     H1 3656   6.655   0.982   4.437 -1.2989  0.1926  0.8446
  734WAT     H2 3657   6.644   0.849   4.467 -0.0274 -0.0116  0.4477
  734WAT    EPW 3658   6.669   0.921   4.484  0.2986 -0.0450  0.1230
  735WAT      O 3659   6.792   1.291   4.590  0.3750  0.1098 -0.1948
  735WAT     H1 3660   6.705   1.290   4.588  0.3476  0.8648  0.3572
  735WAT     H2 3661   6.811   1.303   4.674  0.9818  1.8790 -0.5480
  735WAT    EPW 3662   6.782   1.293   4.602  0.4606  0.4827 -0.1654
  736WAT      O 3663   6.882   3.448   4.926  0.1240 -0.0418  0.6425
  736WAT     H1 3664   6.869   3.412   4.848 -0.7787  1.4554  0.0659
  736WAT     H2 3665   6.950   3.501   4.914  0.6722 -0.5914  1.1785
  736WAT    EPW 3666   6.890   3.451   4.913  0.0716  0.0982  0.6365
  737WAT      O 3667   3.582   2.403   4.867  0.2318  0.6037 -0.2827
  737WAT     H1 3668   3.607   2.465   4.922  0.5775  1.0479 -0.9375
  737WAT     H2 3669   3.655   2.382   4.824 -0.2938  1.2452 -1.5430
  737WAT    EPW 3670   3.596   2.409   4.869  0.2052  0.7640 -0.5656
  738WAT      O 3671   1.860   0.228   1.516 -0.4297 -0.0464  0.1022
  738WAT     H1 3672   1.941   0.198   1.505 -0.5521 -0.8343  1.1682
  738WAT     H2 3673   1.872   0.314   1.531  0.1159  0.0230 -0.6942
  738WAT    EPW 3674   1.873   0.236   1.516 -0.3672 -0.1525  0.1420
  739WAT      O 3675   4.035   6.279   2.248 -0.0394  0.2135 -0.1788
  739WAT     H1 3676   4.064   6.290   2.329 -2.2306  0.0937  0.6942
  739WAT     H2 3677   4.054   6.195   2.230  0.4891  0.2553  0.1705
  739WAT    EPW 3678   4.042   6.268   2.257 -0.2850  0.2020  0.0017
  740WAT      O 3679   1.189   0.875   2.746  0.3935  0.5551 -0.1570
  740WAT     H1 3680   1.236   0.861   2.818 -1.4838  2.0385  1.4845
  740WAT     H2 3681   1.148   0.798   2.735 -0.7170  0.8275  1.5577
  740WAT    EPW 3682   1.190   0.861   2.755 -0.0478  0.8145  0.3388
  741WAT      O 3683   2.947   0.455   0.381 -0.3369 -0.5655 -0.2239
  741WAT     H1 3684   2.979   0.375   0.386  0.2136 -0.3491 -0.2556
  741WAT     H2 3685   2.935   0.468   0.296  1.7593  0.2215 -0.4596
  741WAT    EPW 3686   2.950   0.445   0.369  0.0541 -0.4173 -0.2634
  742WAT      O 3687   2.063   4.147   3.127  0.1373  0.2787  0.2365
  742WAT     H1 3688   2.125   4.138   3.067  1.2959 -1.4828  1.5990
  742WAT     H2 3689   2.021   4.070   3.125 -3.2685  1.9345 -1.8518
  742WAT    EPW 3690   2.066   4.134   3.118 -0.1946  0.2631  0.1293
  743WAT      O 3691   6.916   3.529   0.986 -0.6232  0.6227 -0.2651
  743WAT     H1 3692   6.967   3.460   0.970 -1.5480 -0.2189  0.2374
  743WAT     H2 3693   6.874   3.507   1.060 -1.0538  1.6603 -0.1753
  743WAT    EPW 3694   6.917   3.515   0.995 -0.8235  0.6516 -0.1776
  744WAT      O 3695   1.860   6.141   4.191  0.4073  0.1741 -0.2034
  744WAT     H1 3696   1.945   6.153   4.205  0.1264  1.4040  0.6367
  744WAT     H2 3697   1.822   6.170   4.264 -0.6818 -1.8948  0.1395
  744WAT    EPW 3698   1.867   6.147   4.204  0.2049  0.0502 -0.0287
  745WAT      O 3699   0.749   4.452   6.699  0.1147 -0.0351 -0.0523
  745WAT     H1 3700   0.828   4.444   6.734  0.1089 -0.2863 -0.0998
  745WAT     H2 3701   0.764   4.452   6.613 -0.0076 -0.7979 -0.0737
  745WAT    EPW 3702   0.763   4.451   6.692  0.0958 -0.1849 -0.0625
  746WAT      O 3703   5.499   2.048   1.217  0.4103 -0.2371 -0.3190
  746WAT     H1 3704   5.476   2.019   1.138  0.7547 -0.4219 -0.3541
  746WAT     H2 3705   5.440   2.109   1.235 -0.0900 -0.6911 -0.4151
  746WAT    EPW 3706   5.487   2.053   1.208  0.3872 -0.3315 -0.3384
  747WAT      O 3707   5.129   4.453   5.554 -0.8158  0.0716  0.5382
  747WAT     H1 3708   5.087   4.502   5.613 -0.0607 -0.5185  1.6003
  747WAT     H2 3709   5.082   4.380   5.550 -1.2208  0.3583 -0.0814
  747WAT    EPW 3710   5.116   4.450   5.562 -0.7641  0.0268  0.6036
  748WAT      O 3711   5.517   0.932   2.387 -0.8669  0.0123  0.4282
  748WAT     H1 3712   5.442   0.889   2.400 -1.3064  1.0035  1.2751
  748WAT     H2 3713   5.492   1.004   2.345 -0.3825  0.3236  0.6738
  748WAT    EPW 3714   5.502   0.936   2.383 -0.8602  0.2047  0.5896
  749WAT      O 3715   0.524   5.532   4.771  0.9823  0.3150  0.0355
  749WAT     H1 3716   0.581   5.535   4.705  0.4006  0.8277 -0.4512
  749WAT     H2 3717   0.464   5.591   4.749 -0.0747 -0.6552  0.2411
  749WAT    EPW 3718   0.523   5.541   4.758  0.7402  0.2474 -0.0060
  750WAT      O 3719   6.876   4.705   5.936 -0.1239  0.1066 -0.1199
  750WAT     H1 3720   6.837   4.695   5.859 -0.4813 -0.3054  0.1060
  750WAT     H2 3721   6.848   4.783   5.963  1.2266  0.9594 -1.0816
  750WAT    EPW 3722   6.866   4.715   5.929  0.0228  0.1717 -0.2286
  751WAT      O 3723   5.176   3.552   6.161 -0.1496  0.2077  0.0142
  751WAT     H1 3724   5.108   3.592   6.199  0.3729  0.9515  0.2091
  751WAT     H2 3725   5.203   3.610   6.101  0.2424 -0.1211 -0.1335
  751WAT    EPW 3726   5.170   3.567   6.158 -0.0145  0.2690  0.0212
  752WAT      O 3727   4.964   6.946   3.345 -0.4867 -0.1216  0.3422
  752WAT     H1 3728   4.982   6.888   3.282 -0.4410 -1.0098  1.1381
  752WAT     H2 3729   4.898   6.992   3.312  0.1456  0.0574 -0.7282
  752WAT    EPW 3730   4.957   6.944   3.331 -0.3866 -0.2264  0.3017
  753WAT      O 3731   5.851   6.632   0.057  0.1926 -1.2494  0.3323
  753WAT     H1 3732   5.833   6.557   0.096 -1.2212 -1.1716 -0.1195
  753WAT     H2 3733   5.773   6.660   0.029  0.8381 -0.1383 -0.4298
  753WAT    EPW 3734   5.837   6.625   0.059  0.0791 -1.0738  0.1530
  754WAT      O 3735   7.023   1.638   4.380 -0.4371  0.9887  0.1757
  754WAT     H1 3736   6.989   1.654   4.301 -2.5668  1.7428  1.1878
  754WAT     H2 3737   6.965   1.672   4.435 -0.8490 -2.5585  2.2312
  754WAT    EPW 3738   7.009   1.646   4.376 -0.8126  0.5761  0.6288
  755WAT      O 3739   5.788   4.455   2.246 -0.1618 -0.5142 -0.0773
  755WAT     H1 3740   5.789   4.367   2.246 -0.5555 -0.5211 -0.1507
  755WAT     H2 3741   5.703   4.474   2.247 -0.1002 -0.1301 -1.3207
  755WAT    EPW 3742   5.776   4.445   2.246 -0.2109 -0.4585 -0.2718
  756WAT      O 3743   4.549   4.471   2.882  0.0970 -0.1944  0.1476
  756WAT     H1 3744   4.540   4.384   2.876  1.1735 -0.3129  0.0363
  756WAT     H2 3745   4.559   4.496   2.799  0.6571 -0.0797  0.2450
  756WAT    EPW 3746   4.549   4.462   2.869  0.3388 -0.1950  0.1455
  757WAT      O 3747   2.057   4.417   3.545 -0.0696  0.5993  0.0559
  757WAT     H1 3748   2.094   4.493   3.566 -0.3120  0.2937  1.7816
  757WAT     H2 3749   2.107   4.358   3.585 -0.0600 -0.1497 -1.0092
  757WAT    EPW 3750   2.070   4.420   3.554 -0.1040  0.4435  0.1535
  758WAT      O 3751   5.443   3.093   6.319  0.3047 -0.2981 -0.8654
  758WAT     H1 3752   5.451   3.041   6.249 -1.1153 -1.6452 -0.0942
  758WAT     H2 3753   5.357   3.099   6.331  0.5078  0.1722  0.5687
  758WAT    EPW 3754   5.432   3.086   6.311  0.1249 -0.4276 -0.5396
  759WAT      O 3755   0.635   6.098   5.696 -0.5500  0.0112  0.1632
  759WAT     H1 3756   0.631   6.066   5.615  0.7762  0.4500 -0.1065
  759WAT     H2 3757   0.676   6.035   5.741  0.5459  0.5895  0.0107
  759WAT    EPW 3758   0.640   6.084   5.691 -0.1922  0.1614  0.1008
  760WAT      O 3759   0.256   6.861   0.483  0.3717 -0.2599 -0.1122
  760WAT     H1 3760   0.279   6.831   0.404  1.4331  1.6645 -0.6176
  760WAT     H2 3761   0.332   6.865   0.526  0.5169  2.4564 -0.4226
  760WAT    EPW 3762   0.271   6.857   0.477  0.5499  0.4256 -0.2327
  761WAT      O 3763   2.820   6.298   2.732  0.4043  0.4866  0.3762
  761WAT     H1 3764   2.894   6.343   2.742  0.4950  0.3041  0.5422
  761WAT     H2 3765   2.799   6.311   2.648  3.5056 -3.7657 -1.4209
  761WAT    EPW 3766   2.828   6.307   2.721  0.8758 -0.1685  0.1352
  762WAT      O 3767   2.893   6.882   3.563  0.3974 -0.6076  0.4069
  762WAT     H1 3768   2.846   6.816   3.530 -1.3850  0.7951 -0.0113
  762WAT     H2 3769   2.849   6.906   3.635  1.3578 -0.2498  0.9085
  762WAT    EPW 3770   2.880   6.876   3.569  0.2760 -0.3476  0.4192
  763WAT      O 3771   4.827   1.090   4.222 -0.0643  0.0830 -0.0944
  763WAT     H1 3772   4.892   1.145   4.239  0.8651 -0.7439 -0.9235
  763WAT     H2 3773   4.775   1.097   4.293  0.4685  1.3710  0.1867
  763WAT    EPW 3774   4.829   1.099   4.235  0.1517  0.1511 -0.1753
  764WAT      O 3775   6.721   2.875   3.800 -0.0929 -0.1662 -0.1332
  764WAT     H1 3776   6.655   2.895   3.853  0.4501  2.0655 -0.2107
  764WAT     H2 3777   6.682   2.850   3.726 -0.8453  0.2469  0.1243
  764WAT    EPW 3778   6.706   2.874   3.797 -0.1239  0.2245 -0.1066
  765WAT      O 3779   1.246   3.542   2.331 -0.4501 -0.5891 -0.2226
  765WAT     H1 3780   1.276   3.461   2.340  1.1681 -0.0953 -0.8318
  765WAT     H2 3781   1.264   3.580   2.408 -1.5368 -0.8929  0.1923
  765WAT    EPW 3782   1.253   3.536   2.344 -0.3716 -0.5610 -0.2513
  766WAT      O 3783   5.916   4.502   1.653  0.2918  0.1282  1.0773
  766WAT     H1 3784   5.871   4.427   1.655 -0.8612  0.8022  1.3813
  766WAT     H2 3785   5.894   4.536   1.576  1.8932 -0.4450  0.3079
  766WAT    EPW 3786   5.906   4.496   1.642  0.3581  0.1431  1.0085
  767WAT      O 3787   1.003   0.384   5.903 -0.2275 -0.0041 -0.6699
  767WAT     H1 3788   0.996   0.469   5.887 -0.2396  0.1611  0.2040
  767WAT     H2 3789   1.089   0.370   5.910 -0.2237 -0.0774 -0.8373
  767WAT    EPW 3790   1.014   0.394   5.901 -0.2288  0.0094 -0.5655
  768WAT      O 3791   6.394   3.858   3.432  0.2818  0.2435 -0.5574
  768WAT     H1 3792   6.394   3.805   3.363 -0.1859  1.0997 -1.2502
  768WAT     H2 3793   6.371   3.935   3.398  2.1194  1.1826  0.2009
  768WAT    EPW 3794   6.390   3.862   3.417  0.4842  0.5087 -0.5477
  769WAT      O 3795   6.376   6.938   0.539  0.4960  0.1568 -0.5211
  769WAT     H1 3796   6.427   6.987   0.489  0.6468  0.5458  0.0074
  769WAT     H2 3797   6.426   6.870   0.560 -0.0966 -0.8871 -2.2540
  769WAT    EPW 3798   6.391   6.935   0.535  0.4308  0.0601 -0.6990
  770WAT      O 3799   0.087   6.996   3.942 -0.3388 -0.0929  0.0882
  770WAT     H1 3800   0.030   7.019   4.005  0.5474  0.6827  0.6227
  770WAT     H2 3801   0.079   7.060   3.883  1.0941  0.8963  0.9089
  770WAT    EPW 3802   0.077   7.009   3.943  0.0038  0.1678  0.2884
  771WAT      O 3803   2.608   2.978   7.181  0.8453  0.4139 -0.1063
  771WAT     H1 3804   2.558   2.998   7.112  0.8423 -0.3570 -0.3338
  771WAT     H2 3805   2.569   2.908   7.215  1.7597 -0.2052 -0.2888
  771WAT    EPW 3806   2.595   2.971   7.176  0.9799  0.2086 -0.1669
  772WAT      O 3807   1.856   2.953   1.705  0.4104 -0.0520 -0.4336
  772WAT     H1 3808   1.856   2.981   1.622  0.7872  0.7123 -0.1910
  772WAT     H2 3809   1.939   2.932   1.720  0.2711 -0.5685 -0.3658
  772WAT    EPW 3810   1.868   2.954   1.695  0.4455 -0.0154 -0.3878
  773WAT      O 3811   6.168   2.697   0.334  0.2163  0.4724  0.3651
  773WAT     H1 3812   6.202   2.676   0.412  0.4114 -0.8351 -0.0474
  773WAT     H2 3813   6.084   2.713   0.352  0.6101  1.9208  1.1003
  773WAT    EPW 3814   6.161   2.696   0.349  0.3033  0.4932  0.4128
  774WAT      O 3815   5.849   3.511   0.179 -0.4503  0.0565 -0.2978
  774WAT     H1 3816   5.914   3.568   0.163  0.3390 -1.2413 -1.9884
  774WAT     H2 3817   5.890   3.434   0.181 -1.7514 -0.6389  0.1358
  774WAT    EPW 3818   5.865   3.508   0.177 -0.5259 -0.2380 -0.4835
  775WAT      O 3819   3.089   2.070   7.069  0.8504 -0.0967  0.2124
  775WAT     H1 3820   3.004   2.068   7.090  1.0797 -1.1639  1.1559
  775WAT     H2 3821   3.115   2.148   7.100  0.3078  0.0603  0.2954
  775WAT    EPW 3822   3.080   2.081   7.077  0.8041 -0.2312  0.3640
  776WAT      O 3823   0.335   1.420   3.860  0.1764 -0.1485  0.6171
  776WAT     H1 3824   0.398   1.439   3.917  1.2770 -3.0345  0.5662
  776WAT     H2 3825   0.375   1.371   3.800 -1.3516  1.1683 -1.6411
  776WAT    EPW 3826   0.350   1.415   3.860  0.1133 -0.3803  0.2760
  777WAT      O 3827   2.181   3.081   5.235 -0.5554  0.0895  0.2437
  777WAT     H1 3828   2.224   3.157   5.229 -1.1999  0.3849 -0.9611
  777WAT     H2 3829   2.115   3.090   5.179 -0.4058 -1.5195 -0.2554
  777WAT    EPW 3830   2.178   3.093   5.225 -0.6285 -0.1046 -0.0080
  778WAT      O 3831   1.608   2.189   5.728  0.8075  0.5457 -0.5577
  778WAT     H1 3832   1.588   2.224   5.805  1.0498 -1.1252  0.3276
  778WAT     H2 3833   1.543   2.215   5.675  0.3656  1.3053  0.3388
  778WAT    EPW 3834   1.595   2.198   5.732  0.7780  0.4111 -0.2945
  779WAT      O 3835   4.610   6.363   4.601  0.1297  0.4642 -0.3627
  779WAT     H1 3836   4.621   6.450   4.602 -2.9776  0.9629  0.9899
  779WAT     H2 3837   4.689   6.333   4.578  1.3047  3.6163 -0.9642
  779WAT    EPW 3838   4.624   6.372   4.598 -0.1557  1.0035 -0.2517
  780WAT      O 3839   2.780   5.065   2.283 -0.5320  0.3821  0.2098
  780WAT     H1 3840   2.711   5.075   2.231  0.1837 -2.0264 -1.3768
  780WAT     H2 3841   2.845   5.103   2.239 -0.0460 -1.1305 -0.4605
  780WAT    EPW 3842   2.779   5.072   2.269 -0.3545 -0.1972 -0.1236
  781WAT      O 3843   3.414   3.649   1.797  0.1881  0.2435 -0.4028
  781WAT     H1 3844   3.414   3.580   1.851 -0.2532  0.2726 -0.3612
  781WAT     H2 3845   3.463   3.622   1.729  2.6002  0.9503  0.9233
  781WAT    EPW 3846   3.422   3.635   1.795  0.4792  0.3522 -0.2007
  782WAT      O 3847   6.946   3.252   7.187 -0.4221 -0.7803  0.4171
  782WAT     H1 3848   6.863   3.249   7.212 -1.1665  3.6190 -0.6961
  782WAT     H2 3849   6.944   3.298   7.113  2.9971 -0.7558  0.1684
  782WAT    EPW 3850   6.934   3.258   7.180 -0.0270 -0.1268  0.2159
  783WAT      O 3851   3.388   0.533   3.185 -0.2735  0.1172 -0.1513
  783WAT     H1 3852   3.389   0.464   3.131 -0.7003  0.7245 -0.9563
  783WAT     H2 3853   3.317   0.519   3.234 -0.1587 -0.1968 -0.0733
  783WAT    EPW 3854   3.378   0.520   3.184 -0.3196  0.1605 -0.2587
  784WAT      O 3855   2.841   2.607   4.690  0.1838 -0.7016  0.2254
  784WAT     H1 3856   2.850   2.554   4.759  1.5151 -0.2195  0.4633
  784WAT     H2 3857   2.917   2.651   4.688  0.6655 -1.4916 -2.2168
  784WAT    EPW 3858   2.853   2.606   4.700  0.4516 -0.7471 -0.1002
  785WAT      O 3859   3.503   5.099   1.517 -0.2345 -0.5458  0.7482
  785WAT     H1 3860   3.459   5.142   1.455 -0.9907 -1.3089  0.7327
  785WAT     H2 3861   3.539   5.032   1.473  1.0046  0.0857  0.7528
  785WAT    EPW 3862   3.502   5.095   1.501 -0.1632 -0.5652  0.7466
  786WAT      O 3863   5.555   0.044   1.232 -0.2074  0.5584  0.2338
  786WAT     H1 3864   5.481   0.004   1.257  1.0067 -1.8882  0.1895
  786WAT     H2 3865   5.570   0.010   1.153  0.8697  1.1624  0.1722
  786WAT    EPW 3866   5.546   0.033   1.224  0.1311  0.2862  0.2181
  787WAT      O 3867   4.231   6.828   6.125  0.1339 -0.3392  0.0621
  787WAT     H1 3868   4.239   6.915   6.131 -2.0754 -0.1096  0.4642
  787WAT     H2 3869   4.244   6.800   6.206  0.7597 -0.4014 -0.0518
  787WAT    EPW 3870   4.234   6.837   6.138 -0.1000 -0.3145  0.1047
  788WAT      O 3871   6.991   4.409   6.569  0.1911  0.0334  0.0372
  788WAT     H1 3872   6.987   4.447   6.491  1.1013  2.1149  0.9213
  788WAT     H2 3873   7.046   4.343   6.557 -2.2958 -1.8770 -1.8166
  788WAT    EPW 3874   6.999   4.405   6.556 -0.0418  0.0587 -0.1061
  789WAT      O 3875   2.149   4.732   1.574  0.1108  0.6910  0.4713
  789WAT     H1 3876   2.121   4.784   1.638  0.4829 -0.0133  1.2233
  789WAT     H2 3877   2.210   4.682   1.613  0.9008  0.7704 -0.6085
  789WAT    EPW 3878   2.154   4.732   1.589  0.2825  0.5987  0.4229
  790WAT      O 3879   2.381   0.031   1.263  0.0239 -0.4892 -0.2233
  790WAT     H1 3880   2.333   0.103   1.267  0.3435 -0.3343  1.4637
  790WAT     H2 3881   2.463   0.061   1.255  0.1554 -0.6666  0.4424
  790WAT    EPW 3882   2.386   0.046   1.262  0.0905 -0.4926  0.1243
  791WAT      O 3883   5.225   4.094   6.600  0.3432  0.3023  0.8542
  791WAT     H1 3884   5.226   4.168   6.646 -0.2012  0.5492  0.4803
  791WAT     H2 3885   5.236   4.032   6.660  1.3151  0.7109  1.1095
  791WAT    EPW 3886   5.227   4.096   6.616  0.4064  0.3991  0.8367
  792WAT      O 3887   3.172   4.028   2.678 -0.1943  0.3152 -0.1385
  792WAT     H1 3888   3.100   4.051   2.721 -0.3620  1.1333 -0.8337
  792WAT     H2 3889   3.230   4.090   2.698 -0.1129  0.4169 -0.6581
  792WAT    EPW 3890   3.170   4.040   2.687 -0.2071  0.4511 -0.3179
  793WAT      O 3891   1.757   7.161   3.495  0.2417  0.1873  0.6728
  793WAT     H1 3892   1.676   7.167   3.462  1.2812  0.8669 -2.0755
  793WAT     H2 3893   1.773   7.242   3.525  0.4659  0.5411 -0.3602
  793WAT    EPW 3894   1.747   7.174   3.495  0.4284  0.3399  0.1142
  794WAT      O 3895   0.863   4.139   4.918 -0.3930 -0.2430  1.2672
  794WAT     H1 3896   0.892   4.173   4.993 -1.0773  0.2335  1.3209
  794WAT     H2 3897   0.936   4.112   4.879  0.0835  0.5080  1.6125
  794WAT    EPW 3898   0.878   4.140   4.924 -0.4237 -0.0617  1.3261
  795WAT      O 3899   3.749   6.349   6.461 -0.2587 -0.1576 -0.4323
  795WAT     H1 3900   3.728   6.426   6.496 -1.6100 -0.7918  0.2062
  795WAT     H2 3901   3.694   6.341   6.394 -0.4318 -0.7603 -0.2227
  795WAT    EPW 3902   3.738   6.359   6.456 -0.4839 -0.3403 -0.3070
  796WAT      O 3903   1.040   2.293   6.970  0.1616 -0.3339  0.7411
  796WAT     H1 3904   1.081   2.236   7.022  3.0671  0.9377  0.1097
  796WAT     H2 3905   1.066   2.270   6.890 -1.1626  0.0205  0.1877
  796WAT    EPW 3906   1.050   2.281   6.966  0.3952 -0.0937  0.5661
  797WAT      O 3907   5.828   5.899   3.555  0.0076 -0.1031 -0.2890
  797WAT     H1 3908   5.794   5.907   3.475 -0.0162  1.8010 -0.1273
  797WAT     H2 3909   5.908   5.932   3.546  0.0488  0.0014  0.4409
  797WAT    EPW 3910   5.835   5.905   3.542  0.0101  0.1936 -0.1573
  798WAT      O 3911   2.541   4.140   5.288 -0.0793  0.4301  0.0993
  798WAT     H1 3912   2.490   4.073   5.264  0.9052 -0.1169 -0.5458
  798WAT     H2 3913   2.612   4.101   5.321  0.2569  1.1592  0.2667
  798WAT    EPW 3914   2.544   4.124   5.289  0.1158  0.4570  0.0287
  799WAT      O 3915   0.853   4.987   3.760  0.3337  0.4075  0.6244
  799WAT     H1 3916   0.932   5.004   3.792  1.6165 -2.9026 -0.3117
  799WAT     H2 3917   0.859   5.012   3.677  0.1911  0.6905  0.6993
  799WAT    EPW 3918   0.865   4.993   3.753  0.5022 -0.0397  0.4972
  800WAT      O 3919   2.386   1.999   3.001 -0.1493 -0.1001 -0.7710
  800WAT     H1 3920   2.437   2.067   3.020  0.3457 -0.4297 -0.9115
  800WAT     H2 3921   2.441   1.931   3.002 -0.3186 -0.2840 -2.2950
  800WAT    EPW 3922   2.402   1.999   3.004 -0.1012 -0.1760 -1.0169
  801WAT      O 3923   6.235   2.016   2.451  0.4774 -0.5393  0.3197
  801WAT     H1 3924   6.318   2.022   2.476  0.2439 -0.0061  1.0027
  801WAT     H2 3925   6.190   2.035   2.524 -0.2652 -2.3457  0.4036
  801WAT    EPW 3926   6.241   2.020   2.466  0.3332 -0.7274  0.4330
  802WAT      O 3927   1.024   5.950   5.716  0.3663  0.6058  0.0630
  802WAT     H1 3928   1.003   5.943   5.632  2.8296 -2.1625 -0.4793
  802WAT     H2 3929   1.108   5.970   5.715  0.9858 -1.5163  1.7737
  802WAT    EPW 3930   1.033   5.952   5.703  0.8217 -0.1166  0.2356
  803WAT      O 3931   2.404   4.412   5.091  0.1913  0.0692 -0.3579
  803WAT     H1 3932   2.444   4.483   5.122  1.0661 -0.3890 -0.4225
  803WAT     H2 3933   2.322   4.439   5.080  0.4030  0.9340  0.0713
  803WAT    EPW 3934   2.398   4.427   5.094  0.3518  0.1293 -0.3041
  804WAT      O 3935   1.938   0.243   6.165 -0.1352 -0.0319 -0.3763
  804WAT     H1 3936   1.938   0.168   6.208 -1.7929  0.1504  0.0153
  804WAT     H2 3937   1.999   0.290   6.205 -2.1894  0.4591  2.5177
  804WAT    EPW 3938   1.947   0.239   6.177 -0.6835  0.0676  0.1091
  805WAT      O 3939   4.297   1.875   6.317  0.1564  0.4643 -0.8112
  805WAT     H1 3940   4.235   1.819   6.340  1.1277 -0.0856  0.6569
  805WAT     H2 3941   4.255   1.934   6.267 -0.7859 -1.7927 -2.8583
  805WAT    EPW 3942   4.282   1.876   6.313  0.1607  0.0497 -0.8967
  806WAT      O 3943   7.179   3.284   5.622 -0.7519  0.1879 -0.4515
  806WAT     H1 3944   7.167   3.249   5.543 -0.3510  0.0156 -0.4391
  806WAT     H2 3945   7.186   3.370   5.606  0.1313  0.0816 -0.7033
  806WAT    EPW 3946   7.179   3.292   5.608 -0.5622  0.1468 -0.4869
  807WAT      O 3947   1.804   5.786   2.585 -0.7223 -0.1214 -0.0213
  807WAT     H1 3948   1.888   5.781   2.608 -0.7901  0.2804  0.3107
  807WAT     H2 3949   1.770   5.714   2.621 -0.6194 -0.0329  0.2548
  807WAT    EPW 3950   1.812   5.774   2.593 -0.7171 -0.0490  0.0686
  808WAT      O 3951   4.620   4.213   7.280  0.2378  0.3686 -0.3062
  808WAT     H1 3952   4.571   4.141   7.274 -0.6542  0.9962 -0.7856
  808WAT     H2 3953   4.646   4.227   7.198 -1.8857  2.1060 -0.7973
  808WAT    EPW 3954   4.616   4.205   7.267 -0.2077  0.7180 -0.4495
  809WAT      O 3955   5.769   5.957   0.378 -0.1020  0.4150  0.0652
  809WAT     H1 3956   5.798   5.890   0.426  0.5829  1.4067  1.0796
  809WAT     H2 3957   5.757   5.922   0.299 -0.6600 -1.1210  0.7901
  809WAT    EPW 3958   5.771   5.942   0.374 -0.0833  0.3346  0.3221
  810WAT      O 3959   1.682   2.760   6.792 -0.1827  0.3102  0.2633
  810WAT     H1 3960   1.712   2.702   6.734 -3.5641  0.5434 -2.0529
  810WAT     H2 3961   1.673   2.713   6.865  0.4228 -1.1354 -0.5435
  810WAT    EPW 3962   1.685   2.744   6.794 -0.5928  0.1311 -0.1980
  811WAT      O 3963   3.859   1.659   0.434 -0.0424 -0.9365  0.1416
  811WAT     H1 3964   3.826   1.641   0.512 -4.5949 -0.0147 -1.3036
  811WAT     H2 3965   3.869   1.746   0.435  0.5624 -0.9935 -0.1231
  811WAT    EPW 3966   3.856   1.669   0.445 -0.6256 -0.8088 -0.1110
  812WAT      O 3967   6.031   4.618   2.113  0.5023 -0.0048 -0.1726
  812WAT     H1 3968   5.986   4.555   2.153  0.2406 -0.4490 -1.1304
  812WAT     H2 3969   6.104   4.578   2.087  0.2029  0.0034 -1.0436
  812WAT    EPW 3970   6.035   4.603   2.115  0.4194 -0.0692 -0.4428
  813WAT      O 3971   4.332   1.090   5.107 -0.1258 -0.3818  0.2404
  813WAT     H1 3972   4.387   1.028   5.080  0.5599 -0.0061  0.7486
  813WAT     H2 3973   4.297   1.120   5.033 -0.2017 -1.1254 -0.0343
  813WAT    EPW 3974   4.335   1.085   5.092 -0.0357 -0.4361  0.2749
  814WAT      O 3975   0.061   0.898   6.366  0.6729 -0.0413  0.3989
  814WAT     H1 3976   0.008   0.838   6.402 -1.3161  2.1686  1.4441
  814WAT     H2 3977   0.092   0.941   6.436 -0.3716  2.0164 -0.3205
  814WAT    EPW 3978   0.058   0.895   6.382  0.2248  0.5891  0.4470
  815WAT      O 3979   2.980   2.949   2.577 -0.3839  0.2770 -0.0715
  815WAT     H1 3980   2.939   3.024   2.559  1.3950  2.2592  3.1119
  815WAT     H2 3981   3.038   2.942   2.512 -0.6333  1.6624 -0.4880
  815WAT    EPW 3982   2.983   2.959   2.564 -0.1580  0.7745  0.3372
  816WAT      O 3983   0.989   0.548   4.914  0.1796  0.2774 -0.3470
  816WAT     H1 3984   0.958   0.616   4.870 -1.5596  0.0227  0.3908
  816WAT     H2 3985   0.970   0.480   4.864  0.2903  0.1854 -0.2655
  816WAT    EPW 3986   0.982   0.548   4.900 -0.0610  0.2262 -0.2260
  817WAT      O 3987   7.154   2.750   3.327 -0.1499  0.1492 -0.0634
  817WAT     H1 3988   7.196   2.703   3.267 -0.3945  0.2257 -0.2973
  817WAT     H2 3989   7.137   2.692   3.390 -1.7826 -0.4527 -1.0053
  817WAT    EPW 3990   7.158   2.735   3.327 -0.4272  0.0716 -0.2371
  818WAT      O 3991   3.754   2.069   3.780 -0.1831  0.0554 -0.4156
  818WAT     H1 3992   3.815   2.121   3.813 -1.2500 -0.7034  3.1228
  818WAT     H2 3993   3.703   2.124   3.734 -0.3918  1.9433  1.8842
  818WAT    EPW 3994   3.755   2.085   3.778 -0.3716  0.2222  0.4468
  819WAT      O 3995   7.206   0.522   7.338  0.0286 -0.2898 -0.6356
  819WAT     H1 3996   7.288   0.525   7.310 -0.3924 -0.8745 -1.9926
  819WAT     H2 3997   7.180   0.605   7.335  0.3253 -0.2081 -0.9616
  819WAT    EPW 3998   7.214   0.535   7.334  0.0103 -0.3641 -0.8843
  820WAT      O 3999   4.218   1.581   6.078 -0.0976 -0.4303  0.0871
  820WAT     H1 4000   4.220   1.510   6.029  0.2019 -0.4647  0.1498
  820WAT     H2 4001   4.298   1.616   6.069 -0.9895  1.3096 -2.0151
  820WAT    EPW 4002   4.230   1.576   6.070 -0.1851 -0.1784 -0.2142
  821WAT      O 4003   4.355   4.790   2.159 -0.0788 -0.0905 -0.3128
  821WAT     H1 4004   4.309   4.769   2.229 -0.2303  1.3216  0.0579
  821WAT     H2 4005   4.321   4.742   2.095 -0.8625 -0.3755  0.3135
  821WAT    EPW 4006   4.343   4.780   2.160 -0.2170  0.0760 -0.1655
  822WAT      O 4007   3.659   2.574   4.510 -0.2908  0.5995 -0.1105
  822WAT     H1 4008   3.581   2.551   4.479  0.4830 -0.2498 -1.5370
  822WAT     H2 4009   3.714   2.553   4.445  0.9456  2.7636  0.1503
  822WAT    EPW 4010   3.656   2.567   4.495  0.0061  0.7937 -0.2827
  823WAT      O 4011   6.511   0.684   4.682  0.2274 -0.3728  0.6396
  823WAT     H1 4012   6.555   0.721   4.617  1.0894 -0.3626  1.2093
  823WAT     H2 4013   6.538   0.601   4.679  0.0355 -0.4400  0.7873
  823WAT    EPW 4014   6.522   0.677   4.672  0.3264 -0.3812  0.7456
  824WAT      O 4015   2.408   6.986   1.232 -0.1980 -0.6097  0.4564
  824WAT     H1 4016   2.416   7.070   1.255 -2.3536 -0.9057  2.7565
  824WAT     H2 4017   2.376   6.990   1.151 -0.1330  0.7542  0.4675
  824WAT    EPW 4018   2.405   6.999   1.224 -0.5068 -0.4519  0.7978
  825WAT      O 4019   2.294   6.660   3.330  0.9394  0.4494 -0.2069
  825WAT     H1 4020   2.373   6.679   3.298  0.5136  0.4663 -1.2740
  825WAT     H2 4021   2.244   6.727   3.304  0.6504  0.6778  0.8523
  825WAT    EPW 4022   2.298   6.673   3.322  0.8338  0.4856 -0.2081
  826WAT      O 4023   3.168   7.037   4.356 -0.4583 -0.0161  0.0864
  826WAT     H1 4024   3.113   6.973   4.376 -1.5128  1.0338  0.6805
  826WAT     H2 4025   3.178   7.080   4.431  1.2926 -0.2371  0.0269
  826WAT    EPW 4026   3.161   7.034   4.370 -0.3554  0.1063  0.1654
  827WAT      O 4027   4.928   5.773   2.004  0.2242 -0.4725  0.4238
  827WAT     H1 4028   4.898   5.713   2.060  1.1080 -0.3075  1.1047
  827WAT     H2 4029   4.867   5.835   2.006  0.0256 -0.6756  0.8495
  827WAT    EPW 4030   4.915   5.773   2.013  0.3254 -0.4781  0.5872
  828WAT      O 4031   3.169   5.257   0.178  0.6415  0.1006  0.2716
  828WAT     H1 4032   3.126   5.319   0.135  1.6060  0.9987  0.5709
  828WAT     H2 4033   3.112   5.232   0.240  0.4442  1.0972  0.5117
  828WAT    EPW 4034   3.154   5.262   0.181  0.7548  0.3805  0.3513
  829WAT      O 4035   3.741   4.882   1.959 -0.4968 -0.4815 -0.0406
  829WAT     H1 4036   3.682   4.933   1.918 -1.4302 -0.8602  0.7961
  829WAT     H2 4037   3.779   4.838   1.894  0.6105  1.5232 -0.8435
  829WAT    EPW 4038   3.738   4.883   1.944 -0.4711 -0.2413 -0.0356
  830WAT      O 4039   5.025   4.464   4.873  0.6989  0.3275 -0.3129
  830WAT     H1 4040   4.964   4.408   4.846 -0.8789  1.5142  0.5828
  830WAT     H2 4041   5.068   4.419   4.935 -1.0037  0.2668  0.9118
  830WAT    EPW 4042   5.023   4.449   4.878  0.2143  0.4939  0.0003
  831WAT      O 4043   6.009   0.109   1.013 -0.2620  0.0133  0.4246
  831WAT     H1 4044   5.985   0.025   1.012  0.7755 -0.3044  0.9808
  831WAT     H2 4045   5.940   0.150   1.046 -0.3256 -0.7805  1.2966
  831WAT    EPW 4046   5.996   0.103   1.017 -0.1182 -0.1509  0.6356
  832WAT      O 4047   6.930   6.934   0.097 -0.0863 -0.0676 -0.2934
  832WAT     H1 4048   6.877   6.979   0.044 -2.3283 -0.6754  1.2398
  832WAT     H2 4049   6.909   6.965   0.176  2.4042  0.1129  0.3702
  832WAT    EPW 4050   6.919   6.945   0.101 -0.0495 -0.1307  0.0311
  833WAT      O 4051   1.041   4.241   3.314  0.4645 -0.1603 -0.4679
  833WAT     H1 4052   1.084   4.317   3.311  1.1449 -0.5164 -0.1546
  833WAT     H2 4053   0.979   4.255   3.374  0.3659  0.2505 -0.6608
  833WAT    EPW 4054   1.038   4.255   3.323  0.5504 -0.1522 -0.4501
  834WAT      O 4055   4.299   5.602   0.882  0.2927 -0.3046 -0.0301
  834WAT     H1 4056   4.371   5.557   0.903  0.0753 -1.7431 -2.0453
  834WAT     H2 4057   4.326   5.656   0.819 -0.1567  0.0245  0.0527
  834WAT    EPW 4058   4.314   5.603   0.876  0.1942 -0.4685 -0.3155
  835WAT      O 4059   2.077   0.704   0.598  0.6958 -0.3566 -0.5630
  835WAT     H1 4060   2.015   0.657   0.558  0.2903 -0.1070 -0.2425
  835WAT     H2 4061   2.064   0.785   0.568 -0.9381  0.2601  1.5270
  835WAT    EPW 4062   2.066   0.709   0.588  0.3945 -0.2286 -0.2069
  836WAT      O 4063   0.210   6.617   2.429 -0.2022  0.1267  0.7480
  836WAT     H1 4064   0.207   6.533   2.405 -1.0525  0.3712 -0.0236
  836WAT     H2 4065   0.169   6.618   2.506 -5.0227  0.5515 -1.4587
  836WAT    EPW 4066   0.204   6.605   2.437 -1.0399  0.2256  0.3080
  837WAT      O 4067   4.706   2.459   6.935 -0.2242  0.2252  0.7937
  837WAT     H1 4068   4.682   2.436   6.854 -2.5055 -1.6635  1.9093
  837WAT     H2 4069   4.728   2.384   6.972 -1.5332  0.6872  2.6246
  837WAT    EPW 4070   4.706   2.445   6.928 -0.7545  0.0144  1.2290
  838WAT      O 4071   3.234   1.798   4.413  0.2413  0.4700  0.5268
  838WAT     H1 4072   3.278   1.785   4.339 -1.4167 -0.4684 -0.3391
  838WAT     H2 4073   3.151   1.801   4.387 -0.3139  1.0368  2.2476
  838WAT    EPW 4074   3.228   1.797   4.398 -0.0856  0.4151  0.6531
  839WAT      O 4075   6.039   2.168   1.696  0.2100 -0.0931  0.0182
  839WAT     H1 4076   6.015   2.089   1.725  0.6477  0.3940  1.7912
  839WAT     H2 4077   5.965   2.214   1.699  0.0999 -0.2439 -0.3536
  839WAT    EPW 4078   6.025   2.163   1.701  0.2584 -0.0434  0.2252
  840WAT      O 4079   0.099   4.597   3.569  0.1894  0.6558  0.8098
  840WAT     H1 4080   0.118   4.628   3.489  0.2400  0.7729  0.8663
  840WAT     H2 4081   0.015   4.576   3.564  0.7384 -1.6371 -0.0249
  840WAT    EPW 4082   0.089   4.599   3.556  0.2780  0.3344  0.6948
  841WAT      O 4083   2.270   4.657   0.224  0.0828  0.6989  0.0033
  841WAT     H1 4084   2.189   4.671   0.254  0.0681 -1.1733  0.9469
  841WAT     H2 4085   2.283   4.572   0.238  2.1252  0.8934 -0.4104
  841WAT    EPW 4086   2.260   4.647   0.230  0.3823  0.4511  0.0816
  842WAT      O 4087   6.833   4.948   3.943 -0.0364 -0.7087 -0.8452
  842WAT     H1 4088   6.919   4.936   3.947 -0.0249 -0.6945 -1.0555
  842WAT     H2 4089   6.824   5.016   3.889 -0.1884 -0.8135 -0.9524
  842WAT    EPW 4090   6.844   4.956   3.936 -0.0572 -0.7221 -0.8921
  843WAT      O 4091   0.678   1.412   3.594  0.0459  0.0259 -0.0097
  843WAT     H1 4092   0.688   1.468   3.660 -0.9476  1.7917 -1.2676
  843WAT     H2 4093   0.717   1.452   3.527 -1.7793 -0.1467 -1.2514
  843WAT    EPW 4094   0.686   1.426   3.594 -0.3705  0.2613 -0.3790
  844WAT      O 4095   4.037   2.765   3.105  0.7894 -0.0645  0.1485
  844WAT     H1 4096   4.030   2.847   3.133 -0.9190 -0.1975  0.2170
  844WAT     H2 4097   3.982   2.762   3.037  1.1339 -1.0401 -0.1074
  844WAT    EPW 4098   4.028   2.777   3.099  0.5879 -0.2282  0.1208
  845WAT      O 4099   6.798   4.753   0.745  0.1760 -0.0854  0.1042
  845WAT     H1 4100   6.816   4.788   0.668  0.7871 -1.0482 -0.2080
  845WAT     H2 4101   6.876   4.742   0.782 -0.0875  0.0380  0.7121
  845WAT    EPW 4102   6.812   4.757   0.739  0.2273 -0.2094  0.1479
  846WAT      O 4103   6.881   2.531   2.688  0.5369  0.0028  0.1719
  846WAT     H1 4104   6.871   2.613   2.659 -1.3775 -1.0600 -2.6233
  846WAT     H2 4105   6.819   2.487   2.645  2.9548 -3.3348 -0.2237
  846WAT    EPW 4106   6.870   2.537   2.677  0.6113 -0.6472 -0.2995
  847WAT      O 4107   2.936   1.516   5.231  0.0239  0.4515  0.2312
  847WAT     H1 4108   3.017   1.546   5.234 -0.1321  0.8118  1.8219
  847WAT     H2 4109   2.942   1.435   5.265 -0.4560  1.0347  1.8339
  847WAT    EPW 4110   2.949   1.508   5.237 -0.0701  0.5909  0.7029
  848WAT      O 4111   1.249   6.093   4.422 -0.0391 -0.5309 -0.0407
  848WAT     H1 4112   1.240   6.119   4.339 -1.5120  0.6218  0.4394
  848WAT     H2 4113   1.171   6.110   4.458  0.8456 -0.1530  1.8158
  848WAT    EPW 4114   1.236   6.099   4.415 -0.1260 -0.3048  0.3044
  849WAT      O 4115   6.327   2.427   0.350 -0.2457 -0.5190 -0.2633
  849WAT     H1 4116   6.317   2.456   0.268  2.4442 -0.2126 -0.5795
  849WAT     H2 4117   6.320   2.340   0.342 -0.7492 -0.4455 -0.6772
  849WAT    EPW 4118   6.324   2.418   0.337  0.0773 -0.4629 -0.3711
  850WAT      O 4119   2.158   3.477   0.500 -0.2974 -0.0028  0.1922
  850WAT     H1 4120   2.115   3.552   0.486  1.1333  0.6560 -0.8653
  850WAT     H2 4121   2.096   3.425   0.532 -1.3787  1.5622  0.8151
  850WAT    EPW 4122   2.142   3.481   0.502 -0.2458  0.3257  0.1280
  851WAT      O 4123   4.764   1.152   1.943  0.0877  0.7554 -0.2316
  851WAT     H1 4124   4.827   1.097   1.965 -0.9977 -0.3949  0.0766
  851WAT     H2 4125   4.764   1.211   2.007  1.1553  1.0621 -0.4918
  851WAT    EPW 4126   4.773   1.153   1.956  0.0851  0.6308 -0.2245
  852WAT      O 4127   6.892   2.008   3.953  0.0692  0.0125  0.4368
  852WAT     H1 4128   6.903   1.980   3.871 -1.1241 -0.1313  0.3045
  852WAT     H2 4129   6.919   1.941   4.002  0.4515 -0.0402  0.1544
  852WAT    EPW 4130   6.898   1.994   3.948 -0.0506 -0.0165  0.3755
  853WAT      O 4131   2.325   0.709   4.358  0.3533  0.5867 -0.3488
  853WAT     H1 4132   2.276   0.689   4.288 -0.3805 -0.0885  0.3357
  853WAT     H2 4133   2.404   0.681   4.337 -0.1676 -0.9703 -0.3452
  853WAT    EPW 4134   2.329   0.702   4.344  0.1679  0.2570 -0.2472
  854WAT      O 4135   1.847   6.840   5.694  0.4850 -0.3809 -0.2203
  854WAT     H1 4136   1.829   6.852   5.609 -0.5018 -1.7073 -0.2351
  854WAT     H2 4137   1.870   6.756   5.698  1.3184 -0.1159  0.7071
  854WAT    EPW 4138   1.848   6.830   5.682  0.4623 -0.5377 -0.0855
  855WAT      O 4139   5.357   5.161   1.474  0.6538  0.7063  0.3533
  855WAT     H1 4140   5.418   5.110   1.437  0.7937  1.2584 -0.1945
  855WAT     H2 4141   5.334   5.215   1.409 -0.0523  0.8341  0.7048
  855WAT    EPW 4142   5.363   5.162   1.459  0.5702  0.8068  0.3243
  856WAT      O 4143   3.009   4.656   1.458  0.5697 -0.3540  1.0386
  856WAT     H1 4144   3.002   4.610   1.384 -0.3123 -1.4889  1.8070
  856WAT     H2 4145   2.977   4.735   1.435  0.3541 -0.6739  0.1998
  856WAT    EPW 4146   3.003   4.661   1.444  0.4075 -0.5689  1.0282
  857WAT      O 4147   6.015   3.427   5.289  0.3651 -0.3863 -0.1825
  857WAT     H1 4148   6.081   3.460   5.241  1.6099 -0.8542  1.1366
  857WAT     H2 4149   6.013   3.343   5.267 -0.7017 -0.1239 -1.1885
  857WAT    EPW 4150   6.024   3.420   5.279  0.3914 -0.4167 -0.1362
  858WAT      O 4151   2.122   3.744   3.849  0.2288  0.4429 -0.2920
  858WAT     H1 4152   2.060   3.796   3.816 -0.5798  0.1594  0.7542
  858WAT     H2 4153   2.196   3.783   3.822 -0.3596  0.4213 -2.1214
  858WAT    EPW 4154   2.124   3.758   3.840  0.0224  0.3978 -0.4077
  859WAT      O 4155   1.176   2.606   0.106  0.0580 -1.0158 -0.2147
  859WAT     H1 4156   1.090   2.591   0.102  0.1975 -2.1972  0.6136
  859WAT     H2 4157   1.182   2.692   0.115 -1.0267 -0.8977 -0.5252
  859WAT    EPW 4158   1.164   2.616   0.106 -0.0816 -1.1729 -0.1382
  860WAT      O 4159   0.929   6.155   5.452 -0.1229  0.4900 -0.1152
  860WAT     H1 4160   0.917   6.068   5.451 -0.8586  0.5276  1.7982
  860WAT     H2 4161   0.852   6.186   5.423  0.4533  0.5295 -1.7006
  860WAT    EPW 4162   0.916   6.146   5.448 -0.1465  0.5014 -0.0667
  861WAT      O 4163   3.915   2.842   4.486 -0.1996  0.2968 -0.6317
  861WAT     H1 4164   3.948   2.769   4.454 -2.0198 -1.1962  0.6790
  861WAT     H2 4165   3.876   2.879   4.418  0.8365  0.1312 -1.3324
  861WAT    EPW 4166   3.914   2.837   4.471 -0.3154  0.0518 -0.5416
  862WAT      O 4167   4.895   2.243   5.010  0.6738  0.1306  0.0355
  862WAT     H1 4168   4.940   2.287   4.950  0.1939 -1.7412 -1.7985
  862WAT     H2 4169   4.904   2.160   4.986 -0.3649 -0.6207  2.0126
  862WAT    EPW 4170   4.903   2.238   4.998  0.4495 -0.2569  0.0566
  863WAT      O 4171   4.731   2.466   0.797  0.4477 -0.0269  0.1907
  863WAT     H1 4172   4.680   2.502   0.857 -2.0308 -0.8243 -1.2876
  863WAT     H2 4173   4.675   2.436   0.737  2.7318  1.1759 -2.8231
  863WAT    EPW 4174   4.716   2.467   0.797  0.4190  0.0330 -0.4729
  864WAT      O 4175   4.548   6.949   6.299 -0.0661 -0.1802  0.3402
  864WAT     H1 4176   4.548   6.902   6.372 -2.0570  0.1886  0.6206
  864WAT     H2 4177   4.610   7.009   6.313  0.6629 -1.0706  1.0397
  864WAT    EPW 4178   4.557   6.951   6.312 -0.2525 -0.2573  0.4850
  865WAT      O 4179   1.312   4.462   2.150 -0.1638  0.9119 -0.8015
  865WAT     H1 4180   1.292   4.542   2.177  0.9613  0.5891  1.1692
  865WAT     H2 4181   1.398   4.464   2.139 -0.0776 -0.0997 -0.4354
  865WAT    EPW 4182   1.322   4.474   2.152  0.0152  0.7148 -0.4563
  866WAT      O 4183   5.591   3.989   4.699  0.3429 -0.2268 -0.6287
  866WAT     H1 4184   5.663   3.990   4.748  0.1059 -0.2951 -0.2714
  866WAT     H2 4185   5.528   3.969   4.756 -0.4215  2.6452 -0.3243
  866WAT    EPW 4186   5.592   3.986   4.715  0.1950  0.1874 -0.5310
  867WAT      O 4187   0.564   2.471   1.086  0.1436  0.4058  0.3223
  867WAT     H1 4188   0.517   2.516   1.144 -1.4891  1.2392 -1.5372
  867WAT     H2 4189   0.642   2.511   1.087 -1.1691  3.3304 -1.1133
  867WAT    EPW 4190   0.569   2.484   1.095 -0.2915  0.9609 -0.1645
  868WAT      O 4191   0.413   0.593   4.118 -0.3926 -0.0957  0.0152
  868WAT     H1 4192   0.374   0.650   4.064 -1.0986  1.0844  1.6984
  868WAT     H2 4193   0.353   0.530   4.128 -0.2798 -0.2926 -0.5159
  868WAT    EPW 4194   0.398   0.592   4.111 -0.4803  0.0496  0.1854
  869WAT      O 4195   5.431   5.160   3.533  0.3645 -0.2071  0.1138
  869WAT     H1 4196   5.457   5.100   3.475  2.5501 -0.6178  1.4072
  869WAT     H2 4197   5.422   5.114   3.607 -1.8222  0.4029  0.2936
  869WAT    EPW 4198   5.434   5.144   3.535  0.3643 -0.1777  0.3314
  870WAT      O 4199   6.870   6.255   6.648  0.3651  0.0294  0.0215
  870WAT     H1 4200   6.871   6.168   6.640  1.1254  0.1761 -2.9634
  870WAT     H2 4201   6.953   6.278   6.632  0.1372  1.3294  0.5811
  870WAT    EPW 4202   6.882   6.246   6.644  0.4437  0.2431 -0.3368
  871WAT      O 4203   0.263   0.530   1.681  0.9711  0.8040 -0.1537
  871WAT     H1 4204   0.272   0.617   1.680  0.8344  0.8342  0.8200
  871WAT     H2 4205   0.334   0.502   1.724 -0.0081  0.5816  1.3675
  871WAT    EPW 4206   0.275   0.539   1.687  0.8062  0.7756  0.2148
  872WAT      O 4207   3.967   2.987   3.874  0.0990 -0.0997  0.0907
  872WAT     H1 4208   4.045   3.024   3.886 -0.2869  0.6751  0.2842
  872WAT     H2 4209   3.970   2.916   3.926  0.3993  0.3362  0.6820
  872WAT    EPW 4210   3.979   2.982   3.884  0.0864  0.0792  0.2067
  873WAT      O 4211   2.690   5.054   3.407  0.0193 -0.5500 -0.4976
  873WAT     H1 4212   2.630   5.086   3.462  1.0723  0.3110  0.1673
  873WAT     H2 4213   2.735   4.998   3.457  1.0227  0.2847 -0.4620
  873WAT    EPW 4214   2.688   5.050   3.422  0.3231 -0.2995 -0.3941
  874WAT      O 4215   6.496   6.810   2.639  0.1060 -0.2457 -0.0281
  874WAT     H1 4216   6.501   6.817   2.726 -1.2704 -2.9423  0.3812
  874WAT     H2 4217   6.577   6.784   2.616 -0.0795 -1.6536  0.7894
  874WAT    EPW 4218   6.509   6.807   2.648 -0.1248 -0.8520  0.1531
  875WAT      O 4219   3.592   5.074   1.822  0.9331  0.4039  0.2778
  875WAT     H1 4220   3.553   5.013   1.772  1.3762 -0.0504  0.4802
  875WAT     H2 4221   3.650   5.111   1.768 -0.7514  2.1242 -0.4866
  875WAT    EPW 4222   3.595   5.070   1.806  0.7497  0.5909  0.1948
  876WAT      O 4223   7.272   3.796   0.779 -0.1327 -0.3969  0.3736
  876WAT     H1 4224   7.308   3.843   0.843  1.6075  1.1622 -1.6262
  876WAT     H2 4225   7.187   3.812   0.788 -0.0129 -0.7178  2.6219
  876WAT    EPW 4226   7.265   3.805   0.790  0.1421 -0.2140  0.4103
  877WAT      O 4227   2.111   2.907   1.784 -0.1123  0.3515 -0.3286
  877WAT     H1 4228   2.126   2.957   1.855  1.0800  1.2987 -1.2046
  877WAT     H2 4229   2.183   2.919   1.736 -0.5833 -0.8680 -1.3710
  877WAT    EPW 4230   2.124   2.916   1.788 -0.0057  0.3113 -0.6120
  878WAT      O 4231   1.011   3.193   0.350 -0.1723  0.0029 -0.7055
  878WAT     H1 4232   1.056   3.234   0.288 -1.9565  1.1355 -1.3478
  878WAT     H2 4233   1.057   3.209   0.423  1.2972 -0.3022 -1.5247
  878WAT    EPW 4234   1.024   3.201   0.352 -0.2188  0.1252 -0.9214
  879WAT      O 4235   6.776   0.599   2.886  0.5495 -0.3039 -0.1757
  879WAT     H1 4236   6.784   0.530   2.939  1.3499  0.0460  0.1795
  879WAT     H2 4237   6.773   0.563   2.806 -0.3499 -0.8183  0.0828
  879WAT    EPW 4238   6.777   0.583   2.882  0.5349 -0.3282 -0.0850
  880WAT      O 4239   3.888   0.990   2.792  0.4126 -0.5405  0.1435
  880WAT     H1 4240   3.900   1.076   2.790 -0.9773 -0.3494 -0.6288
  880WAT     H2 4241   3.885   0.967   2.708 -0.2930 -1.1948  0.3369
  880WAT    EPW 4242   3.890   0.999   2.779  0.1030 -0.6089  0.0580
  881WAT      O 4243   4.143   2.412   2.043  0.2644  0.5924 -0.3602
  881WAT     H1 4244   4.085   2.353   2.018 -0.3873  0.8156  0.5575
  881WAT     H2 4245   4.188   2.372   2.106  1.8366  0.0569 -1.7768
  881WAT    EPW 4246   4.141   2.398   2.049  0.4004  0.5462 -0.4339
  882WAT      O 4247   0.048   3.292   1.910  0.0572  0.0935  0.0962
  882WAT     H1 4248  -0.011   3.306   1.847 -0.1785 -0.3701  0.2175
  882WAT     H2 4249   0.119   3.265   1.866 -0.6720 -2.0723  0.1462
  882WAT    EPW 4250   0.050   3.290   1.894 -0.0853 -0.2949  0.1215
  883WAT      O 4251   0.543   3.444   5.707  0.1981  0.0967 -0.6955
  883WAT     H1 4252   0.541   3.523   5.743  1.9697 -0.3391  0.5106
  883WAT     H2 4253   0.461   3.430   5.682 -0.8652  1.0303  1.9481
  883WAT    EPW 4254   0.531   3.453   5.709  0.3027  0.1702 -0.1268
  884WAT      O 4255   0.497   4.621   1.815  0.2216  0.2045 -0.1707
  884WAT     H1 4256   0.566   4.644   1.865 -0.3268  0.1936  0.6137
  884WAT     H2 4257   0.471   4.696   1.781  0.0329  0.3633  0.3099
  884WAT    EPW 4258   0.504   4.635   1.818  0.1127  0.2263  0.0161
  885WAT      O 4259   0.386   5.012   5.908  0.5521  0.1088 -0.2204
  885WAT     H1 4260   0.445   5.058   5.864 -0.1392  1.1478 -0.0883
  885WAT     H2 4261   0.371   5.060   5.979  0.5583 -0.8179  0.4271
  885WAT    EPW 4262   0.392   5.026   5.912  0.4509  0.1254 -0.1053
  886WAT      O 4263   5.646   4.249   6.454 -0.1026  0.1831 -0.0332
  886WAT     H1 4264   5.716   4.290   6.485 -0.2923  2.1856 -1.9921
  886WAT     H2 4265   5.680   4.190   6.398  0.0907  1.4634 -1.3325
  886WAT    EPW 4266   5.661   4.246   6.450 -0.1020  0.6680 -0.5145
  887WAT      O 4267   1.539   6.388   1.383  0.0596  0.1198 -0.1017
  887WAT     H1 4268   1.508   6.384   1.465  2.2450  0.0037  0.8118
  887WAT     H2 4269   1.572   6.468   1.378  0.9586 -0.2550 -0.4377
  887WAT    EPW 4270   1.539   6.399   1.395  0.5152  0.0473 -0.0164
  888WAT      O 4271   1.212   0.090   1.116 -0.1169 -0.0211 -0.2059
  888WAT     H1 4272   1.274   0.110   1.174 -0.5258  0.2166  0.1636
  888WAT     H2 4273   1.144   0.068   1.166 -0.2842 -0.4254 -0.6065
  888WAT    EPW 4274   1.211   0.090   1.132 -0.2020 -0.0457 -0.2105
  889WAT      O 4275   0.985   7.127   2.143  0.0085 -0.6749  0.0882
  889WAT     H1 4276   0.956   7.126   2.225  1.8653 -0.5653  0.7833
  889WAT     H2 4277   0.991   7.043   2.122 -0.3579 -0.7051  0.0985
  889WAT    EPW 4278   0.981   7.115   2.152  0.2287 -0.6632  0.1924
  890WAT      O 4279   4.660   0.472   7.337  0.2510  0.2294 -0.2728
  890WAT     H1 4280   4.605   0.514   7.283 -1.1082  1.3712  1.8668
  890WAT     H2 4281   4.610   0.452   7.405  1.8847 -1.2497  0.5493
  890WAT    EPW 4282   4.645   0.476   7.339  0.2915  0.1796  0.1647
  891WAT      O 4283   5.464   1.065   1.634 -0.3529 -0.1663 -0.6712
  891WAT     H1 4284   5.410   1.107   1.689 -1.5114  0.2179 -2.0472
  891WAT     H2 4285   5.543   1.092   1.659 -0.8819  0.5449  0.3522
  891WAT    EPW 4286   5.468   1.075   1.646 -0.6022 -0.0045 -0.7233
  892WAT      O 4287   4.815   4.585   0.826  0.3993 -0.1599 -0.3001
  892WAT     H1 4288   4.866   4.571   0.895 -0.5667 -0.2452  0.4152
  892WAT     H2 4289   4.815   4.672   0.818  1.9783 -0.2071 -1.3555
  892WAT    EPW 4290   4.822   4.596   0.835  0.4899 -0.1795 -0.3503
  893WAT      O 4291   0.470   0.248   2.536 -0.0004  0.6888 -0.6253
  893WAT     H1 4292   0.516   0.180   2.565  3.0974  2.8275  0.0593
  893WAT     H2 4293   0.486   0.248   2.450 -0.4179  0.2851 -0.7050
  893WAT    EPW 4294   0.479   0.238   2.528  0.3955  0.9451 -0.5360
  894WAT      O 4295   0.838   6.368   6.777  0.0294 -0.1313  0.2502
  894WAT     H1 4296   0.797   6.386   6.851 -1.6272 -1.9471 -0.1315
  894WAT     H2 4297   0.922   6.383   6.795 -0.6348  3.1312  1.2687
  894WAT    EPW 4298   0.844   6.373   6.790 -0.3134  0.0824  0.3443
  895WAT      O 4299   2.124   3.033   2.023 -0.2500 -0.4128  0.0104
  895WAT     H1 4300   2.099   3.032   2.107  0.3326 -0.6304  0.1849
  895WAT     H2 4301   2.204   3.067   2.026 -1.3158  2.5364 -0.7736
  895WAT    EPW 4302   2.132   3.038   2.036 -0.3214 -0.0093 -0.0797
  896WAT      O 4303   3.136   2.398   4.860 -0.0751  0.3071  0.3567
  896WAT     H1 4304   3.141   2.477   4.824  0.1155  0.3640  0.5100
  896WAT     H2 4305   3.051   2.380   4.855 -0.2076  0.7623  0.8310
  896WAT    EPW 4306   3.124   2.407   4.854 -0.0665  0.3828  0.4494
  897WAT      O 4307   0.588   6.583   5.236 -0.0536  0.0958 -0.1571
  897WAT     H1 4308   0.506   6.609   5.254 -0.6699 -1.1221 -1.0769
  897WAT     H2 4309   0.582   6.496   5.234  1.4432 -0.0565  0.4621
  897WAT    EPW 4310   0.575   6.574   5.239  0.0765 -0.1066 -0.2015
  898WAT      O 4311   0.056   5.305   0.559  0.3160  0.3632 -0.2090
  898WAT     H1 4312   0.133   5.333   0.590 -0.0613  0.8002  0.3563
  898WAT     H2 4313   0.008   5.378   0.556  0.4020  0.3896 -2.0497
  898WAT    EPW 4314   0.060   5.320   0.563  0.2730  0.4316 -0.3974
  899WAT      O 4315   3.635   2.178   6.360  0.5733  1.0325  0.3366
  899WAT     H1 4316   3.673   2.132   6.425  1.0402 -0.3830 -0.8886
  899WAT     H2 4317   3.697   2.181   6.299 -0.6851  0.1519 -1.0386
  899WAT    EPW 4318   3.650   2.172   6.361  0.4564  0.6933 -0.0475
  900WAT      O 4319   1.379   5.257   6.400  0.0608  0.3571 -0.3389
  900WAT     H1 4320   1.301   5.225   6.377  0.6290  0.0013 -1.9335
  900WAT     H2 4321   1.422   5.261   6.324  2.1130 -0.8385  0.6744
  900WAT    EPW 4322   1.374   5.253   6.385  0.4479  0.1279 -0.4248
  901WAT      O 4323   2.544   3.295   6.035  0.5969 -0.3248  0.1340
  901WAT     H1 4324   2.534   3.329   6.115 -0.5932  0.2134 -0.2027
  901WAT     H2 4325   2.553   3.210   6.050  0.5201 -0.2194  0.8540
  901WAT    EPW 4326   2.544   3.288   6.049  0.4098 -0.2297  0.1906
  902WAT      O 4327   1.229   4.086   0.028 -0.3019 -0.1910  0.1693
  902WAT     H1 4328   1.308   4.112   0.001 -0.1450 -0.1968  0.6044
  902WAT     H2 4329   1.232   4.101   0.114 -1.3824  1.3828 -0.0231
  902WAT    EPW 4330   1.241   4.092   0.037 -0.4384  0.0406  0.2052
  903WAT      O 4331   1.546   4.254   3.998  0.0955  0.0262 -0.0659
  903WAT     H1 4332   1.539   4.288   3.918 -0.9932 -1.1004 -0.4880
  903WAT     H2 4333   1.601   4.186   3.987 -1.6356 -1.4116 -0.3656
  903WAT    EPW 4334   1.553   4.249   3.984 -0.3210 -0.3526 -0.1725
  904WAT      O 4335   6.791   0.176   6.020  0.0615 -0.0595  0.4189
  904WAT     H1 4336   6.705   0.162   6.033  0.2451 -0.1468  1.5821
  904WAT     H2 4337   6.826   0.167   6.099  1.0804  0.5761  0.0555
  904WAT    EPW 4338   6.783   0.173   6.033  0.2391  0.0215  0.5370
  905WAT      O 4339   0.318   2.773   2.006 -0.1961  0.3474  0.1529
  905WAT     H1 4340   0.276   2.834   2.051 -0.5904  0.8305 -0.8667
  905WAT     H2 4341   0.388   2.756   2.056 -0.2049  1.4478  0.5617
  905WAT    EPW 4342   0.322   2.779   2.020 -0.2556  0.5813  0.0627
  906WAT      O 4343   2.543   2.226   4.723 -0.3979 -0.1250 -0.0105
  906WAT     H1 4344   2.544   2.270   4.647 -1.2166  0.2210  0.1678
  906WAT     H2 4345   2.467   2.183   4.720  0.0084 -0.8908  0.1910
  906WAT    EPW 4346   2.532   2.226   4.711 -0.4588 -0.1870  0.0456
  907WAT      O 4347   5.384   3.749   1.223 -0.6141  0.2731 -0.7021
  907WAT     H1 4348   5.413   3.817   1.176  1.4271  1.0913  1.5026
  907WAT     H2 4349   5.360   3.785   1.298 -1.4410 -1.2432 -0.2048
  907WAT    EPW 4350   5.385   3.765   1.227 -0.4347  0.1700 -0.3030
  908WAT      O 4351   7.106   1.178   3.389 -0.4972 -0.3939 -0.5798
  908WAT     H1 4352   7.076   1.102   3.360  0.6682 -1.1601  0.1416
  908WAT     H2 4353   7.192   1.165   3.397 -0.4955  0.3842  1.2416
  908WAT    EPW 4354   7.114   1.165   3.386 -0.3248 -0.3921 -0.2041
  909WAT      O 4355   3.025   5.273   6.607  0.9732  0.1788 -0.1030
  909WAT     H1 4356   3.014   5.243   6.526  0.8699  1.6271 -0.6602
  909WAT     H2 4357   2.943   5.290   6.633  1.1223  1.8683 -0.5997
  909WAT    EPW 4358   3.011   5.271   6.599  0.9799  0.6423 -0.2587
  910WAT      O 4359   3.836   0.197   5.149  0.5728 -0.0122 -0.1905
  910WAT     H1 4360   3.913   0.180   5.113  1.3583  0.7566  1.0631
  910WAT     H2 4361   3.800   0.255   5.094  1.1449  0.0694 -0.4887
  910WAT    EPW 4362   3.842   0.203   5.135  0.7733  0.1135 -0.0494
  911WAT      O 4363   0.930   6.356   6.343  0.3538  0.2843 -0.0486
  911WAT     H1 4364   0.922   6.379   6.259  2.6501  1.5870 -0.0005
  911WAT     H2 4365   0.982   6.286   6.340 -0.9953 -0.7654  0.2324
  911WAT    EPW 4366   0.937   6.349   6.330  0.4937  0.3217  0.0000
  912WAT      O 4367   2.978   1.475   1.734 -0.0189  0.0992  0.4901
  912WAT     H1 4368   2.973   1.558   1.707  1.0294  0.1685  0.4528
  912WAT     H2 4369   2.899   1.443   1.717  0.3104  0.3662 -1.9957
  912WAT    EPW 4370   2.966   1.483   1.727  0.1846  0.1489  0.1174
  913WAT      O 4371   0.241   0.171   0.155  0.4999 -0.6727  0.1742
  913WAT     H1 4372   0.270   0.226   0.216  0.2159  0.4346 -0.6685
  913WAT     H2 4373   0.156   0.164   0.173  0.2241  0.4010 -0.6417
  913WAT    EPW 4374   0.233   0.178   0.167  0.4172 -0.3505 -0.0708
  914WAT      O 4375   3.037   1.848   6.493  0.1241 -0.9039  0.1335
  914WAT     H1 4376   3.104   1.793   6.497  0.0123 -1.1083 -0.6498
  914WAT     H2 4377   3.060   1.905   6.431 -0.5485 -1.1648 -0.3754
  914WAT    EPW 4378   3.050   1.848   6.484  0.0082 -0.9726 -0.0574
  915WAT      O 4379   6.343   4.839   6.778  0.3843 -0.2137  0.6399
  915WAT     H1 4380   6.287   4.787   6.736 -0.1710  2.1736 -1.8114
  915WAT     H2 4381   6.405   4.856   6.719  1.5317  0.4501  1.9679
  915WAT    EPW 4382   6.344   4.834   6.763  0.4718  0.2370  0.4740
  916WAT      O 4383   2.462   4.666   0.786 -0.3986  0.2499 -0.4768
  916WAT     H1 4384   2.547   4.648   0.789 -0.5597 -0.6003 -0.6454
  916WAT     H2 4385   2.442   4.657   0.701 -0.4957  1.2479 -0.5640
  916WAT    EPW 4386   2.471   4.662   0.774 -0.4367  0.2718 -0.5146
  917WAT      O 4387   1.736   2.853   0.988 -0.0049 -0.5684  0.1836
  917WAT     H1 4388   1.823   2.856   0.989  0.0109  0.9192 -1.4689
  917WAT     H2 4389   1.713   2.893   1.062  0.7010 -1.0860  0.6905
  917WAT    EPW 4390   1.745   2.859   0.999  0.1017 -0.4251  0.0143
  918WAT      O 4391   3.003   2.721   6.603  0.0837  0.1438 -0.5407
  918WAT     H1 4392   2.953   2.680   6.660  1.3283  0.3713  0.7842
  918WAT     H2 4393   3.069   2.751   6.652  0.3453  1.7980 -1.8114
  918WAT    EPW 4394   3.005   2.720   6.619  0.3062  0.4218 -0.5327
  919WAT      O 4395   6.877   0.614   4.696 -0.3865 -0.1020 -0.1706
  919WAT     H1 4396   6.923   0.649   4.630 -0.0924  0.9026  0.5267
  919WAT     H2 4397   6.825   0.679   4.721 -0.9491 -0.6755  0.1751
  919WAT    EPW 4398   6.876   0.629   4.690 -0.4262 -0.0383 -0.0166
  920WAT      O 4399   1.047   4.914   7.132  0.3269 -0.1482  0.4976
  920WAT     H1 4400   1.074   4.944   7.055  0.3047 -0.8309  0.2171
  920WAT     H2 4401   0.965   4.887   7.116  0.6732 -1.2622  0.4782
  920WAT    EPW 4402   1.039   4.914   7.118  0.3748 -0.4136  0.4533
  921WAT      O 4403   3.686   2.211   5.626 -0.3687 -0.5686  0.1377
  921WAT     H1 4404   3.610   2.195   5.586 -0.7111 -0.0974  0.5902
  921WAT     H2 4405   3.668   2.278   5.678  0.2599 -0.7075  0.5431
  921WAT    EPW 4406   3.672   2.219   5.628 -0.3264 -0.5195  0.2644
  922WAT      O 4407   0.700   2.802   6.155 -1.0150  0.1543  0.2897
  922WAT     H1 4408   0.761   2.749   6.188 -0.4675  0.9749  0.6280
  922WAT     H2 4409   0.648   2.819   6.223 -1.0279  0.2755  0.2501
  922WAT    EPW 4410   0.701   2.796   6.170 -0.9360  0.2934  0.3338
  923WAT      O 4411   0.217   6.495   4.430  0.5574  0.1950 -0.5281
  923WAT     H1 4412   0.173   6.501   4.505  1.0823 -1.9888  0.0311
  923WAT     H2 4413   0.299   6.512   4.453  0.7374 -0.5833 -0.5530
  923WAT    EPW 4414   0.223   6.498   4.444  0.6615 -0.2425 -0.4492
  924WAT      O 4415   4.850   6.485   7.231  0.4882  0.3521  0.1585
  924WAT     H1 4416   4.919   6.527   7.200 -0.4182  1.8392  0.0931
  924WAT     H2 4417   4.866   6.478   7.317 -0.1155  2.4076  0.4766
  924WAT    EPW 4418   4.863   6.490   7.239  0.2651  0.8754  0.1958
  925WAT      O 4419   6.070   6.743   6.429  0.0084  0.1492 -0.1151
  925WAT     H1 4420   6.070   6.657   6.415 -0.1295  0.2640 -0.8637
  925WAT     H2 4421   6.108   6.751   6.507  1.2513 -0.4954 -0.6254
  925WAT    EPW 4422   6.075   6.731   6.439  0.1717  0.0709 -0.3010
  926WAT      O 4423   6.150   1.887   1.048 -0.2447  0.7690 -0.0613
  926WAT     H1 4424   6.177   1.967   1.071 -0.3404  0.6394  0.5277
  926WAT     H2 4425   6.204   1.864   0.983 -0.1235  1.2508 -0.1350
  926WAT    EPW 4426   6.162   1.896   1.042 -0.2409  0.8210  0.0148
  927WAT      O 4427   6.479   4.128   5.140 -0.2778 -0.1203  0.5121
  927WAT     H1 4428   6.526   4.095   5.075  0.0662  0.1036  0.6424
  927WAT     H2 4429   6.525   4.199   5.164 -0.3210 -0.2897  1.1011
  927WAT    EPW 4430   6.493   4.134   5.134 -0.2334 -0.1122  0.6184
  928WAT      O 4431   0.423   3.388   3.399 -0.0390 -0.3561  0.0046
  928WAT     H1 4432   0.436   3.348   3.476  0.5862  0.5811  0.3995
  928WAT     H2 4433   0.499   3.378   3.357 -0.9285 -2.4093 -1.2590
  928WAT    EPW 4434   0.436   3.380   3.404 -0.0781 -0.5210 -0.1237
  929WAT      O 4435   3.898   0.579   6.122 -0.6296 -0.4612  0.1988
  929WAT     H1 4436   3.952   0.601   6.187  1.6341  0.0612 -1.7297
  929WAT     H2 4437   3.886   0.654   6.080 -2.8082 -0.6078  0.4470
  929WAT    EPW 4438   3.904   0.593   6.126 -0.6170 -0.4057 -0.0494
  930WAT      O 4439   4.156   1.502   0.410  0.2833  0.0804 -0.5561
  930WAT     H1 4440   4.180   1.574   0.366 -0.8987  0.8111 -0.0505
  930WAT     H2 4441   4.069   1.502   0.404  0.2080 -0.7840  0.2647
  930WAT    EPW 4442   4.147   1.513   0.403  0.0975  0.0606 -0.3602
  931WAT      O 4443   6.095   6.377   1.462  0.3794  0.0193 -0.3311
  931WAT     H1 4444   6.054   6.427   1.403  1.1840  0.2457 -0.7078
  931WAT     H2 4445   6.053   6.394   1.536  0.3112  0.8579 -0.5572
  931WAT    EPW 4446   6.083   6.387   1.464  0.4882  0.1766 -0.4202
  932WAT      O 4447   5.399   6.567   3.954  0.0395 -0.3362  0.1513
  932WAT     H1 4448   5.452   6.632   3.980  0.9036 -0.8925 -0.1946
  932WAT     H2 4449   5.429   6.546   3.875 -0.6362 -0.7504 -0.0078
  932WAT    EPW 4450   5.411   6.574   3.946  0.0674 -0.4796  0.0767
  933WAT      O 4451   4.154   6.418   0.968  0.2455  0.1078  0.0150
  933WAT     H1 4452   4.237   6.418   0.994  0.1526 -0.0149  0.3317
  933WAT     H2 4453   4.159   6.415   0.881  0.5719 -0.0570  0.0373
  933WAT    EPW 4454   4.167   6.417   0.959  0.2800  0.0653  0.0651
  934WAT      O 4455   2.614   5.035   0.624  0.3868  0.0716 -0.6472
  934WAT     H1 4456   2.597   5.119   0.605 -1.5681 -0.5805 -2.2560
  934WAT     H2 4457   2.553   5.015   0.684  0.0083 -0.4774 -1.1944
  934WAT    EPW 4458   2.602   5.044   0.630  0.0421 -0.1058 -0.9657
  935WAT      O 4459   2.582   1.272   7.298  0.5258  0.3537  0.0416
  935WAT     H1 4460   2.550   1.242   7.373  0.6483 -0.2604 -0.1490
  935WAT     H2 4461   2.512   1.302   7.256  0.1168 -1.3214 -0.5337
  935WAT    EPW 4462   2.567   1.272   7.303  0.4835  0.0155 -0.0716
  936WAT      O 4463   2.775   0.168   5.441 -0.0302 -0.0567 -0.5615
  936WAT     H1 4464   2.835   0.132   5.389  0.4137 -0.7678  0.4106
  936WAT     H2 4465   2.719   0.205   5.385  0.9093 -0.0120 -1.5141
  936WAT    EPW 4466   2.776   0.168   5.425  0.1742 -0.1551 -0.5586
  937WAT      O 4467   0.766   3.985   1.023 -0.3746  0.4622  0.0047
  937WAT     H1 4468   0.816   3.940   1.078  0.1082  0.7202 -0.2163
  937WAT     H2 4469   0.784   4.068   1.042 -0.1816  0.5512 -0.5668
  937WAT    EPW 4470   0.776   3.991   1.034 -0.2748  0.5134 -0.1123
  938WAT      O 4471   1.422   4.290   5.753 -0.3823  0.3535  0.0320
  938WAT     H1 4472   1.359   4.230   5.755  1.0272 -1.2952 -1.4424
  938WAT     H2 4473   1.394   4.348   5.695  0.1652 -1.3566 -2.0975
  938WAT    EPW 4474   1.409   4.289   5.745 -0.0932 -0.1426 -0.5003
  939WAT      O 4475   3.940   2.239   3.905  0.1604 -0.1300  0.1284
  939WAT     H1 4476   3.946   2.326   3.901 -0.9794 -0.0708 -0.6712
  939WAT     H2 4477   4.021   2.213   3.888  0.4628  0.7631  0.1248
  939WAT    EPW 4478   3.953   2.248   3.902  0.0367  0.0107  0.0097
  940WAT      O 4479   4.479   6.925   1.088  0.2648 -0.0352  0.3959
  940WAT     H1 4480   4.398   6.917   1.118  0.6598 -0.6781  1.3545
  940WAT     H2 4481   4.469   6.928   1.002 -0.7511 -0.5983  0.4749
  940WAT    EPW 4482   4.466   6.924   1.080  0.1731 -0.2134  0.5492
  941WAT      O 4483   1.280   3.292   4.943 -0.4155  0.5020 -0.4414
  941WAT     H1 4484   1.309   3.234   5.001  2.4036 -0.4305 -2.5314
  941WAT     H2 4485   1.349   3.346   4.931 -0.8789  0.7069 -2.7418
  941WAT    EPW 4486   1.295   3.292   4.950 -0.0675  0.3945 -1.0900
  942WAT      O 4487   2.632   0.268   5.228  0.0897 -0.0854 -0.1047
  942WAT     H1 4488   2.550   0.244   5.211  0.2056 -0.4285 -0.1769
  942WAT     H2 4489   2.678   0.234   5.162  0.2067  0.6645 -0.4248
  942WAT    EPW 4490   2.627   0.260   5.216  0.1241 -0.0253 -0.1627
  943WAT      O 4491   5.860   3.028   2.567 -0.3127  0.6144 -0.0787
  943WAT     H1 4492   5.942   3.058   2.557  0.9732 -2.2078  0.7497
  943WAT     H2 4493   5.843   2.989   2.491  0.0928 -0.7712  0.5090
  943WAT    EPW 4494   5.870   3.027   2.554 -0.0628 -0.0072  0.1305
  944WAT      O 4495   2.400   6.913   3.057  0.2198  0.0351  0.5993
  944WAT     H1 4496   2.447   6.847   3.090  0.1909 -0.2289  0.1329
  944WAT     H2 4497   2.370   6.880   2.982 -1.6001 -0.1730  1.3752
  944WAT    EPW 4498   2.402   6.898   3.051 -0.0533 -0.0347  0.6450
  945WAT      O 4499   4.731   2.407   6.353 -0.4887 -0.0351 -0.2704
  945WAT     H1 4500   4.739   2.461   6.285 -1.4046 -0.4878 -0.7447
  945WAT     H2 4501   4.808   2.365   6.355 -0.1564  0.5580 -0.5160
  945WAT    EPW 4502   4.744   2.409   6.344 -0.5749 -0.0143 -0.3768
  946WAT      O 4503   5.576   2.529   3.465 -0.2257  0.0296 -0.2647
  946WAT     H1 4504   5.588   2.616   3.466 -1.5285  0.2387 -0.6351
  946WAT     H2 4505   5.501   2.520   3.421  0.5880 -1.3848 -1.4239
  946WAT    EPW 4506   5.567   2.541   3.459 -0.2980 -0.1485 -0.4907
  947WAT      O 4507   2.291   1.001   4.384  0.2839 -0.0947  0.0307
  947WAT     H1 4508   2.213   1.023   4.350  0.1382 -0.1098  0.3536
  947WAT     H2 4509   2.292   0.914   4.378 -0.1858 -0.1749  1.0233
  947WAT    EPW 4510   2.279   0.991   4.378  0.1930 -0.1087  0.2250
  948WAT      O 4511   6.370   0.659   5.680  0.7196  0.0489  0.3208
  948WAT     H1 4512   6.285   0.640   5.673  0.6762  0.0394  0.8451
  948WAT     H2 4513   6.402   0.641   5.601 -0.1357  1.9350 -0.5100
  948WAT    EPW 4514   6.362   0.654   5.667  0.5869  0.3261  0.2755
  949WAT      O 4515   5.242   6.507   4.372 -0.1158 -0.1110  0.2777
  949WAT     H1 4516   5.248   6.534   4.455  0.5355 -1.2223  0.6274
  949WAT     H2 4517   5.320   6.469   4.358  0.3704  1.3561 -1.3432
  949WAT    EPW 4518   5.255   6.505   4.383  0.0523 -0.0584  0.0900
  950WAT      O 4519   6.180   2.152   3.507  0.3308 -0.2597  0.0937
  950WAT     H1 4520   6.238   2.091   3.531  0.4436 -0.3280 -0.3484
  950WAT     H2 4521   6.148   2.121   3.432  2.0173  1.2854 -1.3715
  950WAT    EPW 4522   6.184   2.138   3.500  0.5966 -0.0416 -0.1880
  951WAT      O 4523   0.113   0.191   4.677  0.3677 -0.8784  0.6955
  951WAT     H1 4524   0.063   0.125   4.704 -1.0213  0.0012  0.3960
  951WAT     H2 4525   0.176   0.195   4.737  0.5241 -2.4947  0.6750
  951WAT    EPW 4526   0.115   0.182   4.690  0.1856 -0.9872  0.6482
  952WAT      O 4527   1.926   6.368   0.003  0.2205  0.0562 -0.3267
  952WAT     H1 4528   1.945   6.289  -0.029  0.1244 -0.3112  0.4928
  952WAT     H2 4529   1.859   6.353   0.056  2.0247  0.1302  2.1612
  952WAT    EPW 4530   1.919   6.354   0.006  0.4728  0.0128  0.1619
  953WAT      O 4531   2.258   3.728   3.492 -0.0715  0.3138  0.6346
  953WAT     H1 4532   2.215   3.802   3.475 -0.6068 -0.1085  0.1165
  953WAT     H2 4533   2.299   3.711   3.416 -0.5797 -0.3357  0.5011
  953WAT    EPW 4534   2.258   3.736   3.478 -0.2256  0.1555  0.5383
  954WAT      O 4535   6.430   2.285   1.398  0.1132  0.0389  0.0518
  954WAT     H1 4536   6.416   2.213   1.445  1.1399 -1.0371 -1.2455
  954WAT     H2 4537   6.489   2.261   1.339  0.2824  1.8749 -0.5997
  954WAT    EPW 4538   6.437   2.271   1.396  0.2899  0.1512 -0.2361
  955WAT      O 4539   0.531   3.940   6.829  0.7282 -0.3884  0.0566
  955WAT     H1 4540   0.536   3.857   6.853  1.4284 -0.2492  0.4006
  955WAT     H2 4541   0.446   3.959   6.840  0.2811 -1.4259 -1.3293
  955WAT    EPW 4542   0.519   3.931   6.834  0.7656 -0.5211 -0.0973
  956WAT      O 4543   4.110   2.340   6.289 -0.6866  0.2136 -0.4367
  956WAT     H1 4544   4.104   2.325   6.375 -1.7224 -0.8515 -0.6577
  956WAT     H2 4545   4.062   2.412   6.277 -0.3386  0.5038 -0.0960
  956WAT    EPW 4546   4.102   2.348   6.300 -0.7882  0.0992 -0.4190
  957WAT      O 4547   0.556   4.734   4.357  0.3080 -0.4667 -0.3099
  957WAT     H1 4548   0.479   4.711   4.390  1.1795 -0.1587  2.1318
  957WAT     H2 4549   0.536   4.797   4.300 -1.2703 -0.7849 -0.1504
  957WAT    EPW 4550   0.542   4.740   4.354  0.2036 -0.4682  0.0743
  958WAT      O 4551   2.886   1.851   5.265 -0.2180  0.7602 -0.1985
  958WAT     H1 4552   2.830   1.792   5.294 -0.0791  0.0001 -1.4247
  958WAT     H2 4553   2.952   1.804   5.233 -1.0988  1.3824 -3.3167
  958WAT    EPW 4554   2.888   1.836   5.265 -0.3276  0.7398 -0.8402
  959WAT      O 4555   4.392   5.628   5.091  0.4330 -0.0546  0.4197
  959WAT     H1 4556   4.409   5.543   5.094  0.1805 -0.0785  1.5643
  959WAT     H2 4557   4.344   5.637   5.019 -0.3148 -1.0230  0.7880
  959WAT    EPW 4558   4.388   5.617   5.080  0.2853 -0.2012  0.6432
  960WAT      O 4559   3.177   1.043   0.014 -0.0088  0.3812  0.4361
  960WAT     H1 4560   3.222   0.973  -0.011 -0.7998 -0.1084  0.3364
  960WAT     H2 4561   3.236   1.093   0.053  0.9022  0.3986 -0.9176
  960WAT    EPW 4562   3.192   1.040   0.016  0.0089  0.3114  0.2214
  961WAT      O 4563   0.383   5.804   6.001  0.3809  0.0091 -0.0210
  961WAT     H1 4564   0.458   5.787   6.042  0.1118 -0.9254  0.1139
  961WAT     H2 4565   0.349   5.870   6.047 -0.1532 -1.3379  1.6273
  961WAT    EPW 4566   0.389   5.811   6.014  0.2622 -0.3279  0.2424
  962WAT      O 4567   5.193   6.453   7.313  0.3164 -0.1372 -0.0293
  962WAT     H1 4568   5.266   6.404   7.308  0.3736  0.0626 -2.3044
  962WAT     H2 4569   5.190   6.476   7.397  0.6965 -3.3835  1.0091
  962WAT    EPW 4570   5.204   6.450   7.324  0.3810 -0.5873 -0.2120
  963WAT      O 4571   3.009   0.844   4.727  0.2066  0.3083 -0.7012
  963WAT     H1 4572   3.021   0.884   4.651 -0.7270 -0.5411 -1.3165
  963WAT     H2 4573   2.968   0.770   4.706 -0.6185  0.3224  0.6668
  963WAT    EPW 4574   3.004   0.839   4.713 -0.0532  0.1849 -0.5900
  964WAT      O 4575   5.726   0.977   5.536  0.0855 -0.1414 -0.2346
  964WAT     H1 4576   5.716   0.988   5.450  0.9983 -2.3542 -0.6982
  964WAT     H2 4577   5.797   0.928   5.543  0.6367  0.8253  1.8887
  964WAT    EPW 4578   5.735   0.971   5.525  0.3018 -0.3255  0.0106
  965WAT      O 4579   2.644   2.513   5.640 -0.0096  0.3006  0.2367
  965WAT     H1 4580   2.606   2.454   5.692 -1.4453  0.8790 -0.0961
  965WAT     H2 4581   2.668   2.576   5.695 -0.2161  0.2639  0.3716
  965WAT    EPW 4582   2.642   2.514   5.655 -0.2522  0.3806  0.2074
  966WAT      O 4583   5.892   2.088   1.260 -0.7759 -0.2077 -0.2374
  966WAT     H1 4584   5.948   2.149   1.231 -1.3116  1.1775  1.4405
  966WAT     H2 4585   5.934   2.053   1.328 -1.7328  0.6400  0.8535
  966WAT    EPW 4586   5.907   2.092   1.266 -0.9964  0.1221  0.1716
  967WAT      O 4587   6.598   0.326   5.124 -0.3244 -0.6705 -0.1532
  967WAT     H1 4588   6.619   0.347   5.206  0.9787  2.9558 -1.2436
  967WAT     H2 4589   6.662   0.273   5.099  1.3945  1.1807  0.1184
  967WAT    EPW 4590   6.610   0.321   5.133  0.1220  0.1386 -0.2741
  968WAT      O 4591   6.783   0.138   5.048 -0.0184  0.0202  0.5056
  968WAT     H1 4592   6.743   0.061   5.056  0.8998 -0.4116  1.2249
  968WAT     H2 4593   6.867   0.118   5.061  0.1867  1.2137  1.1349
  968WAT    EPW 4594   6.790   0.124   5.051  0.1475  0.1327  0.7048
  969WAT      O 4595   5.887   4.639   1.419 -0.3892  0.4106 -0.9325
  969WAT     H1 4596   5.805   4.613   1.405 -0.0904 -0.2205 -1.6174
  969WAT     H2 4597   5.935   4.575   1.383  0.3853  2.3482 -3.7641
  969WAT    EPW 4598   5.882   4.626   1.411 -0.2306  0.6036 -1.4519
  970WAT      O 4599   0.016   1.956   4.719  0.2098 -0.0998  0.2728
  970WAT     H1 4600  -0.042   1.948   4.655  1.4852 -0.5625 -0.8611
  970WAT     H2 4601   0.050   2.036   4.708 -1.1652  0.7647  1.8128
  970WAT    EPW 4602   0.013   1.966   4.708  0.1951 -0.0404  0.3328
  971WAT      O 4603   1.411   5.387   0.682 -0.0673 -0.4251 -0.3102
  971WAT     H1 4604   1.384   5.422   0.758  0.8941  0.6246 -0.4341
  971WAT     H2 4605   1.339   5.387   0.633 -0.3812  0.1773  0.1382
  971WAT    EPW 4606   1.396   5.392   0.686  0.0283 -0.1810 -0.2622
  972WAT      O 4607   1.047   6.772   3.899 -0.2038 -0.3814  0.0076
  972WAT     H1 4608   1.034   6.746   3.817  3.2780  0.1020 -0.8657
  972WAT     H2 4609   1.033   6.701   3.946  0.4670 -1.4488 -1.3395
  972WAT    EPW 4610   1.043   6.758   3.894  0.4096 -0.4677 -0.3204
  973WAT      O 4611   2.432   0.146   6.473  0.1054 -0.4193  0.2504
  973WAT     H1 4612   2.489   0.081   6.477 -0.0997 -0.5857  0.4926
  973WAT     H2 4613   2.380   0.125   6.406 -0.7357 -1.1486  1.1027
  973WAT    EPW 4614   2.432   0.133   6.463 -0.0492 -0.5516  0.4121
  974WAT      O 4615   6.141   6.150   3.955  0.1076 -0.0985  0.3070
  974WAT     H1 4616   6.098   6.207   3.905  1.0489  0.9097  0.6072
  974WAT     H2 4617   6.213   6.193   3.978  0.0112 -0.7670  2.0084
  974WAT    EPW 4618   6.145   6.165   3.951  0.2324 -0.0483  0.6027
  975WAT      O 4619   0.881   1.698   2.655 -0.1227  0.4638 -0.1503
  975WAT     H1 4620   0.872   1.612   2.647  0.2294  0.3777  0.3660
  975WAT     H2 4621   0.912   1.722   2.578 -1.7203  0.3539 -0.8798
  975WAT    EPW 4622   0.884   1.689   2.643 -0.3067  0.4348 -0.1818
  976WAT      O 4623   5.601   1.075   3.023 -0.1586  0.3700 -0.3445
  976WAT     H1 4624   5.646   1.150   3.022 -1.7300  1.3762 -1.2476
  976WAT     H2 4625   5.549   1.082   2.954 -2.0570 -0.4740  0.9167
  976WAT    EPW 4626   5.600   1.087   3.013 -0.6711  0.3940 -0.2916
  977WAT      O 4627   0.844   0.400   5.299 -0.1283  0.5683 -1.0282
  977WAT     H1 4628   0.762   0.377   5.318 -0.5153  1.3450 -1.6982
  977WAT     H2 4629   0.835   0.471   5.250  0.9865  1.1139 -0.4738
  977WAT    EPW 4630   0.831   0.407   5.294 -0.0208  0.7636 -1.0453
  978WAT      O 4631   4.929   1.863   6.318 -0.4137 -0.0928  0.1290
  978WAT     H1 4632   4.972   1.925   6.361 -0.2925 -0.8504  1.1587
  978WAT     H2 4633   4.912   1.898   6.241  2.4656  0.0539 -0.5162
  978WAT    EPW 4634   4.933   1.877   6.313  0.0296 -0.1830  0.1858
  979WAT      O 4635   1.934   0.856   7.256  0.5630 -0.3285  0.0376
  979WAT     H1 4636   1.981   0.919   7.294 -0.9615  1.4147 -0.8161
  979WAT     H2 4637   1.889   0.899   7.194 -0.1489 -2.3566 -0.9158
  979WAT    EPW 4638   1.934   0.872   7.253  0.2326 -0.3706 -0.2293
  980WAT      O 4639   4.858   1.818   0.478 -0.7901  0.2523  0.1651
  980WAT     H1 4640   4.824   1.769   0.541  0.3457 -1.3019 -0.3531
  980WAT     H2 4641   4.789   1.844   0.431 -1.4125 -1.1835  0.2570
  980WAT    EPW 4642   4.843   1.815   0.480 -0.7143 -0.1894  0.1021
  981WAT      O 4643   6.657   3.371   6.446 -0.3920  0.1500  0.4814
  981WAT     H1 4644   6.640   3.285   6.452 -1.0659  0.2204 -0.3268
  981WAT     H2 4645   6.737   3.373   6.411 -0.5867 -0.1430  0.0133
  981WAT    EPW 4646   6.666   3.358   6.442 -0.5203  0.1171  0.2928
  982WAT      O 4647   1.029   3.292   2.709  0.0581  0.4787  0.2486
  982WAT     H1 4648   1.072   3.367   2.696  2.0065 -0.7650 -1.0399
  982WAT     H2 4649   0.981   3.284   2.636 -0.3244  0.5567  0.4873
  982WAT    EPW 4650   1.028   3.302   2.696  0.2894  0.3065  0.0935
  983WAT      O 4651   3.962   2.655   5.559 -0.5874  0.5993 -0.3362
  983WAT     H1 4652   3.947   2.741   5.565  0.2557  0.6354  2.9605
  983WAT     H2 4653   4.049   2.649   5.559 -0.6337 -0.2818 -1.0758
  983WAT    EPW 4654   3.972   2.667   5.560 -0.4697  0.4745  0.0415
  984WAT      O 4655   3.960   6.949   0.212 -0.1730  0.2434  0.3533
  984WAT     H1 4656   3.912   6.996   0.156 -0.0932  0.2202  0.2657
  984WAT     H2 4657   4.005   6.895   0.160 -0.4216 -0.0770  0.4640
  984WAT    EPW 4658   3.959   6.948   0.196 -0.1979  0.1927  0.3567
  985WAT      O 4659   3.840   4.408   2.896 -0.1878  0.3982  0.1023
  985WAT     H1 4660   3.833   4.493   2.914 -0.5054  0.3530  0.1867
  985WAT     H2 4661   3.803   4.369   2.964  0.9747  0.1553  0.6104
  985WAT    EPW 4662   3.834   4.415   2.909 -0.0630  0.3557  0.1898
  986WAT      O 4663   6.444   3.026   3.429 -0.0002 -0.3163  0.0636
  986WAT     H1 4664   6.482   3.105   3.430  1.9269 -1.1866  0.8259
  986WAT     H2 4665   6.368   3.040   3.469  0.3090  1.1596  0.1978
  986WAT    EPW 4666   6.438   3.040   3.435  0.3301 -0.2268  0.1960
  987WAT      O 4667   1.209   2.410   1.300  0.3209 -0.5210  0.5944
  987WAT     H1 4668   1.175   2.414   1.381  0.9837  1.2467  0.8253
  987WAT     H2 4669   1.159   2.350   1.260  0.3070 -1.8437  2.4443
  987WAT    EPW 4670   1.197   2.401   1.306  0.4168 -0.4553  0.9018
  988WAT      O 4671   2.888   5.168   3.685  0.0665  0.2205  0.0300
  988WAT     H1 4672   2.951   5.226   3.670  0.1280  0.4348  1.0984
  988WAT     H2 4673   2.920   5.118   3.748  0.4697 -1.6938 -1.5753
  988WAT    EPW 4674   2.902   5.169   3.692  0.1352 -0.0306 -0.0493
  989WAT      O 4675   4.549   5.041   4.404  0.3542 -0.3638 -0.2842
  989WAT     H1 4676   4.606   5.003   4.349  0.3419  0.1473 -0.6668
  989WAT     H2 4677   4.484   4.984   4.410  0.1536 -0.2409 -1.1623
  989WAT    EPW 4678   4.548   5.027   4.397  0.3227 -0.2702 -0.4704
  990WAT      O 4679   2.373   3.814   5.074 -0.1393  0.2450 -0.6199
  990WAT     H1 4680   2.459   3.809   5.068 -0.1143  1.1796 -1.2412
  990WAT     H2 4681   2.359   3.869   5.141 -0.2647 -0.3559 -0.1464
  990WAT    EPW 4682   2.383   3.821   5.083 -0.1541  0.2943 -0.6417
  991WAT      O 4683   6.362   6.671   3.153  0.4367  0.4484 -0.0271
  991WAT     H1 4684   6.419   6.646   3.215 -0.7380  3.3293  2.4732
  991WAT     H2 4685   6.412   6.681   3.082  1.9824 -2.3792  0.5399
  991WAT    EPW 4686   6.378   6.669   3.152  0.4915  0.4563  0.4260
  992WAT      O 4687   2.839   3.961   4.083  0.3191  0.1742 -0.5014
  992WAT     H1 4688   2.810   3.942   4.163 -0.2819  2.0327 -0.2287
  992WAT     H2 4689   2.855   4.046   4.087  1.8316  0.0040 -1.9165
  992WAT    EPW 4690   2.838   3.971   4.096  0.4538  0.4236 -0.6702
  993WAT      O 4691   3.816   0.597   2.284  0.1714 -0.3720  0.3077
  993WAT     H1 4692   3.821   0.578   2.199  1.1924  1.0465  0.0150
  993WAT     H2 4693   3.745   0.646   2.290  0.6146  0.3057  0.0963
  993WAT    EPW 4694   3.806   0.601   2.272  0.3877 -0.0623  0.2332
  994WAT      O 4695   6.160   5.142   0.299  0.5530  0.0325 -0.1468
  994WAT     H1 4696   6.205   5.187   0.239  0.2030 -1.0689 -1.2806
  994WAT     H2 4697   6.082   5.131   0.261 -0.5214  1.3747  1.5111
  994WAT    EPW 4698   6.155   5.147   0.284  0.3426  0.0681 -0.0694
  995WAT      O 4699   0.135   4.888   3.073  0.1334  0.1153 -0.3850
  995WAT     H1 4700   0.115   4.962   3.115 -0.9515 -0.5431  0.2985
  995WAT     H2 4701   0.058   4.861   3.042  0.6916 -0.1709 -1.6000
  995WAT    EPW 4702   0.120   4.895   3.075  0.0556 -0.0242 -0.4635
  996WAT      O 4703   2.261   6.854   1.403 -0.1401 -0.3002 -0.6676
  996WAT     H1 4704   2.319   6.896   1.353 -0.6514 -0.2071 -1.1968
  996WAT     H2 4705   2.207   6.918   1.430 -0.3604 -0.4711 -0.6957
  996WAT    EPW 4706   2.261   6.870   1.399 -0.2482 -0.3117 -0.7499
  997WAT      O 4707   0.343   4.782   3.702 -0.4434  0.3929 -0.6899
  997WAT     H1 4708   0.300   4.828   3.642 -0.3175  0.4485 -0.7363
  997WAT     H2 4709   0.406   4.835   3.728 -1.3775  0.9534  0.5615
  997WAT    EPW 4710   0.346   4.797   3.697 -0.5628  0.4839 -0.5119
  998WAT      O 4711   0.654   5.538   6.304 -0.1724 -0.4275  0.0254
  998WAT     H1 4712   0.723   5.585   6.329  0.0544 -1.6644  1.8552
  998WAT     H2 4713   0.665   5.461   6.344 -1.3501 -1.5311 -1.6097
  998WAT    EPW 4714   0.666   5.533   6.313 -0.3129 -0.7732  0.0542
  999WAT      O 4715   6.325   3.012   1.088 -0.1279 -0.1663  0.1961
  999WAT     H1 4716   6.384   2.982   1.031 -1.8288 -0.3620 -1.5669
  999WAT     H2 4717   6.252   3.021   1.040 -1.7752 -0.6694  2.3981
  999WAT    EPW 4718   6.323   3.009   1.073 -0.6225 -0.2695  0.2609
 1000WAT      O 4719   3.695   2.988   2.757 -0.2421 -0.6394  0.3737
 1000WAT     H1 4720   3.774   2.994   2.721 -0.1797 -1.4991  0.3300
 1000WAT     H2 4721   3.641   3.019   2.697  0.0331 -0.3791  0.2625
 1000WAT    EPW 4722   3.699   2.993   2.743 -0.1922 -0.7280  0.3508
 1001WAT      O 4723   5.153   1.302   3.413  0.1626 -0.5785 -0.1824
 1001WAT     H1 4724   5.201   1.315   3.341  0.0357  1.5137  0.0696
 1001WAT     H2 4725   5.101   1.372   3.416  2.0153  0.9000  3.4048
 1001WAT    EPW 4726   5.153   1.314   3.403  0.4175 -0.0510  0.3847
 1002WAT      O 4727   0.184   4.490   2.214  0.5028  0.1016 -0.3956
 1002WAT     H1 4728   0.102   4.487   2.244  0.0960 -1.1679 -1.5288
 1002WAT     H2 4729   0.176   4.529   2.136  1.2275  1.3763  0.1340
 1002WAT    EPW 4730   0.170   4.495   2.207  0.5497  0.1024 -0.4847
 1003WAT      O 4731   0.951   4.109   3.791  0.1254  0.1252 -0.4512
 1003WAT     H1 4732   0.924   4.064   3.721  1.8193 -0.3288 -0.8567
 1003WAT     H2 4733   0.980   4.048   3.845 -1.0708  0.4833  0.6552
 1003WAT    EPW 4734   0.951   4.094   3.789  0.1989  0.1110 -0.3477
 1004WAT      O 4735   2.652   4.319   0.589 -0.2416  0.1473 -0.1638
 1004WAT     H1 4736   2.605   4.279   0.651  0.1413 -0.8515 -0.4849
 1004WAT     H2 4737   2.638   4.269   0.519  0.4873  0.4221 -0.5121
 1004WAT    EPW 4738   2.643   4.305   0.588 -0.0773  0.0404 -0.2627
 1005WAT      O 4739   6.535   3.387   0.421  0.0163 -0.1206 -0.5707
 1005WAT     H1 4740   6.449   3.378   0.417 -0.0925 -0.9540  1.7934
 1005WAT     H2 4741   6.548   3.472   0.404 -0.7800 -0.6159 -4.7831
 1005WAT    EPW 4742   6.525   3.398   0.418 -0.1174 -0.3169 -0.8437
 1006WAT      O 4743   7.245   1.558   1.428  0.1962 -0.0956  0.2369
 1006WAT     H1 4744   7.280   1.509   1.365 -0.5576  0.4615 -0.6574
 1006WAT     H2 4745   7.216   1.628   1.385  0.8832  0.9546  1.4198
 1006WAT    EPW 4746   7.246   1.561   1.412  0.1863  0.1418  0.2796
 1007WAT      O 4747   7.243   3.207   5.149 -0.1818 -0.0329  0.3250
 1007WAT     H1 4748   7.325   3.178   5.143 -0.8523 -1.9298 -0.1081
 1007WAT     H2 4749   7.252   3.294   5.145  1.6627 -0.2470 -1.5252
 1007WAT    EPW 4750   7.256   3.216   5.148 -0.0084 -0.3447 -0.0123
 1008WAT      O 4751   0.138   2.687   5.240  0.0766 -0.3473 -0.2797
 1008WAT     H1 4752   0.069   2.712   5.191  0.7661 -0.3623 -1.2914
 1008WAT     H2 4753   0.122   2.603   5.257 -0.6997 -0.0643  0.4453
 1008WAT    EPW 4754   0.125   2.679   5.235  0.0638 -0.3077 -0.3221
 1009WAT      O 4755   2.257   6.734   6.649  0.8918 -0.1630  0.2225
 1009WAT     H1 4756   2.261   6.813   6.612  0.0927  0.2502  0.9795
 1009WAT     H2 4757   2.215   6.749   6.724  2.0762 -1.0401  1.0991
 1009WAT    EPW 4758   2.252   6.748   6.655  0.9487 -0.2315  0.4638
 1010WAT      O 4759   6.972   5.818   1.275  0.0395  0.3813 -0.1850
 1010WAT     H1 4760   6.885   5.822   1.266 -0.0560 -0.2896  0.3462
 1010WAT     H2 4761   7.002   5.855   1.202 -0.6884  0.2696 -0.5482
 1010WAT    EPW 4762   6.963   5.824   1.263 -0.0821  0.2657 -0.1602
 1011WAT      O 4763   5.561   4.972   4.638 -0.5307  0.1725  0.1663
 1011WAT     H1 4764   5.645   4.977   4.660 -0.6519  0.6857  0.5416
 1011WAT     H2 4765   5.537   5.055   4.628 -1.2214  0.0879  0.9910
 1011WAT    EPW 4766   5.570   4.985   4.640 -0.6506  0.2358  0.3436
 1012WAT      O 4767   0.370   4.016   1.240 -0.0600 -0.3478  0.3465
 1012WAT     H1 4768   0.448   4.051   1.259  0.0646  0.1211 -0.9206
 1012WAT     H2 4769   0.341   4.065   1.174 -0.0432 -2.3875 -1.2901
 1012WAT    EPW 4770   0.377   4.028   1.233 -0.0391 -0.5799 -0.0824
 1013WAT      O 4771   0.459   5.694   4.017  0.3572  0.0787 -0.0059
 1013WAT     H1 4772   0.543   5.706   3.994  1.0034  0.1351  2.1563
 1013WAT     H2 4773   0.435   5.624   3.972  2.0586 -0.8272  0.4211
 1013WAT    EPW 4774   0.468   5.686   4.007  0.7040 -0.0468  0.3766
 1014WAT      O 4775   1.074   2.552   7.027 -1.0598  0.0645 -0.4808
 1014WAT     H1 4776   1.049   2.541   7.110 -1.3738  1.5726 -0.3457
 1014WAT     H2 4777   1.065   2.473   6.992 -0.0895 -0.8004  1.1281
 1014WAT    EPW 4778   1.069   2.539   7.034 -0.9628  0.1595 -0.2231
 1015WAT      O 4779   5.642   1.610   2.312  0.3457 -0.0582 -0.4386
 1015WAT     H1 4780   5.560   1.623   2.285  0.3791  1.2946  0.0402
 1015WAT     H2 4781   5.634   1.603   2.398  0.7306  0.0110 -0.3990
 1015WAT    EPW 4782   5.628   1.611   2.321  0.4075  0.1518 -0.3620
 1016WAT      O 4783   4.953   5.368   5.334 -0.0741 -0.2473  0.3606
 1016WAT     H1 4784   4.966   5.428   5.396  1.2063 -0.1955  0.0734
 1016WAT     H2 4785   4.985   5.406   5.262 -3.2171  0.4584 -0.7954
 1016WAT    EPW 4786   4.960   5.382   5.333 -0.3493 -0.1354  0.1474
 1017WAT      O 4787   4.979   1.000   5.578 -0.2201 -0.4451 -0.1081
 1017WAT     H1 4788   5.044   0.994   5.636 -0.0028 -2.2601 -0.4568
 1017WAT     H2 4789   4.907   0.985   5.626 -0.7919  3.7947  0.7347
 1017WAT    EPW 4790   4.978   0.997   5.594 -0.2725 -0.0869 -0.0351
 1018WAT      O 4791   4.048   1.136   3.066 -0.3599  0.0545  0.4721
 1018WAT     H1 4792   4.025   1.052   3.074  1.0026 -0.3422  0.3985
 1018WAT     H2 4793   4.015   1.173   3.138  0.0087 -0.7691  1.0716
 1018WAT    EPW 4794   4.040   1.129   3.078 -0.1042 -0.1257  0.5498
 1019WAT      O 4795   1.193   2.556   6.619 -0.8264 -0.4189 -0.3680
 1019WAT     H1 4796   1.265   2.542   6.665 -0.4123  0.5486 -0.6864
 1019WAT     H2 4797   1.158   2.626   6.658  0.2253  1.2634 -2.2722
 1019WAT    EPW 4798   1.198   2.565   6.632 -0.6098 -0.0275 -0.6963
 1020WAT      O 4799   1.168   0.864   4.095 -0.7701 -0.0975 -0.1864
 1020WAT     H1 4800   1.115   0.808   4.135  1.1818 -1.0266  1.2854
 1020WAT     H2 4801   1.189   0.823   4.021 -0.9719 -0.3559 -0.1029
 1020WAT    EPW 4802   1.163   0.849   4.090 -0.5116 -0.2729  0.0433
 1021WAT      O 4803   2.917   2.843   2.168  0.3425  0.2051 -0.5104
 1021WAT     H1 4804   2.909   2.927   2.187  0.8239  0.1780 -0.1510
 1021WAT     H2 4805   2.851   2.827   2.113 -1.0707  0.3297  1.0590
 1021WAT    EPW 4806   2.906   2.853   2.163  0.2049  0.2195 -0.2255
 1022WAT      O 4807   0.547   4.331   6.343 -0.0388 -0.3007 -0.5189
 1022WAT     H1 4808   0.518   4.327   6.425 -0.9838  3.2078 -0.5309
 1022WAT     H2 4809   0.478   4.309   6.296  0.4871 -2.2580 -0.4463
 1022WAT    EPW 4810   0.533   4.327   6.348 -0.1007 -0.0715 -0.5100
 1023WAT      O 4811   6.565   2.839   4.611 -0.3477  0.1306 -0.4692
 1023WAT     H1 4812   6.522   2.893   4.664 -0.4709  0.7215 -1.1491
 1023WAT     H2 4813   6.558   2.761   4.650  0.3230  0.6948  0.8258
 1023WAT    EPW 4814   6.557   2.836   4.625 -0.2668  0.3012 -0.3783
 1024WAT      O 4815   2.966   4.755   0.573  0.0513 -0.3244 -0.7893
 1024WAT     H1 4816   3.052   4.766   0.561  0.1106 -0.7680 -0.7831
 1024WAT     H2 4817   2.932   4.829   0.543  0.6365  1.2367  2.0294
 1024WAT    EPW 4818   2.974   4.768   0.566  0.1465 -0.1594 -0.3720
 1025WAT      O 4819   6.360   4.641   2.704 -0.7292  0.1327  0.0038
 1025WAT     H1 4820   6.304   4.657   2.769 -1.3305  2.4237 -0.9637
 1025WAT     H2 4821   6.311   4.648   2.632  0.5313  0.9762 -0.8174
 1025WAT    EPW 4822   6.345   4.645   2.703 -0.6318  0.5958 -0.2605
 1026WAT      O 4823   3.771   0.513   1.216 -0.4279 -0.3656  0.3887
 1026WAT     H1 4824   3.796   0.436   1.183  0.3608 -0.7460  1.7692
 1026WAT     H2 4825   3.816   0.571   1.169  0.7950 -0.8956  0.8664
 1026WAT    EPW 4826   3.781   0.511   1.204 -0.1307 -0.5001  0.6632
 1027WAT      O 4827   2.084   1.455   3.046  0.2664 -0.1420  0.1390
 1027WAT     H1 4828   2.052   1.447   3.127 -0.2138  1.1435  0.0986
 1027WAT     H2 4829   2.044   1.527   3.016  2.8498  1.3076 -0.0669
 1027WAT    EPW 4830   2.073   1.465   3.054  0.5771  0.2620  0.1026
 1028WAT      O 4831   4.203   3.655   0.122 -0.7587  0.0379 -0.5812
 1028WAT     H1 4832   4.200   3.582   0.075 -0.0733 -1.3203  1.3752
 1028WAT     H2 4833   4.289   3.672   0.129 -0.6699 -0.9964  1.8280
 1028WAT    EPW 4834   4.215   3.647   0.116 -0.6444 -0.3155  0.0637
 1029WAT      O 4835   5.792   4.949   1.919  0.1060 -0.0695 -0.3444
 1029WAT     H1 4836   5.824   4.868   1.917  1.1376  0.3245 -1.8652
 1029WAT     H2 4837   5.760   4.960   1.838  1.3051  1.4892 -0.6728
 1029WAT    EPW 4838   5.792   4.939   1.906  0.4355  0.2190 -0.6176
 1030WAT      O 4839   3.879   3.979   0.554 -0.4342 -0.4349  0.1649
 1030WAT     H1 4840   3.797   3.952   0.564 -0.9930  0.7357 -0.9671
 1030WAT     H2 4841   3.890   3.980   0.468  0.8004 -0.6141  0.2955
 1030WAT    EPW 4842   3.869   3.975   0.543 -0.3344 -0.2884  0.0170
 1031WAT      O 4843   0.431   3.535   4.887  1.5459 -0.3135 -0.4490
 1031WAT     H1 4844   0.401   3.565   4.810 -1.1815 -1.0949  0.1722
 1031WAT     H2 4845   0.394   3.589   4.945 -0.7591 -2.6623  0.4928
 1031WAT    EPW 4846   0.421   3.547   4.884  0.8025 -0.7759 -0.2181
 1032WAT      O 4847   3.494   6.746   2.731  0.0326  0.6290  0.2610
 1032WAT     H1 4848   3.502   6.688   2.666  2.3754  0.2758  0.7743
 1032WAT     H2 4849   3.551   6.809   2.709 -2.0761  2.5538 -0.0167
 1032WAT    EPW 4850   3.504   6.747   2.718  0.0672  0.8611  0.2958
 1033WAT      O 4851   5.391   0.534   3.075  0.2887  1.0209 -0.8584
 1033WAT     H1 4852   5.427   0.457   3.056 -0.0441 -0.1344  2.6044
 1033WAT     H2 4853   5.306   0.516   3.082  0.1171  1.8559 -0.6884
 1033WAT    EPW 4854   5.384   0.520   3.073  0.2142  0.9736 -0.3218
 1034WAT      O 4855   4.717   0.763   4.010 -0.4133  0.4246 -0.0847
 1034WAT     H1 4856   4.741   0.687   4.047 -0.1569 -0.5263 -2.0656
 1034WAT     H2 4857   4.640   0.780   4.048  0.1903 -0.0524  1.4366
 1034WAT    EPW 4858   4.709   0.754   4.021 -0.2863  0.2137 -0.1526
 1035WAT      O 4859   0.066   1.071   1.297  0.4224  0.2660 -0.3707
 1035WAT     H1 4860   0.116   1.063   1.226 -0.4349 -0.5201 -0.9086
 1035WAT     H2 4861   0.001   1.015   1.283 -0.1209  0.5837  0.7388
 1035WAT    EPW 4862   0.064   1.062   1.285  0.2155  0.1968 -0.2862
 1036WAT      O 4863   1.480   1.736   4.177 -0.5388  0.1659  0.1542
 1036WAT     H1 4864   1.497   1.784   4.105 -0.2721 -0.3265 -0.1177
 1036WAT     H2 4865   1.550   1.683   4.183 -1.6714 -1.5166 -0.6541
 1036WAT    EPW 4866   1.493   1.735   4.167 -0.6667 -0.1554 -0.0053
 1037WAT      O 4867   3.795   3.938   1.642 -0.6943  0.5708 -0.2710
 1037WAT     H1 4868   3.746   3.885   1.691  1.6205 -1.5075  0.0275
 1037WAT     H2 4869   3.784   3.908   1.561  0.2700 -0.1501 -0.1586
 1037WAT    EPW 4870   3.786   3.926   1.638 -0.2099  0.1573 -0.2103
 1038WAT      O 4871   4.563   1.320   5.974 -0.0125 -0.0786 -0.8350
 1038WAT     H1 4872   4.511   1.267   5.928 -2.0580  1.0950 -0.0547
 1038WAT     H2 4873   4.509   1.385   5.998  2.2651  2.1833 -1.4127
 1038WAT    EPW 4874   4.547   1.322   5.971  0.0218  0.4289 -0.8051
 1039WAT      O 4875   0.330   5.386   2.425  0.2970 -0.0360 -0.1797
 1039WAT     H1 4876   0.303   5.465   2.402 -0.1210 -0.2195 -0.3360
 1039WAT     H2 4877   0.346   5.394   2.511  0.5989  0.3062 -0.2654
 1039WAT    EPW 4878   0.329   5.399   2.434  0.2798 -0.0126 -0.2155
 1040WAT      O 4879   2.531   2.486   5.333 -0.5854  0.0117 -0.6997
 1040WAT     H1 4880   2.511   2.571   5.331  0.4898  0.2861 -0.2984
 1040WAT     H2 4881   2.537   2.468   5.418  0.2420 -0.1982 -0.7937
 1040WAT    EPW 4882   2.529   2.496   5.345 -0.3043  0.0212 -0.6543
 1041WAT      O 4883   6.741   2.225   3.971  0.3979  0.2156 -0.2662
 1041WAT     H1 4884   6.795   2.157   3.981  0.4510  0.2574 -0.2648
 1041WAT     H2 4885   6.789   2.292   3.998 -0.3887 -0.0031  1.8115
 1041WAT    EPW 4886   6.756   2.225   3.976  0.2895  0.1895  0.0410
 1042WAT      O 4887   1.590   5.946   1.077  0.4360  0.1853  0.0609
 1042WAT     H1 4888   1.506   5.966   1.081  0.3081 -0.1669 -0.6629
 1042WAT     H2 4889   1.591   5.868   1.039  1.0850  0.1592  0.1152
 1042WAT    EPW 4890   1.578   5.937   1.072  0.5130  0.1294 -0.0380
 1043WAT      O 4891   1.335   1.076   2.602 -0.1533  0.4093  0.6041
 1043WAT     H1 4892   1.337   1.032   2.526  1.3081  1.8161 -0.2418
 1043WAT     H2 4893   1.301   1.019   2.658 -0.0641 -1.1379 -0.8392
 1043WAT    EPW 4894   1.331   1.061   2.599  0.0758  0.3885  0.2659
 1044WAT      O 4895   4.480   2.885   3.195  0.0764 -0.4960  0.4063
 1044WAT     H1 4896   4.461   2.890   3.280 -0.6485  0.1537  0.2127
 1044WAT     H2 4897   4.428   2.821   3.165 -2.0807  1.3970 -0.1583
 1044WAT    EPW 4898   4.469   2.876   3.203 -0.3493 -0.1204  0.2943
 1045WAT      O 4899   2.701   0.968   1.098  0.0722  0.2820 -0.3139
 1045WAT     H1 4900   2.692   0.886   1.126 -1.4473  0.2155 -0.9221
 1045WAT     H2 4901   2.741   0.960   1.021 -0.0246  0.1192 -0.3466
 1045WAT    EPW 4902   2.706   0.955   1.091 -0.1666  0.2481 -0.4086
 1046WAT      O 4903   5.067   6.003   5.157 -0.2425 -0.0714 -0.5644
 1046WAT     H1 4904   5.146   5.985   5.123 -0.8430 -0.3884 -1.8523
 1046WAT     H2 4905   5.037   5.925   5.180  0.4132  0.1998  1.3716
 1046WAT    EPW 4906   5.074   5.989   5.155 -0.2343 -0.0782 -0.4686
 1047WAT      O 4907   2.305   3.341   5.175  0.4430 -0.0382  0.3663
 1047WAT     H1 4908   2.377   3.336   5.127  0.0536 -1.9170 -0.0995
 1047WAT     H2 4909   2.333   3.375   5.250  1.9904 -1.3772  0.4537
 1047WAT    EPW 4910   2.320   3.345   5.179  0.6141 -0.5135  0.3104
 1048WAT      O 4911   2.410   5.969   0.181  0.6376 -0.0177 -0.3760
 1048WAT     H1 4912   2.490   6.002   0.198  0.3113  0.3666  0.4857
 1048WAT     H2 4913   2.386   6.009   0.107  0.7979  0.6918 -0.0526
 1048WAT    EPW 4914   2.419   5.980   0.173  0.6131  0.1439 -0.2009
 1049WAT      O 4915   2.108   4.301   2.834  0.2715  0.7296 -0.6131
 1049WAT     H1 4916   2.064   4.226   2.824 -0.1483  0.9351 -0.2854
 1049WAT     H2 4917   2.182   4.286   2.790  1.2120 -0.7477  1.3094
 1049WAT    EPW 4918   2.113   4.287   2.826  0.3484  0.5417 -0.2807
 1050WAT      O 4919   5.763   4.142   3.231 -0.1651  0.1947  0.7940
 1050WAT     H1 4920   5.772   4.214   3.183 -0.2165  0.3175  0.9683
 1050WAT     H2 4921   5.788   4.167   3.311  0.9045 -0.2723  0.6201
 1050WAT    EPW 4922   5.768   4.157   3.236 -0.0147  0.1438  0.7941
 1051WAT      O 4923   1.057   7.008   2.593 -0.2137 -0.6142  0.6919
 1051WAT     H1 4924   1.049   6.921   2.586  0.8057 -0.5894 -1.9074
 1051WAT     H2 4925   1.141   7.022   2.573 -0.3936  0.9916  0.9464
 1051WAT    EPW 4926   1.068   6.997   2.589 -0.0897 -0.3733  0.3455
 1052WAT      O 4927   6.038   2.569   3.984 -0.6713 -0.3322  0.2937
 1052WAT     H1 4928   6.007   2.501   4.029 -0.7915 -0.5142 -0.0570
 1052WAT     H2 4929   6.007   2.638   4.028  1.4236 -0.4205  2.0616
 1052WAT    EPW 4930   6.029   2.569   3.997 -0.3796 -0.3722  0.5030
 1053WAT      O 4931   0.196   5.737   0.430  0.1663  0.0856 -0.0252
 1053WAT     H1 4932   0.236   5.814   0.423 -0.6023  0.5010  0.0696
 1053WAT     H2 4933   0.218   5.695   0.357  1.3573  0.0182  0.3578
 1053WAT    EPW 4934   0.205   5.742   0.418  0.2287  0.1370  0.0454
 1054WAT      O 4935   6.564   5.990   6.159  0.1331  0.3532 -0.1962
 1054WAT     H1 4936   6.492   6.035   6.137  0.6032  1.2483  0.0544
 1054WAT     H2 4937   6.533   5.911   6.178 -0.8173  0.7648  0.0544
 1054WAT    EPW 4938   6.549   5.985   6.159  0.0621  0.5462 -0.1222
 1055WAT      O 4939   4.672   6.172   6.216  0.3206  0.2577  0.2804
 1055WAT     H1 4940   4.690   6.104   6.164  1.5012  1.1870 -0.5991
 1055WAT     H2 4941   4.751   6.199   6.241 -0.1979 -0.2027  2.6954
 1055WAT    EPW 4942   4.687   6.166   6.212  0.4184  0.3270  0.5072
 1056WAT      O 4943   3.659   6.147   5.967  0.2256  0.1461  0.7133
 1056WAT     H1 4944   3.704   6.189   5.906  1.5683 -0.2706  1.3969
 1056WAT     H2 4945   3.691   6.066   5.965 -0.8299 -0.3035  0.8926
 1056WAT    EPW 4946   3.670   6.141   5.958  0.2681  0.0181  0.8408
 1057WAT      O 4947   4.394   5.656   5.955  0.6164 -0.2537  0.2869
 1057WAT     H1 4948   4.480   5.657   5.941  0.7776  2.0741  1.0602
 1057WAT     H2 4949   4.360   5.677   5.878  0.9168  1.3185  0.5500
 1057WAT    EPW 4950   4.401   5.659   5.942  0.6846  0.3224  0.4400
 1058WAT      O 4951   4.977   5.695   0.158 -0.0545  0.0285 -0.0343
 1058WAT     H1 4952   4.922   5.712   0.224  0.8876 -0.2695  0.8550
 1058WAT     H2 4953   5.031   5.764   0.158  0.8788 -0.6714  0.5167
 1058WAT    EPW 4954   4.977   5.708   0.168  0.2225 -0.1189  0.1784
 1059WAT      O 4955   5.069   2.046   6.504  0.4823  0.1625 -0.5790
 1059WAT     H1 4956   5.025   2.116   6.479 -0.7879 -0.4748 -0.2128
 1059WAT     H2 4957   5.146   2.054   6.462  0.6152  2.0488 -0.0724
 1059WAT    EPW 4958   5.074   2.057   6.494  0.3143  0.3470 -0.4501
 1060WAT      O 4959   1.259   6.050   1.703 -0.1259  0.0973 -0.2157
 1060WAT     H1 4960   1.206   6.031   1.770  0.2551 -0.3107 -0.0283
 1060WAT     H2 4961   1.329   6.086   1.741  0.5007 -0.9918 -0.2946
 1060WAT    EPW 4962   1.261   6.052   1.719  0.0229 -0.1238 -0.1997
 1061WAT      O 4963   0.984   5.670   7.011  0.0164 -0.0726  0.0086
 1061WAT     H1 4964   0.918   5.706   6.965 -0.9110 -1.7289 -0.0265
 1061WAT     H2 4965   1.055   5.690   6.964 -0.7025 -0.0881 -1.1233
 1061WAT    EPW 4966   0.985   5.679   6.997 -0.2268 -0.3196 -0.1638
 1062WAT      O 4967   4.723   0.934   6.067  0.0778  0.0660 -0.1920
 1062WAT     H1 4968   4.743   0.858   6.105 -0.3988 -0.1155 -0.2972
 1062WAT     H2 4969   4.663   0.969   6.121 -0.8354 -0.3366 -0.9275
 1062WAT    EPW 4970   4.717   0.928   6.081 -0.1275 -0.0203 -0.3162
 1063WAT      O 4971   6.196   0.085   0.250  0.4894  0.8445 -0.6462
 1063WAT     H1 4972   6.118   0.048   0.236  0.4523  1.2912 -1.6891
 1063WAT     H2 4973   6.175   0.167   0.272  0.6582  0.9875 -1.0114
 1063WAT    EPW 4974   6.181   0.091   0.251  0.5089  0.9316 -0.8542
 1064WAT      O 4975   0.615   1.490   6.626  0.3957  0.4420  0.0555
 1064WAT     H1 4976   0.680   1.515   6.678  0.1063  1.9873 -0.2703
 1064WAT     H2 4977   0.590   1.414   6.659  1.1507  0.7093  1.3064
 1064WAT    EPW 4978   0.621   1.483   6.638  0.4645  0.7098  0.1922
 1065WAT      O 4979   2.002   6.965   4.258 -0.3754  0.5914  0.0566
 1065WAT     H1 4980   2.008   6.895   4.310 -2.8007  1.3606  1.5612
 1065WAT     H2 4981   2.017   6.934   4.179 -0.0430 -1.3609  0.8358
 1065WAT    EPW 4982   2.005   6.950   4.254 -0.6846  0.4166  0.3940
 1066WAT      O 4983   1.915   5.076   4.501  0.0336  0.0080  0.0906
 1066WAT     H1 4984   1.911   5.157   4.533 -2.5000  0.8924 -2.1228
 1066WAT     H2 4985   1.895   5.026   4.570 -0.0380  1.3673  1.1000
 1066WAT    EPW 4986   1.911   5.080   4.516 -0.3512  0.3394 -0.0873
 1067WAT      O 4987   5.401   0.654   5.840 -0.4539 -0.2078 -0.2843
 1067WAT     H1 4988   5.481   0.620   5.844  1.0257  3.0149  1.0589
 1067WAT     H2 4989   5.378   0.661   5.924 -3.0548 -2.6753 -0.6359
 1067WAT    EPW 4990   5.409   0.650   5.853 -0.6195 -0.0962 -0.1378
 1068WAT      O 4991   1.027   2.996   2.480 -0.5577 -0.3494 -0.4869
 1068WAT     H1 4992   1.064   2.968   2.554 -0.9232  2.9073  1.1082
 1068WAT     H2 4993   0.952   2.952   2.478 -0.2190 -1.0427  0.6968
 1068WAT    EPW 4994   1.021   2.985   2.491 -0.5616  0.0292 -0.0764
 1069WAT      O 4995   4.096   1.430   4.968  0.0797 -0.1558 -0.1366
 1069WAT     H1 4996   4.135   1.431   5.046 -1.9383 -0.2407  0.9310
 1069WAT     H2 4997   4.039   1.496   4.972  0.3993  0.2714 -1.8199
 1069WAT    EPW 4998   4.093   1.440   4.980 -0.1712 -0.1052 -0.2276
 1070WAT      O 4999   0.744   2.383   7.005 -0.0905 -0.4787 -0.3209
 1070WAT     H1 5000   0.817   2.335   6.999  0.2546  0.2115 -1.9814
 1070WAT     H2 5001   0.770   2.455   7.046 -0.0713 -0.6472 -0.0309
 1070WAT    EPW 5002   0.758   2.387   7.010 -0.0367 -0.4016 -0.5233
 1071WAT      O 5003   0.646   0.515   3.408  0.3742 -0.7237 -0.1679
 1071WAT     H1 5004   0.571   0.525   3.450  0.4283 -0.5726 -0.1074
 1071WAT     H2 5005   0.667   0.431   3.422 -0.2915 -1.0501 -1.0281
 1071WAT    EPW 5006   0.638   0.504   3.416  0.2838 -0.7496 -0.2860
 1072WAT      O 5007   7.059   1.327   5.382 -0.0653  0.4195 -0.0459
 1072WAT     H1 5008   7.140   1.294   5.387 -1.0586 -2.1306  0.7933
 1072WAT     H2 5009   7.040   1.345   5.465 -1.0629 -0.9656  0.0545
 1072WAT    EPW 5010   7.068   1.325   5.395 -0.3594 -0.1618  0.0929
 1073WAT      O 5011   2.702   4.608   3.190 -0.1953  0.4018  1.0584
 1073WAT     H1 5012   2.623   4.636   3.215 -0.8794 -1.2421  0.8833
 1073WAT     H2 5013   2.691   4.589   3.106  0.4929  0.4730  0.9518
 1073WAT    EPW 5014   2.688   4.609   3.181 -0.1947  0.1695  1.0168
 1074WAT      O 5015   6.262   1.696   0.605 -0.3918  0.3846 -0.2020
 1074WAT     H1 5016   6.278   1.675   0.522  1.4730 -2.9849  0.7920
 1074WAT     H2 5017   6.184   1.662   0.621 -0.9983  1.5177 -0.6574
 1074WAT    EPW 5018   6.253   1.688   0.595 -0.2059  0.0543 -0.1224
 1075WAT      O 5019   5.593   2.192   4.625 -0.4608  0.2923 -0.2409
 1075WAT     H1 5020   5.593   2.149   4.701 -0.1091  1.5336  0.5062
 1075WAT     H2 5021   5.671   2.232   4.625  0.3422 -1.0942 -2.1322
 1075WAT    EPW 5022   5.605   2.192   4.636 -0.2902  0.2709 -0.4099
 1076WAT      O 5023   5.090   1.212   7.202 -0.0200  0.3490  0.2000
 1076WAT     H1 5024   5.018   1.212   7.251 -0.0729  0.1685  0.1239
 1076WAT     H2 5025   5.122   1.292   7.212  0.2410  0.1584  0.9238
 1076WAT    EPW 5026   5.084   1.223   7.211  0.0108  0.2942  0.2957
 1077WAT      O 5027   6.889   0.865   0.933 -0.5954  0.3374  0.0678
 1077WAT     H1 5028   6.866   0.781   0.934 -1.3267  0.5192  1.6979
 1077WAT     H2 5029   6.823   0.904   0.891  0.0503  0.0399 -1.2547
 1077WAT    EPW 5030   6.876   0.859   0.927 -0.6081  0.3203  0.1132
 1078WAT      O 5031   2.640   2.820   3.560 -0.6318 -0.3783  0.1610
 1078WAT     H1 5032   2.630   2.760   3.497  0.0029 -1.0372  0.6666
 1078WAT     H2 5033   2.663   2.772   3.630  0.2693  0.4928  0.4816
 1078WAT    EPW 5034   2.642   2.804   3.561 -0.4049 -0.3469  0.2830
 1079WAT      O 5035   0.145   0.721   1.945 -0.9086  0.2669  0.0255
 1079WAT     H1 5036   0.231   0.714   1.959 -0.5994 -0.1849 -1.8033
 1079WAT     H2 5037   0.120   0.638   1.932 -1.6017  0.4185  0.3365
 1079WAT    EPW 5038   0.154   0.707   1.945 -0.9653  0.2226 -0.1987
 1080WAT      O 5039   3.024   5.751   6.034 -0.0251  0.0337 -0.2383
 1080WAT     H1 5040   3.005   5.713   5.958  1.1842 -2.1640  0.4573
 1080WAT     H2 5041   3.013   5.687   6.092  0.3579  1.2882  1.2893
 1080WAT    EPW 5042   3.020   5.736   6.032  0.2101 -0.1057  0.0901
 1081WAT      O 5043   0.082   3.857   5.317 -0.2076 -0.0117 -0.4173
 1081WAT     H1 5044   0.151   3.910   5.311 -1.3620  1.6092 -0.0805
 1081WAT     H2 5045   0.117   3.777   5.307  1.5346  0.8058 -1.4256
 1081WAT    EPW 5046   0.098   3.853   5.314 -0.1208  0.3485 -0.5165
 1082WAT      O 5047   4.771   2.203   2.810 -0.2822  0.3146  0.1469
 1082WAT     H1 5048   4.743   2.237   2.885 -0.9535  1.1881 -0.4794
 1082WAT     H2 5049   4.796   2.122   2.832 -0.3499  0.5962  1.3243
 1082WAT    EPW 5050   4.771   2.196   2.824 -0.3914  0.4852  0.2283
 1083WAT      O 5051   0.004   5.216   3.754  0.4229  0.4826 -0.6697
 1083WAT     H1 5052  -0.075   5.194   3.724 -0.4745 -1.1980  2.4463
 1083WAT     H2 5053   0.032   5.275   3.697 -3.4631  1.8705 -1.4668
 1083WAT    EPW 5054  -0.003   5.221   3.741 -0.2837  0.4393 -0.3271
 1084WAT      O 5055   3.795   5.709   0.698 -0.3139  0.5530  0.4221
 1084WAT     H1 5056   3.782   5.780   0.748  0.2288  1.5194 -0.7684
 1084WAT     H2 5057   3.819   5.742   0.621  1.0983 -0.9664  0.1684
 1084WAT    EPW 5058   3.797   5.725   0.694 -0.0251  0.4714  0.2087
 1085WAT      O 5059   6.471   1.859   4.933 -0.4902  0.3084  0.1607
 1085WAT     H1 5060   6.476   1.946   4.940 -1.9591  0.3226  1.8782
 1085WAT     H2 5061   6.386   1.843   4.943  0.0718 -1.5067  3.9217
 1085WAT    EPW 5062   6.459   1.870   4.936 -0.6241  0.0424  0.9700
 1086WAT      O 5063   6.170   1.436   6.309  0.5670 -0.0088 -0.4019
 1086WAT     H1 5064   6.084   1.425   6.319  0.9005 -1.3382  1.6745
 1086WAT     H2 5065   6.192   1.374   6.251  0.4919 -1.7197  1.2984
 1086WAT    EPW 5066   6.160   1.425   6.302  0.6052 -0.4579  0.1560
 1087WAT      O 5067   7.231   2.299   4.866  0.1503 -0.5180 -0.1653
 1087WAT     H1 5068   7.245   2.295   4.780 -0.2719  1.0835 -0.3422
 1087WAT     H2 5069   7.145   2.290   4.874 -0.0676  1.1705 -0.1182
 1087WAT    EPW 5070   7.221   2.297   4.855  0.0558 -0.0320 -0.1845
 1088WAT      O 5071   1.357   6.273   3.803 -0.0351 -0.9830 -0.0018
 1088WAT     H1 5072   1.318   6.305   3.732  1.4846  1.6410  0.1866
 1088WAT     H2 5073   1.318   6.315   3.868  0.1743 -1.5946  0.5312
 1088WAT    EPW 5074   1.346   6.284   3.802  0.2204 -0.6857  0.1048
 1089WAT      O 5075   2.718   3.841   3.209  0.4309  0.4407 -0.2010
 1089WAT     H1 5076   2.676   3.906   3.249 -0.2735 -1.0824  1.6984
 1089WAT     H2 5077   2.759   3.800   3.275  1.2917 -0.7211 -1.4149
 1089WAT    EPW 5078   2.718   3.844   3.225  0.4540  0.0441 -0.0998
 1090WAT      O 5079   6.678   5.724   4.293 -0.4334 -0.0229 -0.4644
 1090WAT     H1 5080   6.717   5.648   4.277  0.0659  0.4776 -1.7388
 1090WAT     H2 5081   6.744   5.781   4.300 -0.6630  0.0426  2.3682
 1090WAT    EPW 5082   6.693   5.721   4.291 -0.3935  0.0607 -0.2342
 1091WAT      O 5083   0.233   1.766   6.738  0.5891  0.1875  0.0096
 1091WAT     H1 5084   0.309   1.729   6.761  0.0855 -1.7755 -1.2383
 1091WAT     H2 5085   0.243   1.782   6.652 -0.3883 -0.0838 -0.1682
 1091WAT    EPW 5086   0.246   1.763   6.729  0.3703 -0.1426 -0.2010
 1092WAT      O 5087   0.273   4.010   2.959 -0.4420 -0.0090 -0.5242
 1092WAT     H1 5088   0.197   3.967   2.965  0.1580 -1.1716 -0.9421
 1092WAT     H2 5089   0.248   4.093   2.949 -1.6458  0.0574  2.0510
 1092WAT    EPW 5090   0.258   4.016   2.959 -0.5312 -0.1709 -0.2055
 1093WAT      O 5091   2.280   5.110   6.732  0.2270 -0.0579  0.2020
 1093WAT     H1 5092   2.232   5.179   6.713  3.5609  2.3376 -0.4097
 1093WAT     H2 5093   2.298   5.119   6.817  1.1977  0.2241 -0.0230
 1093WAT    EPW 5094   2.276   5.121   6.742  0.8629  0.3376  0.0784
 1094WAT      O 5095   5.008   0.140   1.090  0.4407 -0.6023 -0.6405
 1094WAT     H1 5096   5.059   0.195   1.135  0.6983 -0.5127 -1.0455
 1094WAT     H2 5097   4.941   0.191   1.065 -1.0027 -1.1590  1.7146
 1094WAT    EPW 5098   5.006   0.156   1.093  0.2656 -0.6713 -0.3524
 1095WAT      O 5099   2.321   2.066   0.161 -0.0192 -0.2507  0.1986
 1095WAT     H1 5100   2.365   2.104   0.096 -1.0586  0.2490 -0.2316
 1095WAT     H2 5101   2.239   2.063   0.132 -0.3999 -0.5650  1.2494
 1095WAT    EPW 5102   2.316   2.071   0.147 -0.2290 -0.2233  0.2903
 1096WAT      O 5103   6.305   3.112   0.001  0.4440  0.0490 -0.4433
 1096WAT     H1 5104   6.345   3.129   0.077 -2.2209 -0.6395  1.2819
 1096WAT     H2 5105   6.278   3.191  -0.025  3.4071  0.6626 -2.1021
 1096WAT    EPW 5106   6.307   3.126   0.008  0.4880  0.0379 -0.4335
 1097WAT      O 5107   3.160   5.260   1.470 -0.2521  0.7773  0.1204
 1097WAT     H1 5108   3.202   5.232   1.541  0.5136  1.5066 -0.0295
 1097WAT     H2 5109   3.079   5.229   1.481  0.3441 -0.8691  0.3124
 1097WAT    EPW 5110   3.155   5.251   1.482 -0.0509  0.6418  0.1266
 1098WAT      O 5111   5.743   4.356   1.166  0.1055 -0.6392  0.4205
 1098WAT     H1 5112   5.746   4.319   1.245  0.2885  0.3956  0.9290
 1098WAT     H2 5113   5.659   4.350   1.143  0.0439 -0.9199  0.7183
 1098WAT    EPW 5114   5.731   4.350   1.174  0.1234 -0.5278  0.5396
 1099WAT      O 5115   1.696   5.669   5.636 -0.2720 -0.1497  0.0669
 1099WAT     H1 5116   1.689   5.595   5.591  0.9301 -0.6745  0.6844
 1099WAT     H2 5117   1.743   5.646   5.706  0.8081  1.3333 -0.1081
 1099WAT    EPW 5118   1.702   5.655   5.640  0.0651 -0.0082  0.1322
 1100WAT      O 5119   7.029   5.977   6.376 -0.3151  0.0996 -0.0088
 1100WAT     H1 5120   7.027   5.909   6.321 -1.3137 -2.8948  3.3198
 1100WAT     H2 5121   7.101   5.963   6.423 -1.1261  0.6524  1.4843
 1100WAT    EPW 5122   7.039   5.965   6.375 -0.5824 -0.2611  0.7035
 1101WAT      O 5123   1.359   1.069   1.347 -0.4487  0.0753  0.2802
 1101WAT     H1 5124   1.432   1.058   1.394 -0.0239  3.6885  0.7640
 1101WAT     H2 5125   1.370   1.017   1.278  1.8417 -0.6661  1.1238
 1101WAT    EPW 5126   1.372   1.060   1.344 -0.0476  0.4995  0.4763
 1102WAT      O 5127   4.169   0.580   4.678  0.5395 -0.1208 -0.2886
 1102WAT     H1 5128   4.086   0.553   4.677  0.4910  0.0061  0.1671
 1102WAT     H2 5129   4.208   0.522   4.730  0.3098  1.0357  1.2381
 1102WAT    EPW 5130   4.163   0.567   4.686  0.4984  0.0688  0.0042
 1103WAT      O 5131   2.677   3.298   4.145 -0.1625  0.5614 -0.6914
 1103WAT     H1 5132   2.728   3.368   4.137  2.1570 -1.1149 -1.7816
 1103WAT     H2 5133   2.726   3.233   4.114 -1.7514 -1.7682  1.2554
 1103WAT    EPW 5134   2.692   3.299   4.139 -0.0545 -0.0303 -0.5649
 1104WAT      O 5135   1.167   3.233   1.092 -0.2670 -0.1927 -0.6889
 1104WAT     H1 5136   1.158   3.149   1.113 -0.5099 -1.1150 -3.9553
 1104WAT     H2 5137   1.253   3.243   1.080 -0.3414 -0.2956 -1.3518
 1104WAT    EPW 5138   1.179   3.222   1.093 -0.3139 -0.3442 -1.2693
 1105WAT      O 5139   0.886   5.189   4.058  0.9251 -0.3185  0.5029
 1105WAT     H1 5140   0.840   5.184   4.132  0.1208 -0.2242  0.0236
 1105WAT     H2 5141   0.829   5.164   3.997  0.9017  1.6274 -0.3499
 1105WAT    EPW 5142   0.871   5.185   4.060  0.8028 -0.0171  0.3061
 1106WAT      O 5143   1.858   6.455   2.138 -0.3251  0.2393 -0.5975
 1106WAT     H1 5144   1.945   6.443   2.145 -0.3726 -0.3169 -0.9788
 1106WAT     H2 5145   1.838   6.420   2.061 -0.7795  1.0326 -0.8540
 1106WAT    EPW 5146   1.868   6.448   2.128 -0.3992  0.2743 -0.6917
 1107WAT      O 5147   4.457   0.768   6.053 -0.6442  0.5508  0.3171
 1107WAT     H1 5148   4.407   0.699   6.032 -0.6988  0.7644 -0.2906
 1107WAT     H2 5149   4.520   0.766   5.993 -0.2468  0.6206  0.7336
 1107WAT    EPW 5150   4.459   0.757   6.041 -0.5935  0.5927  0.2889
 1108WAT      O 5151   2.592   0.810   5.285 -0.5248 -0.3644  0.6893
 1108WAT     H1 5152   2.538   0.798   5.352 -1.3700  1.1610  0.3306
 1108WAT     H2 5153   2.559   0.758   5.223  0.9407 -2.6955  1.7310
 1108WAT    EPW 5154   2.579   0.801   5.285 -0.4332 -0.4834  0.7902
 1109WAT      O 5155   2.088   3.633   1.288  0.3247 -0.1758  0.5409
 1109WAT     H1 5156   2.101   3.717   1.308  0.4039 -0.1359  0.3297
 1109WAT     H2 5157   2.168   3.601   1.278  0.2838 -0.1000 -0.0759
 1109WAT    EPW 5158   2.102   3.641   1.289  0.3303 -0.1587  0.4186
 1110WAT      O 5159   1.806   4.056   2.494 -0.3847 -0.5751 -0.0736
 1110WAT     H1 5160   1.837   4.091   2.420 -0.5590 -0.6899 -0.2010
 1110WAT     H2 5161   1.804   3.971   2.478  0.3399 -0.6791  0.3529
 1110WAT    EPW 5162   1.810   4.049   2.481 -0.3034 -0.6074 -0.0294
 1111WAT      O 5163   1.985   0.091   2.463  0.0910  0.2022  0.0085
 1111WAT     H1 5164   1.972   0.005   2.471  0.7746  0.1434  0.5724
 1111WAT     H2 5165   1.932   0.125   2.523 -1.7139  0.3249 -1.5581
 1111WAT    EPW 5166   1.975   0.083   2.473 -0.0747  0.2117 -0.1396
 1112WAT      O 5167   1.504   1.835   1.762 -0.2309  0.0467 -0.2603
 1112WAT     H1 5168   1.438   1.850   1.707 -0.1194  3.0180  0.2363
 1112WAT     H2 5169   1.466   1.836   1.841  0.3070  1.8320  0.0333
 1112WAT    EPW 5170   1.489   1.837   1.766 -0.1350  0.7493 -0.1435
 1113WAT      O 5171   5.760   0.311   5.247 -0.3808 -0.2412  0.4126
 1113WAT     H1 5172   5.835   0.284   5.284 -0.5827 -0.7540  0.4568
 1113WAT     H2 5173   5.759   0.269   5.170 -0.1825  0.4715  0.0092
 1113WAT    EPW 5174   5.771   0.301   5.241 -0.3813 -0.2117  0.3596
 1114WAT      O 5175   2.657   3.849   5.086 -0.2193 -0.3740 -0.8014
 1114WAT     H1 5176   2.692   3.809   5.016  0.9110 -0.5556 -0.1649
 1114WAT     H2 5177   2.708   3.919   5.097  0.4446 -1.0339  0.5893
 1114WAT    EPW 5178   2.670   3.853   5.077  0.0458 -0.4983 -0.5019
 1115WAT      O 5179   5.633   1.872   6.573 -0.4189  0.5895  0.2425
 1115WAT     H1 5180   5.710   1.889   6.537  0.5449  0.2615  2.0238
 1115WAT     H2 5181   5.617   1.790   6.550 -0.8497  1.0150 -1.0995
 1115WAT    EPW 5182   5.642   1.863   6.564 -0.3401  0.6039  0.3074
 1116WAT      O 5183   5.818   5.422   5.162 -0.1939  0.4915  0.1187
 1116WAT     H1 5184   5.797   5.388   5.240 -0.0595  0.7146  0.2544
 1116WAT     H2 5185   5.897   5.457   5.176 -0.1786  0.5496 -0.1146
 1116WAT    EPW 5186   5.827   5.422   5.176 -0.1718  0.5331  0.1043
 1117WAT      O 5187   1.585   1.232   5.053  0.0769 -0.3899 -0.5840
 1117WAT     H1 5188   1.642   1.196   5.108 -0.7709 -0.0084  0.5925
 1117WAT     H2 5189   1.509   1.229   5.097 -0.6534 -0.1661 -1.7820
 1117WAT    EPW 5190   1.582   1.226   5.067 -0.1562 -0.3005 -0.5872
 1118WAT      O 5191   3.948   0.938   0.504 -0.3956  0.4220 -0.7190
 1118WAT     H1 5192   3.894   0.873   0.529 -0.1838  0.4581 -0.1429
 1118WAT     H2 5193   4.027   0.903   0.510 -0.3254  0.5007 -1.1555
 1118WAT    EPW 5194   3.951   0.923   0.509 -0.3539  0.4389 -0.6984
 1119WAT      O 5195   2.403   3.154   4.446 -0.5591 -0.2703  0.1812
 1119WAT     H1 5196   2.387   3.094   4.508 -2.1446  0.1135  0.1853
 1119WAT     H2 5197   2.358   3.224   4.472 -0.3890  0.2524 -0.8570
 1119WAT    EPW 5198   2.394   3.155   4.459 -0.7682 -0.1364  0.0285
 1120WAT      O 5199   2.926   3.260   7.269  0.1434  0.6212  0.0237
 1120WAT     H1 5200   2.928   3.175   7.289 -1.8189  0.7129  0.8640
 1120WAT     H2 5201   3.003   3.290   7.298  0.6225 -0.7543  0.2373
 1120WAT    EPW 5202   2.938   3.252   7.277 -0.0757  0.4315  0.1794
 1121WAT      O 5203   5.224   1.853   6.888  0.0435 -0.1469  0.3471
 1121WAT     H1 5204   5.140   1.874   6.901  0.2381  0.8854  0.0344
 1121WAT     H2 5205   5.240   1.882   6.807  0.3187 -1.6391 -0.1682
 1121WAT    EPW 5206   5.214   1.860   6.878  0.1129 -0.2148  0.2248
 1122WAT      O 5207   5.898   5.702   7.031  0.1056  0.1342  0.2858
 1122WAT     H1 5208   5.915   5.743   6.956  0.8364 -0.3852  0.1635
 1122WAT     H2 5209   5.812   5.712   7.040 -0.2085 -0.9310 -1.2919
 1122WAT    EPW 5210   5.888   5.710   7.021  0.1672 -0.0998  0.0347
 1123WAT      O 5211   6.613   5.120   4.465  0.2258  0.1094  0.5064
 1123WAT     H1 5212   6.561   5.106   4.534 -0.2682  0.7609  0.2750
 1123WAT     H2 5213   6.577   5.073   4.401 -0.6289  1.2748  0.1013
 1123WAT    EPW 5214   6.600   5.111   4.466  0.0265  0.3778  0.4124
 1124WAT      O 5215   2.810   7.110   1.469  0.4497  0.6162  0.2255
 1124WAT     H1 5216   2.864   7.060   1.421 -0.0106 -0.6505  0.9870
 1124WAT     H2 5217   2.776   7.165   1.411 -0.8267 -1.4814 -1.1574
 1124WAT    EPW 5218   2.813   7.111   1.453  0.1931  0.1193  0.1337
 1125WAT      O 5219   5.122   4.330   0.322  0.3012  0.3720  0.1266
 1125WAT     H1 5220   5.190   4.340   0.376  0.0352 -1.4998  0.8797
 1125WAT     H2 5221   5.087   4.253   0.346  1.5681 -1.9021 -4.1883
 1125WAT    EPW 5222   5.127   4.320   0.333  0.4491 -0.2405 -0.3996
 1126WAT      O 5223   6.070   3.187   5.848 -0.1109 -0.5876  0.3686
 1126WAT     H1 5224   6.010   3.143   5.893 -2.0265  0.9308 -0.5478
 1126WAT     H2 5225   6.063   3.269   5.878  0.6785 -0.1462 -0.5839
 1126WAT    EPW 5226   6.060   3.193   5.859 -0.2773 -0.2981  0.0925
 1127WAT      O 5227   3.462   2.946   3.801 -0.5547 -0.3771  0.3054
 1127WAT     H1 5228   3.446   3.015   3.853 -1.1121  0.9072 -1.4873
 1127WAT     H2 5229   3.392   2.895   3.812 -0.5627 -0.2343  0.9528
 1127WAT    EPW 5230   3.449   2.948   3.810 -0.6382 -0.1663  0.1362
 1128WAT      O 5231   5.422   3.294   4.071 -0.5911  0.2553 -0.1385
 1128WAT     H1 5232   5.467   3.232   4.028 -2.3297 -2.2326  1.3874
 1128WAT     H2 5233   5.484   3.336   4.116  0.5156 -1.3972 -0.0242
 1128WAT    EPW 5234   5.438   3.291   4.071 -0.6844 -0.3563  0.1038
 1129WAT      O 5235   0.727   1.298   2.221 -0.5382  0.3204 -0.5777
 1129WAT     H1 5236   0.706   1.330   2.142  1.8668 -1.0039 -1.8809
 1129WAT     H2 5237   0.776   1.362   2.256 -0.7340  0.4876 -0.6076
 1129WAT    EPW 5238   0.731   1.312   2.214 -0.2119  0.1495 -0.7746
 1130WAT      O 5239   0.603   0.280   5.278 -0.3187  0.0104 -0.3573
 1130WAT     H1 5240   0.636   0.206   5.246  3.1407  1.7011 -1.1237
 1130WAT     H2 5241   0.572   0.321   5.207 -0.7828 -0.0124 -0.1710
 1130WAT    EPW 5242   0.603   0.275   5.263  0.1238  0.2568 -0.4430
 1131WAT      O 5243   5.787   4.862   6.503  0.1019  0.0562  0.0873
 1131WAT     H1 5244   5.719   4.814   6.530  0.6564 -0.9917 -0.3142
 1131WAT     H2 5245   5.855   4.809   6.515  0.9146  1.2200  0.8265
 1131WAT    EPW 5246   5.787   4.847   6.509  0.3038  0.0733  0.1372
 1132WAT      O 5247   6.645   3.771   0.978 -0.3587 -0.0044  0.2129
 1132WAT     H1 5248   6.672   3.711   0.920 -0.9533 -2.4816  2.2962
 1132WAT     H2 5249   6.705   3.766   1.041 -0.7169  1.2844  0.6831
 1132WAT    EPW 5250   6.658   3.761   0.978 -0.4995 -0.1800  0.5901
 1133WAT      O 5251   2.815   0.149   3.305 -0.0832  0.3247  0.4153
 1133WAT     H1 5252   2.852   0.096   3.247 -0.4570  1.7849 -1.2663
 1133WAT     H2 5253   2.785   0.095   3.366  1.5735 -1.1823 -0.0095
 1133WAT    EPW 5254   2.816   0.133   3.305  0.1063  0.3178  0.1041
 1134WAT      O 5255   3.270   0.276   4.419 -0.2584  0.0243 -0.0140
 1134WAT     H1 5256   3.259   0.348   4.372  0.4434 -0.5647 -1.1255
 1134WAT     H2 5257   3.337   0.295   4.471 -0.5660  0.4228  0.2411
 1134WAT    EPW 5258   3.278   0.289   4.420 -0.2002 -0.0039 -0.1405
 1135WAT      O 5259   5.041   3.468   1.354  0.0176 -0.1806  0.4362
 1135WAT     H1 5260   5.121   3.496   1.336  0.5388 -0.6616  1.8483
 1135WAT     H2 5261   5.054   3.396   1.401 -1.2665 -0.9562 -0.3090
 1135WAT    EPW 5262   5.054   3.461   1.358 -0.0951 -0.3662  0.5347
 1136WAT      O 5263   0.793   4.567   5.552  0.7411  0.2501 -0.0652
 1136WAT     H1 5264   0.826   4.493   5.519  1.3106  0.0149  0.9864
 1136WAT     H2 5265   0.790   4.552   5.638  0.0513  1.1379  0.0816
 1136WAT    EPW 5266   0.797   4.554   5.560  0.7233  0.3465  0.1118
 1137WAT      O 5267   5.778   6.091   4.800 -0.0366  0.0725  0.1726
 1137WAT     H1 5268   5.776   6.136   4.725 -0.2592 -0.2038  0.0124
 1137WAT     H2 5269   5.807   6.150   4.858 -0.1141  0.3614 -0.0778
 1137WAT    EPW 5270   5.782   6.107   4.797 -0.0809  0.0744  0.1119
 1138WAT      O 5271   5.454   1.116   3.258 -0.2527 -0.8041  0.5614
 1138WAT     H1 5272   5.420   1.196   3.249  3.1762  0.9197  1.3281
 1138WAT     H2 5273   5.493   1.102   3.181 -0.1460 -1.3838  0.7174
 1138WAT    EPW 5274   5.455   1.125   3.245  0.2696 -0.6351  0.6977
 1139WAT      O 5275   5.645   5.075   6.879 -0.0882  0.1283  0.3267
 1139WAT     H1 5276   5.656   5.133   6.815 -0.1946 -1.6692 -1.4209
 1139WAT     H2 5277   5.559   5.066   6.885 -0.0663 -1.2541 -0.8385
 1139WAT    EPW 5278   5.634   5.082   6.871 -0.1007 -0.3414 -0.1036
 1140WAT      O 5279   6.677   3.993   1.799 -0.0863 -0.5246 -0.2886
 1140WAT     H1 5280   6.600   3.979   1.838 -0.2856  1.8436  0.2917
 1140WAT     H2 5281   6.656   4.039   1.728  0.8351  0.9738  0.3704
 1140WAT    EPW 5282   6.662   3.998   1.794  0.0203  0.0466 -0.1056
 1141WAT      O 5283   3.930   4.459   1.135  0.2335  0.1070 -0.5582
 1141WAT     H1 5284   4.007   4.496   1.119  0.0168  0.6065 -0.4809
 1141WAT     H2 5285   3.882   4.481   1.065 -0.6249  2.0282  0.5626
 1141WAT    EPW 5286   3.934   4.468   1.122  0.0747  0.4646 -0.3812
 1142WAT      O 5287   2.402   2.533   2.349 -0.3587 -0.0452  0.5773
 1142WAT     H1 5288   2.341   2.488   2.391  0.2153 -0.4875  0.9597
 1142WAT     H2 5289   2.475   2.487   2.364 -0.0787 -0.0312 -0.6188
 1142WAT    EPW 5290   2.404   2.519   2.358 -0.2326 -0.1085  0.4571
 1143WAT      O 5291   4.585   5.669   0.908  0.4057 -0.3565 -0.0256
 1143WAT     H1 5292   4.573   5.589   0.939 -0.2070 -0.6318 -0.9431
 1143WAT     H2 5293   4.646   5.658   0.846 -0.5924 -0.3600 -1.0456
 1143WAT    EPW 5294   4.592   5.656   0.903  0.1678 -0.3977 -0.3118
 1144WAT      O 5295   3.527   6.087   2.860 -0.4976  0.7824  0.6677
 1144WAT     H1 5296   3.450   6.079   2.901 -0.8705 -0.6350 -0.2252
 1144WAT     H2 5297   3.512   6.148   2.799 -0.7970  0.8004  0.7581
 1144WAT    EPW 5298   3.513   6.095   2.857 -0.5969  0.5757  0.5492
 1145WAT      O 5299   6.206   1.177   5.806  0.3176 -0.0005 -0.0763
 1145WAT     H1 5300   6.138   1.141   5.846 -1.0496  0.4153 -1.9297
 1145WAT     H2 5301   6.266   1.113   5.806 -1.3209 -1.6333 -1.4778
 1145WAT    EPW 5302   6.205   1.162   5.812 -0.1264 -0.1803 -0.5571
 1146WAT      O 5303   1.617   0.084   5.720 -0.6909 -0.3303  0.4054
 1146WAT     H1 5304   1.633   0.077   5.805 -1.4754  0.2159  0.6111
 1146WAT     H2 5305   1.548   0.031   5.708  0.1076 -1.2873 -0.1166
 1146WAT    EPW 5306   1.609   0.075   5.731 -0.6888 -0.3910  0.3587
 1147WAT      O 5307   2.446   0.309   2.415  0.5889 -0.7565  0.3938
 1147WAT     H1 5308   2.423   0.324   2.332  1.8969 -1.5765 -0.1549
 1147WAT     H2 5309   2.377   0.269   2.449 -0.2326  0.1936 -0.0907
 1147WAT    EPW 5310   2.433   0.306   2.408  0.6608 -0.7373  0.2412
 1148WAT      O 5311   4.458   6.337   6.472 -0.3847  0.0812 -0.3186
 1148WAT     H1 5312   4.479   6.342   6.556  0.5227  1.0515 -0.5876
 1148WAT     H2 5313   4.505   6.269   6.443 -0.5426 -0.1248 -0.1004
 1148WAT    EPW 5314   4.468   6.328   6.480 -0.2740  0.1941 -0.3261
 1149WAT      O 5315   2.176   2.367   4.725  0.3572  0.0598  0.1928
 1149WAT     H1 5316   2.126   2.336   4.661 -1.1372  0.8319  0.9392
 1149WAT     H2 5317   2.211   2.295   4.760 -1.5882 -0.6740  0.7327
 1149WAT    EPW 5318   2.174   2.352   4.720 -0.1510  0.0654  0.3828
 1150WAT      O 5319   5.551   6.899   2.232 -0.1442 -0.0185 -0.0651
 1150WAT     H1 5320   5.529   6.819   2.206 -0.4782 -0.0868  0.4056
 1150WAT     H2 5321   5.559   6.891   2.319  0.1868  0.3738 -0.0556
 1150WAT    EPW 5322   5.549   6.886   2.241 -0.1446  0.0293  0.0059
 1151WAT      O 5323   2.191   0.153   0.438  0.3877 -0.0805  0.2518
 1151WAT     H1 5324   2.177   0.220   0.383  1.1901  0.7209  0.9882
 1151WAT     H2 5325   2.135   0.092   0.410 -0.9595  1.1750  0.0682
 1151WAT    EPW 5326   2.181   0.154   0.426  0.3072  0.2233  0.3334
 1152WAT      O 5327   0.951   6.169   0.267 -0.3237  0.6046  0.5005
 1152WAT     H1 5328   0.882   6.201   0.224 -0.6191 -1.7015 -0.8701
 1152WAT     H2 5329   0.979   6.238   0.314 -2.1343  2.2390 -0.6592
 1152WAT    EPW 5330   0.945   6.184   0.268 -0.6348  0.5053  0.1267
 1153WAT      O 5331   4.274   1.030   4.370  0.1236  0.4842 -0.0460
 1153WAT     H1 5332   4.258   0.961   4.423  0.9053  1.3111  1.3340
 1153WAT     H2 5333   4.348   1.064   4.403  0.8609  0.8237 -1.9518
 1153WAT    EPW 5334   4.283   1.025   4.383  0.3480  0.6565 -0.1237
 1154WAT      O 5335   1.179   5.780   4.162 -0.0728  0.2196  0.0371
 1154WAT     H1 5336   1.100   5.759   4.194  0.3860  0.4462  1.3940
 1154WAT     H2 5337   1.186   5.730   4.091 -0.7086 -1.1355  0.8722
 1154WAT    EPW 5338   1.168   5.770   4.156 -0.0989  0.0529  0.3609
 1155WAT      O 5339   6.754   5.915   1.958  0.1994  0.0053 -0.3504
 1155WAT     H1 5340   6.784   5.844   1.916  1.2420  0.7153 -0.8524
 1155WAT     H2 5341   6.721   5.963   1.894  0.9521  0.6797 -0.2471
 1155WAT    EPW 5342   6.754   5.911   1.942  0.4646  0.2098 -0.4093
 1156WAT      O 5343   2.631   1.664   6.581  0.1290  0.1500  0.6974
 1156WAT     H1 5344   2.572   1.666   6.517  0.8701 -0.1634 -0.0210
 1156WAT     H2 5345   2.661   1.582   6.578  1.2808  0.5622  0.3987
 1156WAT    EPW 5346   2.627   1.652   6.571  0.4086  0.1646  0.5472
 1157WAT      O 5347   1.627   3.812   4.785  0.2027 -0.0180 -0.4671
 1157WAT     H1 5348   1.651   3.748   4.839  2.1410  0.3363 -0.8268
 1157WAT     H2 5349   1.630   3.774   4.706  0.4694  0.2800 -0.5998
 1157WAT    EPW 5350   1.631   3.797   4.781  0.5284  0.0784 -0.5398
 1158WAT      O 5351   2.528   2.232   3.439  0.2017  0.5375 -0.3621
 1158WAT     H1 5352   2.601   2.186   3.449 -0.1214  0.1179  0.0771
 1158WAT     H2 5353   2.528   2.286   3.507  0.1521  0.6082 -0.4182
 1158WAT    EPW 5354   2.539   2.233   3.450  0.1466  0.4860 -0.3055
 1159WAT      O 5355   3.270   1.437   4.928  0.3975  0.1920  0.5461
 1159WAT     H1 5356   3.276   1.419   5.013  0.0446 -1.9855  0.1738
 1159WAT     H2 5357   3.338   1.489   4.913  0.5504  0.4902  2.1326
 1159WAT    EPW 5358   3.281   1.442   4.938  0.3680 -0.0856  0.7255
 1160WAT      O 5359   2.571   6.255   4.234  0.1370  0.2485 -0.2530
 1160WAT     H1 5360   2.579   6.199   4.300  1.6783  1.4423  0.6383
 1160WAT     H2 5361   2.611   6.215   4.168 -2.1527 -1.3222 -0.7951
 1160WAT    EPW 5362   2.578   6.241   4.234  0.0264  0.1928 -0.2014
 1161WAT      O 5363   7.131   4.853   3.298 -0.3273 -0.2170 -0.2911
 1161WAT     H1 5364   7.113   4.769   3.312 -0.2979 -0.4152 -1.4140
 1161WAT     H2 5365   7.142   4.885   3.379  0.7896 -1.5257  0.1098
 1161WAT    EPW 5366   7.130   4.846   3.312 -0.1580 -0.4396 -0.3977
 1162WAT      O 5367   3.774   6.909   5.590 -0.3078 -0.1567 -0.0096
 1162WAT     H1 5368   3.829   6.901   5.523  0.0016  0.4933  0.1513
 1162WAT     H2 5369   3.702   6.869   5.562  0.3712 -1.3838 -0.0613
 1162WAT    EPW 5370   3.771   6.902   5.576 -0.1618 -0.2419  0.0065
 1163WAT      O 5371   3.805   2.049   4.846  0.3276 -0.0625 -0.4768
 1163WAT     H1 5372   3.729   2.020   4.876  0.1617  1.6437  0.9180
 1163WAT     H2 5373   3.789   2.067   4.762 -1.6875  2.8225  0.3877
 1163WAT    EPW 5374   3.792   2.048   4.838  0.0054  0.6157 -0.1431
 1164WAT      O 5375   3.704   5.681   4.326  0.4201 -0.0954  0.2957
 1164WAT     H1 5376   3.646   5.628   4.363  0.5007  0.8958  1.9352
 1164WAT     H2 5377   3.656   5.751   4.304  0.6855  0.0227  0.0851
 1164WAT    EPW 5378   3.688   5.684   4.328  0.4712  0.0685  0.5068
 1165WAT      O 5379   7.009   0.130   3.209  0.6583  0.0771 -0.0402
 1165WAT     H1 5380   7.025   0.211   3.236 -0.2417 -0.2224  1.5060
 1165WAT     H2 5381   6.932   0.136   3.169  0.7800  0.0490 -0.2822
 1165WAT    EPW 5382   7.000   0.142   3.207  0.5433  0.0287  0.1525
 1166WAT      O 5383   0.826   0.728   1.971 -0.0656 -0.2876  0.0299
 1166WAT     H1 5384   0.749   0.766   1.956  1.0299  1.8159 -0.7333
 1166WAT     H2 5385   0.846   0.690   1.895  1.0356  1.9770 -0.9279
 1166WAT    EPW 5386   0.817   0.728   1.958  0.2589  0.3577 -0.2244
 1167WAT      O 5387   5.059   1.388   4.858  0.9833 -0.3345 -0.2352
 1167WAT     H1 5388   5.019   1.332   4.912  0.8429  0.6734  0.7462
 1167WAT     H2 5389   5.006   1.457   4.857  2.2651  0.7030  0.4537
 1167WAT    EPW 5390   5.045   1.390   4.866  1.1519 -0.0324  0.0116
 1168WAT      O 5391   5.311   1.682   2.875 -0.1519  0.0140  0.0388
 1168WAT     H1 5392   5.304   1.659   2.959 -0.6310  0.4959  0.1387
 1168WAT     H2 5393   5.358   1.756   2.878 -0.0204 -0.0614 -0.1343
 1168WAT    EPW 5394   5.317   1.690   2.888 -0.2033  0.0740  0.0280
 1169WAT      O 5395   3.940   5.847   4.719  0.2570  0.3096  0.6876
 1169WAT     H1 5396   3.879   5.910   4.722  0.2696  0.2770  2.6125
 1169WAT     H2 5397   3.897   5.780   4.684 -0.2026  0.9096  0.0629
 1169WAT    EPW 5398   3.925   5.847   4.714  0.1910  0.3934  0.8797
 1170WAT      O 5399   6.222   4.901   2.324  0.1030 -0.1412 -0.2532
 1170WAT     H1 5400   6.171   4.906   2.254 -0.5970  1.2577  0.3232
 1170WAT     H2 5401   6.273   4.971   2.318  1.0721 -0.8082 -0.1218
 1170WAT    EPW 5402   6.222   4.912   2.313  0.1428 -0.0330 -0.1486
 1171WAT      O 5403   6.700   3.708   3.393 -0.2054  0.1546 -0.7759
 1171WAT     H1 5404   6.694   3.793   3.372 -1.5703  0.3487  0.2851
 1171WAT     H2 5405   6.725   3.671   3.318  1.3432  1.5808 -1.0387
 1171WAT    EPW 5406   6.703   3.715   3.379 -0.1782  0.3939 -0.6580
 1172WAT      O 5407   1.740   5.884   5.479 -0.4114 -0.6449  0.7070
 1172WAT     H1 5408   1.823   5.889   5.453 -0.5872 -1.0652  0.0460
 1172WAT     H2 5409   1.742   5.825   5.544 -0.2176 -0.7729  0.5857
 1172WAT    EPW 5410   1.752   5.876   5.485 -0.4088 -0.7259  0.5914
 1173WAT      O 5411   7.188   1.461   4.828 -0.4730  0.1458 -0.3717
 1173WAT     H1 5412   7.172   1.512   4.897  0.4540 -0.1082  0.0484
 1173WAT     H2 5413   7.251   1.504   4.785 -0.3776 -0.1704 -0.5520
 1173WAT    EPW 5414   7.195   1.475   4.832 -0.3219  0.0616 -0.3363
 1174WAT      O 5415   0.761   1.578   6.292  0.4464 -0.2041  0.2296
 1174WAT     H1 5416   0.710   1.517   6.327  0.7494 -0.5362  0.0931
 1174WAT     H2 5417   0.712   1.611   6.228 -0.2161  0.5855  1.1015
 1174WAT    EPW 5418   0.746   1.574   6.288  0.3933 -0.1365  0.3382
 1175WAT      O 5419   7.059   0.316   1.425 -0.2840 -0.1408 -0.6788
 1175WAT     H1 5420   7.145   0.304   1.414  0.2643  1.1499  1.5683
 1175WAT     H2 5421   7.027   0.235   1.422  1.0332 -0.6777 -1.2464
 1175WAT    EPW 5422   7.067   0.302   1.423 -0.0084 -0.0294 -0.4307
 1176WAT      O 5423   6.761   4.961   6.013  0.6060  0.4542  0.3017
 1176WAT     H1 5424   6.801   4.959   6.091  0.7462  1.5044  0.2731
 1176WAT     H2 5425   6.729   5.042   6.009 -0.1353  0.1429 -0.3805
 1176WAT    EPW 5426   6.762   4.973   6.024  0.5172  0.5633  0.1967
 1177WAT      O 5427   5.900   3.933   2.332  0.1408  0.4253 -0.2427
 1177WAT     H1 5428   5.902   3.915   2.417 -1.0575  1.0296 -0.0592
 1177WAT     H2 5429   5.845   3.873   2.300 -0.2178  0.8330 -0.4046
 1177WAT    EPW 5430   5.892   3.921   2.340 -0.0892  0.5748 -0.2395
 1178WAT      O 5431   0.283   5.795   1.633  0.3721 -0.3796 -0.4429
 1178WAT     H1 5432   0.258   5.856   1.690  1.2317  0.2599 -0.7259
 1178WAT     H2 5433   0.301   5.727   1.684 -4.1055 -1.7894 -0.3371
 1178WAT    EPW 5434   0.282   5.794   1.649 -0.1623 -0.4934 -0.4690
 1179WAT      O 5435   2.337   2.494   1.083 -0.3625  0.4699 -0.1292
 1179WAT     H1 5436   2.408   2.496   1.134 -0.9052 -2.1868  0.8723
 1179WAT     H2 5437   2.369   2.477   1.004  0.1524 -1.1528  0.3871
 1179WAT    EPW 5438   2.352   2.492   1.079 -0.3666 -0.1623  0.0950
 1180WAT      O 5439   2.404   6.642   4.470 -0.0127  0.0925 -0.1458
 1180WAT     H1 5440   2.321   6.627   4.490  0.0094  0.9824  0.6712
 1180WAT     H2 5441   2.447   6.582   4.517 -0.1362  0.2683  0.1946
 1180WAT    EPW 5442   2.398   6.631   4.480 -0.0277  0.2499  0.0252
 1181WAT      O 5443   4.627   0.848   2.524 -1.1216 -0.7864 -0.1826
 1181WAT     H1 5444   4.555   0.849   2.573 -0.4018 -1.6526  0.9312
 1181WAT     H2 5445   4.669   0.776   2.550  0.8179  0.4048  0.1815
 1181WAT    EPW 5446   4.623   0.837   2.535 -0.7287 -0.7384  0.0357
 1182WAT      O 5447   6.626   5.516   6.731  0.0642 -0.1818  0.6009
 1182WAT     H1 5448   6.641   5.439   6.769  0.9126  0.0161  0.6787
 1182WAT     H2 5449   6.540   5.514   6.714 -0.0841 -0.7993  1.3629
 1182WAT    EPW 5450   6.615   5.504   6.734  0.1676 -0.2437  0.7250
 1183WAT      O 5451   0.807   7.214   0.711  0.2800 -0.5014  0.5119
 1183WAT     H1 5452   0.823   7.218   0.797 -3.5363  1.1077  1.3694
 1183WAT     H2 5453   0.767   7.137   0.702 -0.9306  0.0958  0.5952
 1183WAT    EPW 5454   0.803   7.203   0.723 -0.4626 -0.1755  0.6509
 1184WAT      O 5455   2.912   6.835   0.185 -0.6232 -0.7784  0.4728
 1184WAT     H1 5456   2.934   6.755   0.212  0.6925 -0.7072 -0.3465
 1184WAT     H2 5457   2.978   6.885   0.210 -1.4372  0.0845  0.9852
 1184WAT    EPW 5458   2.925   6.831   0.193 -0.5491 -0.6404  0.4275
 1185WAT      O 5459   0.126   2.482   4.021 -0.2916  0.2644 -0.9342
 1185WAT     H1 5460   0.150   2.503   3.940 -1.5775 -2.5396 -2.2130
 1185WAT     H2 5461   0.072   2.414   4.009 -0.7440 -0.1138  2.2773
 1185WAT    EPW 5462   0.122   2.475   4.007 -0.5484 -0.2056 -0.6487
 1186WAT      O 5463   5.288   1.001   7.112 -0.1533  0.4291 -0.0632
 1186WAT     H1 5464   5.247   0.963   7.045 -1.4236 -0.4271  1.1429
 1186WAT     H2 5465   5.229   1.057   7.144  0.9156  1.8380 -0.4415
 1186WAT    EPW 5466   5.273   1.004   7.107 -0.1831  0.5107  0.0591
 1187WAT      O 5467   0.215   1.315   6.557 -1.0185  0.5541  0.1445
 1187WAT     H1 5468   0.178   1.378   6.605 -0.6061  1.6519 -0.9186
 1187WAT     H2 5469   0.295   1.308   6.590 -1.8842 -1.4323  2.0817
 1187WAT    EPW 5470   0.221   1.323   6.569 -1.0855  0.4228  0.2736
 1188WAT      O 5471   2.506   0.502   7.131 -0.2511  0.1119  0.4092
 1188WAT     H1 5472   2.519   0.425   7.092 -0.7838  1.2945 -2.2998
 1188WAT     H2 5473   2.439   0.486   7.185 -1.0676 -1.1048 -0.8882
 1188WAT    EPW 5474   2.498   0.488   7.133 -0.4504  0.1068 -0.1827
 1189WAT      O 5475   3.925   2.990   3.230  0.1515  0.6153 -0.4229
 1189WAT     H1 5476   3.931   3.025   3.151  3.5543  0.7603 -0.2388
 1189WAT     H2 5477   3.910   3.059   3.282 -1.6381  0.5714 -0.8142
 1189WAT    EPW 5478   3.923   3.005   3.226  0.3898  0.6302 -0.4535
 1190WAT      O 5479   1.318   3.468   0.070  0.0045 -0.2583  0.0421
 1190WAT     H1 5480   1.383   3.417   0.042 -0.5026  0.3114 -2.3573
 1190WAT     H2 5481   1.282   3.498  -0.003 -2.3413  0.2622  1.3157
 1190WAT    EPW 5482   1.323   3.465   0.055 -0.4170 -0.0972 -0.1242
 1191WAT      O 5483   5.970   4.438   3.664 -1.1747  0.8040 -0.2301
 1191WAT     H1 5484   6.010   4.374   3.708 -0.6168  0.6478 -0.9524
 1191WAT     H2 5485   6.033   4.497   3.650 -1.3330  0.8356 -0.8437
 1191WAT    EPW 5486   5.985   4.437   3.668 -1.1157  0.7855 -0.4274
 1192WAT      O 5487   6.691   5.912   1.218 -0.1484 -0.5902 -0.4264
 1192WAT     H1 5488   6.622   5.902   1.270  0.6872  0.2711  0.9106
 1192WAT     H2 5489   6.662   5.967   1.156 -0.5924  0.0106  0.2914
 1192WAT    EPW 5490   6.677   5.919   1.217 -0.0905 -0.3742 -0.1229
 1193WAT      O 5491   3.782   4.036   6.890 -0.4655 -0.6121 -0.4895
 1193WAT     H1 5492   3.709   4.032   6.938  0.3177  0.4861  0.8574
 1193WAT     H2 5493   3.817   3.957   6.899 -0.3046 -0.4054  0.8066
 1193WAT    EPW 5494   3.776   4.024   6.898 -0.3260 -0.4193 -0.0991
 1194WAT      O 5495   2.629   3.717   1.637 -0.6412 -0.3817  0.9814
 1194WAT     H1 5496   2.551   3.714   1.599 -0.8351  1.4482  1.1680
 1194WAT     H2 5497   2.685   3.714   1.569 -0.9602  1.3905  0.5987
 1194WAT    EPW 5498   2.626   3.716   1.621 -0.7170  0.1504  0.9524
 1195WAT      O 5499   2.931   4.832   0.131 -0.2766 -0.2025  0.6234
 1195WAT     H1 5500   3.009   4.818   0.094 -0.7028 -2.0131  0.3375
 1195WAT     H2 5501   2.928   4.772   0.195 -2.1389 -1.4350 -0.5232
 1195WAT    EPW 5502   2.942   4.821   0.135 -0.6146 -0.6520  0.4118
 1196WAT      O 5503   3.603   5.651   5.068 -0.2717  0.3624  0.0999
 1196WAT     H1 5504   3.633   5.573   5.043 -1.0925 -0.5537  1.8424
 1196WAT     H2 5505   3.675   5.700   5.074  0.2276 -0.1481 -1.2628
 1196WAT    EPW 5506   3.618   5.647   5.065 -0.3192  0.1516  0.1560
 1197WAT      O 5507   0.098   0.762   3.155 -0.0145 -0.1392 -0.3737
 1197WAT     H1 5508   0.112   0.694   3.208 -0.5613 -0.0164 -0.0574
 1197WAT     H2 5509   0.012   0.777   3.164 -0.3287 -0.7263 -2.0322
 1197WAT    EPW 5510   0.087   0.754   3.164 -0.1417 -0.2078 -0.5720
 1198WAT      O 5511   1.765   7.091   2.899 -0.0951 -0.1464 -0.0044
 1198WAT     H1 5512   1.850   7.100   2.917 -0.5558  1.6003  1.7386
 1198WAT     H2 5513   1.750   7.154   2.840 -0.0195 -1.1163 -1.0916
 1198WAT    EPW 5514   1.775   7.102   2.893 -0.1520 -0.0316  0.0924
 1199WAT      O 5515   4.727   6.745   5.896  0.1010  0.4164 -0.1086
 1199WAT     H1 5516   4.654   6.762   5.940 -0.4677 -0.3876 -0.6974
 1199WAT     H2 5517   4.736   6.658   5.905  1.3271  0.5812  0.4621
 1199WAT    EPW 5518   4.718   6.734   5.904  0.1981  0.3220 -0.1113
 1200WAT      O 5519   4.661   7.140   7.101  0.2985  0.3978 -0.0203
 1200WAT     H1 5520   4.593   7.158   7.153  0.2169 -0.8973  0.3565
 1200WAT     H2 5521   4.730   7.155   7.152  0.2182 -0.8932  0.5120
 1200WAT    EPW 5522   4.661   7.145   7.116  0.2746  0.0158  0.1140
 1201WAT      O 5523   5.222   0.284   1.797  0.4005 -0.2375  0.3692
 1201WAT     H1 5524   5.238   0.203   1.826  0.2733 -1.5725 -2.7884
 1201WAT     H2 5525   5.300   0.311   1.769 -0.0043 -0.5064 -1.1457
 1201WAT    EPW 5526   5.236   0.276   1.797  0.3219 -0.4744 -0.3210
 1202WAT      O 5527   0.888   1.991   5.757 -0.5189  0.5181 -0.0031
 1202WAT     H1 5528   0.944   1.995   5.690  0.1932  0.2836  0.5580
 1202WAT     H2 5529   0.869   2.074   5.773 -0.3430  0.5987 -0.2154
 1202WAT    EPW 5530   0.894   2.004   5.750 -0.3877  0.4954  0.0484
 1203WAT      O 5531   1.572   0.631   4.074  0.1936 -0.3267  0.8873
 1203WAT     H1 5532   1.503   0.666   4.113  0.5321  0.2870  0.9384
 1203WAT     H2 5533   1.640   0.669   4.113  0.5438  0.4832 -0.4268
 1203WAT    EPW 5534   1.572   0.642   4.085  0.2953 -0.1164  0.7007
 1204WAT      O 5535   4.387   0.631   0.663 -0.2573  0.7192  0.2125
 1204WAT     H1 5536   4.365   0.549   0.681 -2.3976  1.0943 -0.4043
 1204WAT     H2 5537   4.436   0.623   0.592  0.7241 -0.1002  0.9530
 1204WAT    EPW 5538   4.391   0.618   0.655 -0.4285  0.6536  0.2308
 1205WAT      O 5539   1.985   1.231   2.671 -0.3153  0.0052  0.7924
 1205WAT     H1 5540   2.061   1.204   2.704 -0.4003  0.4300  1.3394
 1205WAT     H2 5541   1.931   1.227   2.738 -0.9811 -1.0341  0.2253
 1205WAT    EPW 5542   1.988   1.226   2.686 -0.4262 -0.0856  0.7895
 1206WAT      O 5543   2.649   6.756   5.270 -0.3840 -0.0192  0.4584
 1206WAT     H1 5544   2.709   6.802   5.314 -1.9598  1.2185  1.4471
 1206WAT     H2 5545   2.665   6.674   5.292  1.2912  0.2012  0.2179
 1206WAT    EPW 5546   2.660   6.751   5.280 -0.3693  0.1962  0.5689
 1207WAT      O 5547   0.983   0.505   3.439 -0.1049 -0.3835  0.0725
 1207WAT     H1 5548   1.048   0.540   3.485  0.0726  2.3323 -1.9736
 1207WAT     H2 5549   0.925   0.570   3.434 -0.4557 -0.7959 -2.7440
 1207WAT    EPW 5550   0.984   0.520   3.445 -0.1305 -0.0432 -0.6458
 1208WAT      O 5551   0.656   2.989   0.545 -0.3111  0.4249 -0.0489
 1208WAT     H1 5552   0.681   3.069   0.571  2.2509 -0.6020  0.9594
 1208WAT     H2 5553   0.730   2.953   0.516 -1.7456 -1.0076 -2.2624
 1208WAT    EPW 5554   0.670   2.996   0.544 -0.1445  0.0616 -0.2269
 1209WAT      O 5555   5.851   6.721   4.104  0.3916 -0.0182  0.0740
 1209WAT     H1 5556   5.917   6.717   4.162  1.6468 -0.3346 -1.3332
 1209WAT     H2 5557   5.867   6.795   4.060 -0.4971  0.1680  0.0443
 1209WAT    EPW 5558   5.863   6.731   4.106  0.4457 -0.0374 -0.1382
 1210WAT      O 5559   0.754   3.631   6.996 -0.4952 -0.9552  0.1163
 1210WAT     H1 5560   0.698   3.599   7.054 -0.9933  0.4018  0.4240
 1210WAT     H2 5561   0.764   3.566   6.939 -1.7292 -1.5301  0.5165
 1210WAT    EPW 5562   0.747   3.617   6.996 -0.7511 -0.8397  0.2209
 1211WAT      O 5563   2.205   1.536   5.718 -0.3965 -0.9802  0.2422
 1211WAT     H1 5564   2.170   1.607   5.683 -0.2249 -0.7647  0.4967
 1211WAT     H2 5565   2.140   1.500   5.763 -0.5504 -1.1228 -0.0914
 1211WAT    EPW 5566   2.190   1.541   5.720 -0.3939 -0.9694  0.2306
 1212WAT      O 5567   6.816   0.678   0.215 -0.2631  0.0265  0.2335
 1212WAT     H1 5568   6.810   0.638   0.137  1.4916 -1.3847  0.7525
 1212WAT     H2 5569   6.762   0.633   0.266 -0.7549  0.4119  0.0687
 1212WAT    EPW 5570   6.807   0.666   0.211 -0.0765 -0.1250  0.2858
 1213WAT      O 5571   5.576   0.907   0.841  0.6509 -0.7312  0.6526
 1213WAT     H1 5572   5.628   0.910   0.911  0.7827  0.9994  0.5348
 1213WAT     H2 5573   5.570   0.991   0.817 -0.5169 -1.1341 -0.5794
 1213WAT    EPW 5574   5.583   0.920   0.848  0.4979 -0.5350  0.4532
 1214WAT      O 5575   4.906   1.912   6.055 -0.3884 -0.1301  0.1399
 1214WAT     H1 5576   4.963   1.953   6.002  0.0493 -0.0437  0.6735
 1214WAT     H2 5577   4.882   1.842   6.009 -0.4617  0.2508 -0.4163
 1214WAT    EPW 5578   4.911   1.908   6.040 -0.3346 -0.0610  0.1366
 1215WAT      O 5579   1.103   6.029   1.934 -0.2227  0.1763  0.3764
 1215WAT     H1 5580   1.124   5.957   1.978  1.8221  0.8918  0.6716
 1215WAT     H2 5581   1.132   6.094   1.985 -0.8436  1.1527 -0.4760
 1215WAT    EPW 5582   1.110   6.028   1.948 -0.0124  0.4262  0.2941
 1216WAT      O 5583   2.455   1.900   0.350 -0.2542  0.4752  0.1057
 1216WAT     H1 5584   2.510   1.836   0.325 -2.6365 -1.6567 -0.0573
 1216WAT     H2 5585   2.408   1.916   0.278 -0.5482  1.5281  0.5144
 1216WAT    EPW 5586   2.456   1.893   0.336 -0.6496  0.3158  0.1420
 1217WAT      O 5587   7.136   4.591   5.429  0.1191 -0.3142  0.2736
 1217WAT     H1 5588   7.176   4.536   5.374 -0.2881  0.4601 -0.8209
 1217WAT     H2 5589   7.202   4.640   5.459  0.1851  0.0888 -0.5056
 1217WAT    EPW 5590   7.152   4.590   5.425  0.0687 -0.1403 -0.0032
 1218WAT      O 5591   1.384   2.087   0.501 -0.3673  0.0821 -0.9689
 1218WAT     H1 5592   1.395   2.102   0.416  0.6442 -1.2440 -1.1064
 1218WAT     H2 5593   1.358   2.004   0.504  1.6053 -0.5680  0.0837
 1218WAT    EPW 5594   1.381   2.077   0.489  0.0735 -0.2098 -0.8337
 1219WAT      O 5595   0.753   0.286   6.771 -0.0579 -0.6717 -0.1716
 1219WAT     H1 5596   0.767   0.365   6.805  0.9213 -0.8877 -0.0532
 1219WAT     H2 5597   0.821   0.239   6.799 -0.1701 -1.3229 -0.9585
 1219WAT    EPW 5598   0.765   0.291   6.780  0.0702 -0.7998 -0.2703
 1220WAT      O 5599   3.237   2.188   3.966 -0.6370  0.2365  0.3374
 1220WAT     H1 5600   3.278   2.160   4.038  1.5179  1.4714 -0.3072
 1220WAT     H2 5601   3.172   2.131   3.957 -0.7899 -0.1580  3.0447
 1220WAT    EPW 5602   3.234   2.175   3.975 -0.3413  0.3606  0.6421
 1221WAT      O 5603   4.812   7.192   1.609  0.5751  0.3009  0.3845
 1221WAT     H1 5604   4.856   7.247   1.557  1.6038 -0.5535  0.3329
 1221WAT     H2 5605   4.830   7.221   1.689 -1.0829  1.6739  0.3217
 1221WAT    EPW 5606   4.821   7.205   1.613  0.4821  0.3775  0.3676
 1222WAT      O 5607   2.196   1.985   5.166 -0.1309  1.0407 -0.0751
 1222WAT     H1 5608   2.113   1.991   5.139  0.7575  1.5341 -3.0578
 1222WAT     H2 5609   2.231   1.926   5.113  1.6930  1.6709  0.3351
 1222WAT    EPW 5610   2.189   1.977   5.154  0.2697  1.2067 -0.4551
 1223WAT      O 5611   4.769   1.495   1.533  0.0058 -0.3167 -0.2603
 1223WAT     H1 5612   4.752   1.451   1.606  0.0825 -1.4944 -0.9202
 1223WAT     H2 5613   4.756   1.435   1.470  1.2513  0.2723 -1.1218
 1223WAT    EPW 5614   4.765   1.479   1.534  0.2011 -0.4037 -0.4850
 1224WAT      O 5615   6.887   5.631   2.149 -0.2298 -0.0946  0.5706
 1224WAT     H1 5616   6.953   5.679   2.181 -1.2976  1.6924  0.2537
 1224WAT     H2 5617   6.890   5.647   2.064 -0.6209 -0.5960  0.4636
 1224WAT    EPW 5618   6.897   5.641   2.141 -0.4453  0.0953  0.5080
 1225WAT      O 5619   6.900   5.275   1.160  0.2141  0.0273  0.3887
 1225WAT     H1 5620   6.849   5.294   1.092  0.2468  1.2437  0.6898
 1225WAT     H2 5621   6.969   5.236   1.123 -1.1463 -2.2459  0.0306
 1225WAT    EPW 5622   6.903   5.272   1.144  0.0180 -0.1288  0.3803
 1226WAT      O 5623   1.061   6.296   7.385  0.4809  0.3792  0.1484
 1226WAT     H1 5624   1.109   6.224   7.369 -0.6497 -0.2136 -0.8058
 1226WAT     H2 5625   1.118   6.352   7.420  1.4645 -0.8802  0.6487
 1226WAT    EPW 5626   1.076   6.293   7.388  0.4592  0.1056  0.0814
 1227WAT      O 5627   4.699   6.478   0.749 -0.0055  0.2377 -0.0795
 1227WAT     H1 5628   4.706   6.409   0.802  2.1989 -1.0767 -1.8658
 1227WAT     H2 5629   4.616   6.503   0.758 -0.3519 -1.4262  2.0996
 1227WAT    EPW 5630   4.688   6.471   0.758  0.2690 -0.2022 -0.0214
 1228WAT      O 5631   5.886   4.784   2.759  0.2129 -0.3380  0.0741
 1228WAT     H1 5632   5.890   4.860   2.801  3.0034 -0.1482 -0.3551
 1228WAT     H2 5633   5.885   4.807   2.675  2.0502 -0.7102 -0.0894
 1228WAT    EPW 5634   5.886   4.799   2.753  0.8965 -0.3649 -0.0134
 1229WAT      O 5635   2.981   1.719   1.991 -0.5760  0.1534 -0.0319
 1229WAT     H1 5636   3.035   1.664   2.033  1.5871  2.0997 -0.0397
 1229WAT     H2 5637   3.008   1.715   1.908 -0.2115  1.3801  0.0123
 1229WAT    EPW 5638   2.993   1.710   1.985 -0.2026  0.6221 -0.0265
 1230WAT      O 5639   5.555   3.173   3.374 -0.3007 -0.2517 -0.1625
 1230WAT     H1 5640   5.519   3.165   3.295  0.1574  1.5497 -0.6112
 1230WAT     H2 5641   5.490   3.149   3.428 -2.4512  3.0555 -0.9279
 1230WAT    EPW 5642   5.540   3.168   3.370 -0.5507  0.5030 -0.3419
 1231WAT      O 5643   4.294   1.303   0.294 -0.3719  0.4423 -0.4211
 1231WAT     H1 5644   4.272   1.304   0.209  1.9277  2.0365 -1.0895
 1231WAT     H2 5645   4.255   1.373   0.327 -2.0434 -0.6886  0.1342
 1231WAT    EPW 5646   4.285   1.313   0.286 -0.2791  0.5107 -0.4378
 1232WAT      O 5647   1.976   3.841   4.674 -0.3070  0.4371 -0.2509
 1232WAT     H1 5648   2.042   3.827   4.619 -0.7646 -0.1989 -0.6558
 1232WAT     H2 5649   1.923   3.895   4.630 -0.0410  0.9898  0.0930
 1232WAT    EPW 5650   1.978   3.847   4.659 -0.3353  0.4248 -0.2599
 1233WAT      O 5651   5.292   4.761   7.058  0.0671  0.0708  0.2258
 1233WAT     H1 5652   5.208   4.781   7.044  0.3803  0.8671 -0.6485
 1233WAT     H2 5653   5.308   4.796   7.137 -0.7501 -1.2445  1.0098
 1233WAT    EPW 5654   5.282   4.769   7.068 -0.0073 -0.0059  0.2125
 1234WAT      O 5655   1.911   4.236   0.788  0.1618  0.2072 -0.2902
 1234WAT     H1 5656   1.962   4.306   0.798  0.4595 -0.1106  0.5322
 1234WAT     H2 5657   1.949   4.176   0.839  0.0626 -0.6386 -1.1894
 1234WAT    EPW 5658   1.924   4.237   0.797  0.1911  0.0353 -0.3015
 1235WAT      O 5659   5.499   6.645   4.970  0.5874 -0.1738  0.0419
 1235WAT     H1 5660   5.508   6.574   5.021 -0.1126  0.7292  1.4876
 1235WAT     H2 5661   5.486   6.709   5.027 -1.3411  0.7278 -1.2963
 1235WAT    EPW 5662   5.498   6.644   4.986  0.1991  0.0927  0.0577
 1236WAT      O 5663   5.994   3.273   1.989  0.0953 -0.0523  0.1235
 1236WAT     H1 5664   6.032   3.258   1.912  1.0175 -0.1686  0.5870
 1236WAT     H2 5665   5.909   3.262   1.972  0.2810 -0.1063 -0.8650
 1236WAT    EPW 5666   5.987   3.269   1.975  0.2590 -0.0775  0.0459
 1237WAT      O 5667   5.450   7.223   5.267 -0.1314  0.0947  0.3741
 1237WAT     H1 5668   5.510   7.186   5.215 -1.3712 -0.5240 -0.6737
 1237WAT     H2 5669   5.378   7.176   5.252 -0.2635 -0.9713  3.6687
 1237WAT    EPW 5670   5.448   7.210   5.257 -0.3341 -0.1541  0.7060
 1238WAT      O 5671   2.082   5.692   3.630 -0.1581  0.1571 -0.3490
 1238WAT     H1 5672   2.154   5.731   3.661  0.8834 -1.2616 -0.8875
 1238WAT     H2 5673   2.027   5.758   3.617  1.1259  1.3103 -0.1333
 1238WAT    EPW 5674   2.085   5.707   3.633  0.1855  0.1179 -0.3967
 1239WAT      O 5675   6.390   6.775   1.651  0.0176  0.1518 -0.3501
 1239WAT     H1 5676   6.390   6.718   1.717  0.4746 -0.1731 -0.6252
 1239WAT     H2 5677   6.311   6.766   1.616 -0.1253  0.1210 -0.0276
 1239WAT    EPW 5678   6.379   6.765   1.656  0.0640  0.0993 -0.3431
 1240WAT      O 5679   2.677   4.161   0.357 -0.4075  0.9171  0.0982
 1240WAT     H1 5680   2.761   4.166   0.381  0.0526  0.8031 -1.3500
 1240WAT     H2 5681   2.681   4.163   0.270 -1.7072 -1.5844 -0.1295
 1240WAT    EPW 5682   2.690   4.162   0.347 -0.5316  0.5307 -0.1494
 1241WAT      O 5683   6.509   1.197   2.835  0.6116  0.1188  0.5073
 1241WAT     H1 5684   6.451   1.140   2.803  0.6910 -0.4807  1.3781
 1241WAT     H2 5685   6.584   1.174   2.796  0.1841  1.2902 -1.0918
 1241WAT    EPW 5686   6.512   1.185   2.825  0.5602  0.2033  0.3997
 1242WAT      O 5687   3.178   4.769   6.760 -0.1028  0.2270 -0.2053
 1242WAT     H1 5688   3.205   4.847   6.788 -0.7752  0.5903 -0.5661
 1242WAT     H2 5689   3.238   4.714   6.793 -0.7294  0.6503  1.8009
 1242WAT    EPW 5690   3.191   4.772   6.769 -0.2947  0.3432  0.0377
 1243WAT      O 5691   5.666   4.003   5.490  0.5214  0.0247 -0.5522
 1243WAT     H1 5692   5.740   4.050   5.483 -0.6248  1.6967 -3.0745
 1243WAT     H2 5693   5.689   3.924   5.461  1.3340  0.5795 -1.5138
 1243WAT    EPW 5694   5.680   3.998   5.484  0.4721  0.3536 -1.0669
 1244WAT      O 5695   1.616   5.614   3.824 -0.4211 -0.0491 -0.5962
 1244WAT     H1 5696   1.622   5.548   3.880  2.0578  0.3821 -0.2281
 1244WAT     H2 5697   1.649   5.582   3.750  1.0199  0.7802 -0.3512
 1244WAT    EPW 5698   1.621   5.600   3.821  0.1580  0.1371 -0.5057
 1245WAT      O 5699   4.453   5.992   1.855  0.4200 -0.4110 -0.3467
 1245WAT     H1 5700   4.404   6.016   1.923 -1.7060  1.8017 -2.4102
 1245WAT     H2 5701   4.507   6.060   1.844  1.3741 -1.1471 -0.3815
 1245WAT    EPW 5702   4.454   6.006   1.863  0.2469 -0.1929 -0.6567
 1246WAT      O 5703   0.026   0.576   0.931 -0.0706  0.5500  0.1096
 1246WAT     H1 5704   0.112   0.575   0.947  0.0284 -0.9523 -0.3687
 1246WAT     H2 5705   0.021   0.603   0.849 -0.0714  0.6365  0.1371
 1246WAT    EPW 5706   0.038   0.580   0.922 -0.0561  0.3408  0.0430
 1247WAT      O 5707   5.961   1.124   3.002 -0.0091  0.2065  0.3336
 1247WAT     H1 5708   5.956   1.098   2.919 -1.0379 -0.2589  0.5141
 1247WAT     H2 5709   5.888   1.171   3.013  0.6515  1.1656  0.6873
 1247WAT    EPW 5710   5.949   1.127   2.991 -0.0635  0.2795  0.4125
 1248WAT      O 5711   2.120   7.160   3.788 -0.3541  0.3023 -0.3018
 1248WAT     H1 5712   2.189   7.169   3.841 -0.7368 -2.4167  0.8635
 1248WAT     H2 5713   2.058   7.207   3.828 -0.5559 -1.4806  1.6402
 1248WAT    EPW 5714   2.121   7.168   3.802 -0.4404 -0.3628  0.1572
 1249WAT      O 5715   1.345   3.298   1.514 -0.5276  0.4135  0.1212
 1249WAT     H1 5716   1.338   3.220   1.476 -0.9236  1.2496 -1.6121
 1249WAT     H2 5717   1.264   3.329   1.513 -0.2549  1.1430  0.1135
 1249WAT    EPW 5718   1.332   3.291   1.508 -0.5458  0.6447 -0.1360
 1250WAT      O 5719   2.989   2.507   4.112 -0.1271  0.1806 -0.5471
 1250WAT     H1 5720   2.956   2.588   4.118  0.1055  0.1968  0.8634
 1250WAT     H2 5721   2.999   2.483   4.195  0.2078 -1.1435 -0.9511
 1250WAT    EPW 5722   2.986   2.516   4.125 -0.0433 -0.0126 -0.3984
 1251WAT      O 5723   7.072   5.747   0.488  0.1928  0.2021  0.2663
 1251WAT     H1 5724   7.064   5.831   0.511 -0.6298  0.2666 -0.2041
 1251WAT     H2 5725   7.051   5.748   0.403 -2.2524 -0.8032  0.7691
 1251WAT    EPW 5726   7.067   5.760   0.479 -0.2899  0.0631  0.2711
 1252WAT      O 5727   3.670   3.464   1.092 -0.5192 -0.3928  0.2609
 1252WAT     H1 5728   3.701   3.382   1.087  1.1369  0.2508 -1.0550
 1252WAT     H2 5729   3.684   3.496   1.012 -3.1035  0.5497  0.0973
 1252WAT    EPW 5730   3.677   3.456   1.079 -0.6563 -0.1585  0.0423
 1253WAT      O 5731   4.752   3.523   5.338  0.6604 -0.1338 -0.3453
 1253WAT     H1 5732   4.793   3.574   5.280  0.0402 -0.3154 -0.9588
 1253WAT     H2 5733   4.807   3.456   5.348  0.2012 -0.7504 -1.7443
 1253WAT    EPW 5734   4.766   3.521   5.331  0.5009 -0.2517 -0.6426
 1254WAT      O 5735   4.068   0.658   0.921  0.3542 -0.1755 -0.5629
 1254WAT     H1 5736   4.112   0.589   0.953 -0.2967  0.5385  2.1148
 1254WAT     H2 5737   4.047   0.633   0.840 -1.1323 -3.7978  0.7193
 1254WAT    EPW 5738   4.071   0.644   0.914  0.0384 -0.6051  0.0220
 1255WAT      O 5739   1.399   1.148   5.270  0.1403  0.2538 -0.2116
 1255WAT     H1 5740   1.336   1.146   5.331  2.0600 -0.3451  1.8697
 1255WAT     H2 5741   1.450   1.081   5.291  2.4564  1.7577 -0.7369
 1255WAT    EPW 5742   1.397   1.138   5.282  0.7660  0.3875  0.0182
 1256WAT      O 5743   0.722   1.297   4.312  0.4127  0.2775 -0.1077
 1256WAT     H1 5744   0.781   1.327   4.255  0.1684 -0.4373 -0.7484
 1256WAT     H2 5745   0.648   1.337   4.289  0.2268 -0.3131 -0.5547
 1256WAT    EPW 5746   0.720   1.307   4.300  0.3492  0.0846 -0.2683
 1257WAT      O 5747   5.945   1.428   5.885 -0.0940 -0.3162 -0.2730
 1257WAT     H1 5748   5.983   1.351   5.899 -1.2142 -0.7446  0.5373
 1257WAT     H2 5749   5.940   1.432   5.798 -0.7367 -1.5270 -0.3161
 1257WAT    EPW 5750   5.950   1.417   5.874 -0.3545 -0.5583 -0.1597
 1258WAT      O 5751   5.464   5.465   2.639  0.5071  0.2357  0.4088
 1258WAT     H1 5752   5.408   5.471   2.572 -0.1635 -0.3076  0.9054
 1258WAT     H2 5753   5.448   5.385   2.671  0.8997  0.4482  1.1440
 1258WAT    EPW 5754   5.453   5.454   2.634  0.4660  0.1868  0.5908
 1259WAT      O 5755   5.941   5.290   1.754  0.3523  0.3844 -1.1163
 1259WAT     H1 5756   5.969   5.334   1.823  2.4306 -1.2943 -0.7696
 1259WAT     H2 5757   5.857   5.275   1.771  1.0825 -1.1026  1.7439
 1259WAT    EPW 5758   5.933   5.294   1.767  0.7671 -0.0833 -0.6426
 1260WAT      O 5759   3.146   5.537   5.517  0.6139 -0.3704  0.4385
 1260WAT     H1 5760   3.146   5.460   5.474  0.0212  0.3494 -0.9270
 1260WAT     H2 5761   3.231   5.557   5.522  0.7613 -1.0186  0.6245
 1260WAT    EPW 5762   3.158   5.528   5.511  0.5481 -0.3598  0.2642
 1261WAT      O 5763   5.537   2.433   4.748 -0.3544 -0.5955  0.3911
 1261WAT     H1 5764   5.514   2.361   4.705 -1.2779 -1.9689  2.9774
 1261WAT     H2 5765   5.470   2.487   4.736 -0.2320 -0.6300 -0.5128
 1261WAT    EPW 5766   5.524   2.430   4.740 -0.4728 -0.8035  0.6396
 1262WAT      O 5767   5.843   0.002   3.935 -0.4378 -0.3606 -0.0530
 1262WAT     H1 5768   5.898   0.065   3.913 -1.8250  0.7091 -0.6143
 1262WAT     H2 5769   5.782   0.043   3.982 -0.5429 -1.5801  0.9451
 1262WAT    EPW 5770   5.842   0.017   3.939 -0.6583 -0.3828  0.0115
 1263WAT      O 5771   4.548   2.952   0.297 -0.1053  0.1835  0.2528
 1263WAT     H1 5772   4.624   2.986   0.273  0.9632 -0.2190  2.7243
 1263WAT     H2 5773   4.556   2.943   0.384 -1.1042 -4.2249  0.1236
 1263WAT    EPW 5774   4.561   2.956   0.307 -0.0950 -0.5272  0.5988
 1264WAT      O 5775   1.430   6.796   5.765 -0.0917 -0.2367 -0.2712
 1264WAT     H1 5776   1.487   6.860   5.780 -0.1919 -0.1681 -0.1760
 1264WAT     H2 5777   1.478   6.733   5.730  0.3309 -0.7706  1.2176
 1264WAT    EPW 5778   1.445   6.796   5.762 -0.0441 -0.3055 -0.0372
 1265WAT      O 5779   5.521   0.923   5.902  0.0507  0.2353  0.5536
 1265WAT     H1 5780   5.467   0.913   5.970  1.0640 -0.5361  1.2704
 1265WAT     H2 5781   5.479   0.885   5.836 -0.1997 -0.5444  1.1479
 1265WAT    EPW 5782   5.507   0.916   5.902  0.1634  0.0062  0.7473
 1266WAT      O 5783   2.645   4.162   3.924  0.5431 -0.4501 -0.0045
 1266WAT     H1 5784   2.654   4.142   4.009  0.6938 -0.0645  0.0725
 1266WAT     H2 5785   2.601   4.238   3.926 -0.0965 -0.8047 -0.2917
 1266WAT    EPW 5786   2.639   4.170   3.937  0.4709 -0.4456 -0.0355
 1267WAT      O 5787   0.682   0.316   2.786 -0.0250  0.1968 -0.8733
 1267WAT     H1 5788   0.758   0.303   2.828 -0.8517 -1.6934  0.2189
 1267WAT     H2 5789   0.677   0.248   2.732 -0.6924  0.5862 -1.3142
 1267WAT    EPW 5790   0.692   0.304   2.784 -0.2457 -0.0249 -0.7771
 1268WAT      O 5791   3.175   1.093   5.473 -0.5433 -0.3312 -0.0538
 1268WAT     H1 5792   3.131   1.168   5.476  0.1492  0.1768 -1.5984
 1268WAT     H2 5793   3.117   1.036   5.441 -0.9266 -0.3489  0.6645
 1268WAT    EPW 5794   3.160   1.095   5.468 -0.4976 -0.2588 -0.1758
 1269WAT      O 5795   6.035   3.862   5.178  0.0347  0.5037 -0.2048
 1269WAT     H1 5796   6.109   3.819   5.161  0.9466  1.9229 -0.0036
 1269WAT     H2 5797   6.019   3.905   5.104  0.0971  1.1465  0.1454
 1269WAT    EPW 5798   6.043   3.862   5.165  0.1786  0.8083 -0.1233
 1270WAT      O 5799   0.134   3.410   3.437 -0.6521 -0.1832  0.1502
 1270WAT     H1 5800   0.221   3.423   3.439 -0.9130  1.8966  0.3886
 1270WAT     H2 5801   0.123   3.338   3.484  0.8934 -0.0623  0.7544
 1270WAT    EPW 5802   0.145   3.401   3.444 -0.4624  0.1419  0.2746
 1271WAT      O 5803   6.881   3.440   6.106  0.2880 -0.3438  0.4339
 1271WAT     H1 5804   6.794   3.452   6.111  0.4842  0.8304  2.3338
 1271WAT     H2 5805   6.911   3.519   6.085  0.9966 -0.1253  2.1166
 1271WAT    EPW 5806   6.873   3.454   6.104  0.4217 -0.1381  0.9631
 1272WAT      O 5807   4.843   4.085   3.684 -0.4709 -0.1998 -0.2235
 1272WAT     H1 5808   4.770   4.126   3.659 -0.5347  0.0675  0.3689
 1272WAT     H2 5809   4.825   4.001   3.672 -0.6975 -0.1046 -0.5444
 1272WAT    EPW 5810   4.829   4.079   3.679 -0.5138 -0.1463 -0.1834
 1273WAT      O 5811   0.574   0.527   1.415  0.4801  0.7209  0.1179
 1273WAT     H1 5812   0.654   0.540   1.384  0.2628  1.5533 -0.0939
 1273WAT     H2 5813   0.545   0.607   1.432 -0.1232  0.3940  0.6657
 1273WAT    EPW 5814   0.582   0.541   1.413  0.3589  0.7956  0.1675
 1274WAT      O 5815   3.561   1.373   0.123  0.0783 -0.0781  0.6020
 1274WAT     H1 5816   3.630   1.348   0.170  0.0681  0.0030  0.6612
 1274WAT     H2 5817   3.532   1.444   0.165 -1.5585 -1.5213  2.0718
 1274WAT    EPW 5818   3.567   1.380   0.136 -0.1650 -0.2793  0.8279
 1275WAT      O 5819   4.546   6.101   0.964 -0.2130  0.6210 -0.1180
 1275WAT     H1 5820   4.544   6.086   1.050  0.3577  1.4013  0.0494
 1275WAT     H2 5821   4.519   6.026   0.929 -0.7801  0.4066  0.7504
 1275WAT    EPW 5822   4.542   6.088   0.972 -0.2125  0.7046  0.0350
 1276WAT      O 5823   6.695   2.841   1.084 -0.2966  0.8786 -0.6035
 1276WAT     H1 5824   6.742   2.785   1.131 -0.3884  2.5336  1.5863
 1276WAT     H2 5825   6.732   2.918   1.099 -1.4496  1.7268 -1.8367
 1276WAT    EPW 5826   6.707   2.844   1.093 -0.4805  1.2484 -0.4622
 1277WAT      O 5827   3.415   2.213   6.766 -0.1535 -0.6817  0.9018
 1277WAT     H1 5828   3.498   2.200   6.791 -0.4426 -4.5842  0.4066
 1277WAT     H2 5829   3.423   2.242   6.684  0.7339 -0.4885  1.0445
 1277WAT    EPW 5830   3.429   2.215   6.758 -0.0651 -1.2297  0.8497
 1278WAT      O 5831   2.389   2.549   2.907  0.4167 -0.2624  0.3925
 1278WAT     H1 5832   2.351   2.623   2.933  0.0752 -1.0092  2.1822
 1278WAT     H2 5833   2.340   2.486   2.943 -0.2110 -1.4683 -2.3075
 1278WAT    EPW 5834   2.376   2.550   2.916  0.2736 -0.5509  0.2580
 1279WAT      O 5835   4.083   4.939   2.430  0.3960  0.5121 -0.2565
 1279WAT     H1 5836   4.000   4.929   2.407  0.0385 -0.7456  1.3868
 1279WAT     H2 5837   4.117   4.859   2.422  0.5993  0.2920  1.9694
 1279WAT    EPW 5838   4.076   4.926   2.426  0.3732  0.2938  0.3151
 1280WAT      O 5839   0.924   3.121   5.432 -0.0389 -0.0305  0.0638
 1280WAT     H1 5840   0.939   3.112   5.347  1.1085 -2.2734  0.4334
 1280WAT     H2 5841   1.004   3.118   5.467 -0.6264 -1.5262  1.3594
 1280WAT    EPW 5842   0.938   3.119   5.425  0.0438 -0.5828  0.3098
 1281WAT      O 5843   1.338   1.128   3.041 -0.4253  0.3345  0.1100
 1281WAT     H1 5844   1.326   1.179   2.971  0.1408 -1.3418 -1.2907
 1281WAT     H2 5845   1.272   1.149   3.094 -0.9418  1.5806 -0.9653
 1281WAT    EPW 5846   1.327   1.139   3.039 -0.4180  0.2709 -0.2558
 1282WAT      O 5847   3.231   4.775   0.573 -0.1291  0.5318 -0.3524
 1282WAT     H1 5848   3.243   4.839   0.514  0.9241 -0.4226 -1.2149
 1282WAT     H2 5849   3.259   4.704   0.532 -0.7294 -0.4008  0.8092
 1282WAT    EPW 5850   3.237   4.774   0.558 -0.0622  0.2530 -0.3082
 1283WAT      O 5851   6.714   3.342   3.632 -0.8137  0.3380 -0.4981
 1283WAT     H1 5852   6.772   3.408   3.633  0.2039 -0.5237 -1.0147
 1283WAT     H2 5853   6.678   3.348   3.553 -0.2682 -0.1022 -0.7833
 1283WAT    EPW 5854   6.717   3.353   3.621 -0.5828  0.1457 -0.6165
 1284WAT      O 5855   0.223   0.130   3.526 -0.0270  0.1454  0.1050
 1284WAT     H1 5856   0.273   0.196   3.499  0.8905 -1.3955 -2.2591
 1284WAT     H2 5857   0.268   0.098   3.594 -0.4112  1.7594  1.1947
 1284WAT    EPW 5858   0.237   0.135   3.532  0.0518  0.1562 -0.0833
 1285WAT      O 5859   1.290   1.825   0.868 -0.0128  0.0873 -0.2388
 1285WAT     H1 5860   1.353   1.865   0.821 -0.5255 -0.0041 -1.0114
 1285WAT     H2 5861   1.237   1.791   0.807  0.0771 -1.2628  0.4016
 1285WAT    EPW 5862   1.292   1.826   0.852 -0.0753 -0.1256 -0.2583
 1286WAT      O 5863   1.244   2.512   4.984 -0.2137 -0.4084  0.0269
 1286WAT     H1 5864   1.176   2.475   5.024  0.6777  0.2933  2.3660
 1286WAT     H2 5865   1.305   2.450   4.987  0.0940 -0.0971  0.5333
 1286WAT    EPW 5866   1.243   2.497   4.991 -0.0366 -0.2588  0.4472
 1287WAT      O 5867   1.518   5.847   0.443 -0.4880 -0.2231  0.1106
 1287WAT     H1 5868   1.600   5.873   0.431 -0.9977  0.8817 -1.2931
 1287WAT     H2 5869   1.526   5.767   0.479  1.1709 -0.0578  0.1584
 1287WAT    EPW 5870   1.531   5.839   0.447 -0.3182 -0.0355 -0.0897
 1288WAT      O 5871   6.242   1.764   6.881 -0.3090 -0.2410 -0.2092
 1288WAT     H1 5872   6.228   1.770   6.967  1.0286 -1.6996  0.1542
 1288WAT     H2 5873   6.166   1.732   6.850 -0.9361  0.6793  0.3490
 1288WAT    EPW 5874   6.229   1.760   6.889 -0.2040 -0.3205 -0.0730
 1289WAT      O 5875   6.329   5.142   2.201 -0.5733  0.1869  0.0180
 1289WAT     H1 5876   6.368   5.110   2.130 -0.5114 -0.9720  0.5437
 1289WAT     H2 5877   6.395   5.160   2.254 -0.6833 -0.7626  0.4974
 1289WAT    EPW 5878   6.344   5.140   2.198 -0.5804 -0.1246  0.1665
 1290WAT      O 5879   1.438   1.211   0.107 -0.4927  0.6003  0.0093
 1290WAT     H1 5880   1.472   1.144   0.063  1.7240  1.2341  0.6320
 1290WAT     H2 5881   1.355   1.213   0.080  0.0799 -0.6786 -2.0926
 1290WAT    EPW 5882   1.431   1.201   0.097 -0.0806  0.5050 -0.2092
 1291WAT      O 5883   5.529   2.169   0.889  0.3099 -0.0264 -0.2410
 1291WAT     H1 5884   5.531   2.086   0.917 -1.0015  0.7184  2.4350
 1291WAT     H2 5885   5.474   2.167   0.822 -0.3710 -1.2116  0.3198
 1291WAT    EPW 5886   5.521   2.156   0.883  0.0156 -0.0915  0.2372
 1292WAT      O 5887   2.878   3.685   3.427 -0.0506  0.3812 -0.0871
 1292WAT     H1 5888   2.826   3.665   3.494 -2.2100  0.8706 -1.5080
 1292WAT     H2 5889   2.863   3.619   3.370  1.4877  0.1379 -0.2359
 1292WAT    EPW 5890   2.868   3.672   3.428 -0.1423  0.4176 -0.3190
 1293WAT      O 5891   6.290   2.584   6.753 -0.7840 -0.6946  0.1211
 1293WAT     H1 5892   6.291   2.669   6.735  0.9736 -0.4850  1.1019
 1293WAT     H2 5893   6.283   2.547   6.674  1.6944  0.3163 -0.6627
 1293WAT    EPW 5894   6.289   2.591   6.738 -0.1582 -0.5143  0.1502
 1294WAT      O 5895   4.571   5.072   3.364 -0.3589  0.2337 -0.6319
 1294WAT     H1 5896   4.493   5.037   3.377  0.1442 -0.7779 -0.2331
 1294WAT     H2 5897   4.559   5.156   3.382 -1.9136  0.5934 -2.8739
 1294WAT    EPW 5898   4.558   5.079   3.368 -0.5142  0.1374 -0.9042
 1295WAT      O 5899   5.084   0.331   5.926 -0.2543  0.0442  0.1165
 1295WAT     H1 5900   5.018   0.323   5.983 -0.0722 -0.4575  0.2624
 1295WAT     H2 5901   5.155   0.315   5.975 -0.0456  0.2797 -0.1062
 1295WAT    EPW 5902   5.085   0.327   5.942 -0.1966  0.0049  0.1051
 1296WAT      O 5903   5.037   6.310   4.783 -0.2406 -0.0513 -0.4525
 1296WAT     H1 5904   5.000   6.255   4.840 -0.2787  1.5949  1.2334
 1296WAT     H2 5905   5.114   6.273   4.765 -0.6113 -1.0525 -0.0393
 1296WAT    EPW 5906   5.043   6.296   4.789 -0.3010  0.0440 -0.1424
 1297WAT      O 5907   6.760   4.103   7.097 -0.3662 -0.7195  0.3985
 1297WAT     H1 5908   6.678   4.127   7.113 -0.5547  1.5695 -2.9857
 1297WAT     H2 5909   6.807   4.157   7.147 -0.8768 -1.0529  1.2609
 1297WAT    EPW 5910   6.755   4.114   7.107 -0.4694 -0.4306  0.0260
 1298WAT      O 5911   5.213   6.660   5.448  0.7233 -0.1076  0.4864
 1298WAT     H1 5912   5.226   6.648   5.534 -0.5952 -0.7434  0.6165
 1298WAT     H2 5913   5.179   6.740   5.443  1.2992  0.1466  0.4841
 1298WAT    EPW 5914   5.210   6.670   5.460  0.6136 -0.1640  0.5053
 1299WAT      O 5915   5.951   7.212   7.003  0.1570  0.1855  0.4042
 1299WAT     H1 5916   5.878   7.202   6.956 -0.3050  0.2819  1.0724
 1299WAT     H2 5917   5.959   7.298   7.012 -0.7947  0.1617  2.0014
 1299WAT    EPW 5918   5.941   7.223   6.998 -0.0518  0.1962  0.7388
 1300WAT      O 5919   5.613   2.687   2.080 -0.1644  0.1634 -0.1837
 1300WAT     H1 5920   5.616   2.652   2.001  2.1985 -1.1899  0.4028
 1300WAT     H2 5921   5.639   2.769   2.067 -2.1636  0.7095 -1.0768
 1300WAT    EPW 5922   5.617   2.694   2.067 -0.1107  0.0442 -0.2290
 1301WAT      O 5923   4.550   1.991   6.270  0.2984  0.3202 -0.2629
 1301WAT     H1 5924   4.518   2.068   6.295  0.5232  0.4461 -0.3559
 1301WAT     H2 5925   4.485   1.935   6.285  0.8193  0.1735  1.7855
 1301WAT    EPW 5926   4.536   1.994   6.276  0.4086  0.3171  0.0259
 1302WAT      O 5927   5.636   2.028   3.794 -0.3032 -0.2465 -0.1982
 1302WAT     H1 5928   5.651   2.034   3.879  0.4596 -0.3755 -0.3211
 1302WAT     H2 5929   5.591   1.953   3.786 -1.0362  0.1419  0.1650
 1302WAT    EPW 5930   5.631   2.018   3.805 -0.2988 -0.2082 -0.1627
 1303WAT      O 5931   0.909   0.053   3.278  0.0540  0.1964  0.4687
 1303WAT     H1 5932   0.954   0.123   3.305  0.9424 -0.8117  1.6888
 1303WAT     H2 5933   0.963   0.014   3.222 -0.4508  0.4805 -0.2310
 1303WAT    EPW 5934   0.924   0.058   3.274  0.1107  0.0894  0.5456
 1304WAT      O 5935   4.981   5.105   5.781  0.0229 -0.6236  0.3525
 1304WAT     H1 5936   4.959   5.114   5.697 -0.2821 -0.9793  0.3904
 1304WAT     H2 5937   4.932   5.037   5.808 -0.0015 -0.4095  0.8587
 1304WAT    EPW 5938   4.971   5.096   5.772 -0.0257 -0.6446  0.4329
 1305WAT      O 5939   1.880   1.174   1.309 -0.6529 -0.3440  0.0757
 1305WAT     H1 5940   1.853   1.229   1.371 -0.3867 -1.0033  0.8103
 1305WAT     H2 5941   1.808   1.159   1.262 -0.7243  0.6207 -0.1366
 1305WAT    EPW 5942   1.865   1.180   1.311 -0.6241 -0.2989  0.1529
 1306WAT      O 5943   4.816   0.301   5.036 -0.0015  0.2778 -0.9192
 1306WAT     H1 5944   4.791   0.237   4.982  1.2763 -0.0123 -1.2040
 1306WAT     H2 5945   4.753   0.303   5.096  0.4137 -1.9841 -0.3035
 1306WAT    EPW 5946   4.803   0.292   5.037  0.2486 -0.0992 -0.8703
 1307WAT      O 5947   7.107   5.263   4.064  0.0668  0.5594  0.0829
 1307WAT     H1 5948   7.076   5.324   4.010 -1.9111  0.8693  1.4793
 1307WAT     H2 5949   7.085   5.292   4.143 -0.5465 -1.7454  0.8299
 1307WAT    EPW 5950   7.099   5.277   4.068 -0.3159  0.2647  0.3995
 1308WAT      O 5951   1.544   3.062   0.128  0.5163 -0.1694  0.6484
 1308WAT     H1 5952   1.487   3.003   0.096  0.3066 -0.1736  1.0277
 1308WAT     H2 5953   1.566   3.029   0.206  0.5177  0.1747  0.7948
 1308WAT    EPW 5954   1.539   3.048   0.135  0.4855 -0.1192  0.7260
 1309WAT      O 5955   4.949   4.673   2.158 -0.5375 -0.3142 -0.5949
 1309WAT     H1 5956   4.909   4.626   2.097 -3.1362  0.0890  0.6766
 1309WAT     H2 5957   4.934   4.629   2.232 -0.3808  0.9117  0.2003
 1309WAT    EPW 5958   4.941   4.660   2.160 -0.8982 -0.0735 -0.2896
 1310WAT      O 5959   1.069   4.863   1.979  0.1015  0.4891 -0.2858
 1310WAT     H1 5960   1.090   4.815   1.910  1.0343 -0.1289  0.3989
 1310WAT     H2 5961   1.112   4.938   1.966 -0.0072  0.5098 -0.5343
 1310WAT    EPW 5962   1.078   4.867   1.967  0.2233  0.4009 -0.2214
 1311WAT      O 5963   5.349   3.385   1.856  0.4404 -0.5688 -0.2842
 1311WAT     H1 5964   5.337   3.387   1.770 -0.4573 -0.2158 -0.1563
 1311WAT     H2 5965   5.273   3.413   1.889  1.7095  2.2421  0.5613
 1311WAT    EPW 5966   5.336   3.389   1.848  0.4953 -0.1014 -0.1404
 1312WAT      O 5967   3.906   1.531   7.281 -0.8310 -0.0196  0.3709
 1312WAT     H1 5968   3.834   1.483   7.276 -1.3933  0.9154 -1.3252
 1312WAT     H2 5969   3.888   1.600   7.230  2.2207 -1.0724 -2.5303
 1312WAT    EPW 5970   3.893   1.534   7.272 -0.4633 -0.0370 -0.3082
 1313WAT      O 5971   1.019   6.671   7.312  0.2378 -0.9154 -0.2363
 1313WAT     H1 5972   0.994   6.625   7.242 -0.5496 -1.6427  0.4995
 1313WAT     H2 5973   1.030   6.610   7.374  0.3614 -0.2305  0.4289
 1313WAT    EPW 5974   1.017   6.655   7.311  0.1397 -0.9217 -0.0294
 1314WAT      O 5975   0.335   4.793   0.059 -0.4843 -0.1237  0.2762
 1314WAT     H1 5976   0.393   4.754   0.111 -0.2568  1.2607  1.1436
 1314WAT     H2 5977   0.331   4.874   0.092 -0.4215  0.7936 -1.8137
 1314WAT    EPW 5978   0.343   4.800   0.072 -0.4414  0.2163  0.0956
 1315WAT      O 5979   3.584   1.817   6.910  0.4798 -0.0765 -0.0279
 1315WAT     H1 5980   3.665   1.839   6.886  0.1034  4.2637  1.6612
 1315WAT     H2 5981   3.596   1.763   6.977  2.0353  0.5986  0.2869
 1315WAT    EPW 5982   3.598   1.812   6.916  0.6540  0.6643  0.2681
 1316WAT      O 5983   4.748   4.260   1.142 -0.1340 -0.0668  0.2967
 1316WAT     H1 5984   4.703   4.251   1.216 -1.7987 -1.2853 -0.7919
 1316WAT     H2 5985   4.758   4.346   1.135 -2.6198  0.3269  0.4800
 1316WAT    EPW 5986   4.743   4.271   1.152 -0.7472 -0.1886  0.1630
 1317WAT      O 5987   1.272   6.333   2.751 -0.0739  0.6956 -0.4394
 1317WAT     H1 5988   1.323   6.298   2.689 -0.4867  1.0382 -0.9901
 1317WAT     H2 5989   1.326   6.388   2.792  0.3097  0.1669 -0.2289
 1317WAT    EPW 5990   1.288   6.336   2.748 -0.0782  0.6681 -0.4896
 1318WAT      O 5991   2.574   6.613   6.939  0.5560 -0.4502  0.0989
 1318WAT     H1 5992   2.516   6.553   6.913 -0.0057 -0.1468  0.6126
 1318WAT     H2 5993   2.554   6.625   7.023  0.0340  1.1324 -0.2066
 1318WAT    EPW 5994   2.562   6.606   6.947  0.3959 -0.1716  0.1297
 1319WAT      O 5995   0.155   7.216   2.601 -0.3437 -0.3066  0.1989
 1319WAT     H1 5996   0.159   7.203   2.515  1.7551 -0.3266  0.2580
 1319WAT     H2 5997   0.147   7.302   2.609 -0.3649 -0.2879 -0.0174
 1319WAT    EPW 5998   0.154   7.227   2.590 -0.0368 -0.3068  0.1757
 1320WAT      O 5999   5.172   5.707   2.133  0.2778  0.5522  0.4843
 1320WAT     H1 6000   5.104   5.741   2.090  0.4610  1.1926  0.6991
 1320WAT     H2 6001   5.137   5.681   2.209 -0.2042 -1.2562 -0.3014
 1320WAT    EPW 6002   5.156   5.708   2.138  0.2336  0.3797  0.4000
 1321WAT      O 6003   0.834   4.346   3.790  0.3980  0.1359 -0.0162
 1321WAT     H1 6004   0.748   4.334   3.785  0.5557 -1.4608  0.4580
 1321WAT     H2 6005   0.867   4.266   3.779  1.9157  0.8891 -1.5822
 1321WAT    EPW 6006   0.826   4.333   3.788  0.6455  0.0113 -0.1775
 1322WAT      O 6007   0.052   1.654   2.976 -0.0063 -0.4137 -0.1297
 1322WAT     H1 6008   0.055   1.709   2.908 -1.6362 -0.2466 -0.1214
 1322WAT     H2 6009  -0.026   1.614   2.966  1.2022 -2.9469 -0.2839
 1322WAT    EPW 6010   0.041   1.656   2.964 -0.0686 -0.7632 -0.1513
 1323WAT      O 6011   2.016   2.919   7.296 -0.6269 -0.5310  0.1020
 1323WAT     H1 6012   2.066   2.851   7.275  0.2519 -0.0772  0.6478
 1323WAT     H2 6013   2.074   2.982   7.312 -1.4186  0.9071 -2.1833
 1323WAT    EPW 6014   2.032   2.919   7.295 -0.6140 -0.2515 -0.1550
 1324WAT      O 6015   4.204   6.873   6.898  0.3480  0.4485  0.5914
 1324WAT     H1 6016   4.266   6.882   6.837 -0.6444 -0.1280 -0.5244
 1324WAT     H2 6017   4.206   6.950   6.940 -0.4711  1.7829 -1.6497
 1324WAT    EPW 6018   4.214   6.886   6.895  0.0804  0.5605  0.0955
 1325WAT      O 6019   1.072   6.705   2.513 -0.3296 -0.5473 -0.2297
 1325WAT     H1 6020   1.060   6.630   2.554  0.4768  0.1043  1.2844
 1325WAT     H2 6021   1.153   6.697   2.480 -0.4870 -0.5823 -0.6093
 1325WAT    EPW 6022   1.082   6.693   2.514 -0.2337 -0.4562 -0.0621
 1326WAT      O 6023   4.572   1.206   6.565 -0.3605 -0.5647 -0.1588
 1326WAT     H1 6024   4.521   1.139   6.543 -3.4535  1.7412 -0.8379
 1326WAT     H2 6025   4.540   1.230   6.643  1.9540 -0.9269  0.9775
 1326WAT    EPW 6026   4.560   1.200   6.574 -0.4755 -0.2776 -0.0912
 1327WAT      O 6027   1.124   1.757   5.631 -0.0342 -0.1172  0.1786
 1327WAT     H1 6028   1.081   1.781   5.559  0.7466 -1.0546 -0.6437
 1327WAT     H2 6029   1.067   1.707   5.674 -0.3435  0.0578 -0.0340
 1327WAT    EPW 6030   1.110   1.753   5.627  0.0355 -0.2298  0.0257
 1328WAT      O 6031   5.201   3.419   1.607 -0.0802  0.2007  0.4075
 1328WAT     H1 6032   5.144   3.483   1.625 -0.8116 -0.7732  1.6847
 1328WAT     H2 6033   5.256   3.456   1.551 -0.9549  1.7087  0.4985
 1328WAT    EPW 6034   5.200   3.434   1.601 -0.3174  0.2796  0.6096
 1329WAT      O 6035   4.222   1.187   4.877 -0.0217 -0.4077  0.1867
 1329WAT     H1 6036   4.160   1.145   4.832  0.0124 -0.2487 -0.0066
 1329WAT     H2 6037   4.194   1.269   4.879  1.3686  0.2156 -2.0553
 1329WAT    EPW 6038   4.209   1.193   4.870  0.1887 -0.2922 -0.1731
 1330WAT      O 6039   5.656   0.414   2.977  0.1167  0.0324  0.3782
 1330WAT     H1 6040   5.672   0.408   3.063  3.2629  1.5166  0.0355
 1330WAT     H2 6041   5.692   0.490   2.955  0.3221 -0.7950 -2.4398
 1330WAT    EPW 6042   5.664   0.424   2.987  0.6118  0.1294 -0.0887
 1331WAT      O 6043   1.329   3.960   1.141  0.1383 -0.1072 -0.1805
 1331WAT     H1 6044   1.280   3.930   1.075  2.4494 -2.4067 -1.0006
 1331WAT     H2 6045   1.395   4.001   1.101 -1.0941  3.3387  0.9146
 1331WAT    EPW 6046   1.331   3.962   1.125  0.2976  0.0622 -0.1399
 1332WAT      O 6047   1.778   1.230   4.568  0.4752  0.2837  0.2898
 1332WAT     H1 6048   1.731   1.260   4.501 -1.6447 -0.3479  1.3710
 1332WAT     H2 6049   1.803   1.151   4.543  1.5454  0.8742 -0.5504
 1332WAT    EPW 6050   1.774   1.223   4.555  0.3202  0.2776  0.3254
 1333WAT      O 6051   3.063   1.180   1.124 -0.0536  0.3362  0.6669
 1333WAT     H1 6052   3.091   1.141   1.051 -1.2561 -0.7995  0.7874
 1333WAT     H2 6053   3.126   1.238   1.140  0.5543  0.1841 -0.9163
 1333WAT    EPW 6054   3.077   1.183   1.115 -0.1415  0.1459  0.4509
 1334WAT      O 6055   4.959   6.782   3.884 -0.4021 -0.1562  0.2666
 1334WAT     H1 6056   4.958   6.801   3.798  0.3660  0.1450  0.3162
 1334WAT     H2 6057   4.893   6.830   3.916 -0.2990  0.2190 -0.0672
 1334WAT    EPW 6058   4.949   6.792   3.876 -0.2734 -0.0563  0.2246
 1335WAT      O 6059   1.753   4.778   6.237 -0.2412 -0.1801 -0.2918
 1335WAT     H1 6060   1.731   4.814   6.160  0.0463  0.4616 -0.0865
 1335WAT     H2 6061   1.728   4.837   6.295  0.5005 -0.1770  0.0409
 1335WAT    EPW 6062   1.746   4.792   6.234 -0.0892 -0.0848 -0.2123
 1336WAT      O 6063   2.167   6.599   1.351 -0.0595  0.4380  0.5156
 1336WAT     H1 6064   2.202   6.668   1.391  1.7488 -0.1940  0.1100
 1336WAT     H2 6065   2.205   6.531   1.391 -1.7937 -0.3624  0.9004
 1336WAT    EPW 6066   2.178   6.599   1.363 -0.0486  0.2264  0.5125
 1337WAT      O 6067   1.563   0.272   0.840 -0.1971  0.3550 -0.1026
 1337WAT     H1 6068   1.588   0.193   0.815 -1.3077 -0.1058  0.2022
 1337WAT     H2 6069   1.485   0.282   0.803 -0.4103  0.9911  0.4939
 1337WAT    EPW 6070   1.555   0.262   0.831 -0.3927  0.3809  0.0306
 1338WAT      O 6071   2.699   5.570   0.117  0.1922 -0.4512 -0.5603
 1338WAT     H1 6072   2.745   5.644   0.107 -0.2906 -0.4600 -3.6544
 1338WAT     H2 6073   2.619   5.591   0.091 -1.0707 -1.1267  2.3393
 1338WAT    EPW 6074   2.694   5.584   0.112 -0.0656 -0.5523 -0.5890
 1339WAT      O 6075   1.345   4.500   4.621 -0.3334  0.2969 -0.4072
 1339WAT     H1 6076   1.369   4.479   4.702  0.7447 -0.0762 -0.8088
 1339WAT     H2 6077   1.320   4.584   4.628 -1.2375 -0.0226  0.4964
 1339WAT    EPW 6078   1.345   4.509   4.634 -0.3077  0.1946 -0.3331
 1340WAT      O 6079   5.940   4.606   7.219 -0.1947  0.5347  0.3113
 1340WAT     H1 6080   5.944   4.600   7.306 -0.4211  0.0252  0.2892
 1340WAT     H2 6081   5.944   4.692   7.205  0.2073  0.6052  0.8044
 1340WAT    EPW 6082   5.941   4.618   7.230 -0.1687  0.4698  0.3809
 1341WAT      O 6083   2.919   5.565   7.235 -0.4457 -0.1257 -0.3952
 1341WAT     H1 6084   2.968   5.543   7.166 -0.2746  0.0015 -0.3154
 1341WAT     H2 6085   2.864   5.625   7.203  1.1765  1.7354  0.0824
 1341WAT    EPW 6086   2.918   5.571   7.220 -0.1808  0.1680 -0.3128
 1342WAT      O 6087   1.379   1.309   6.167  0.1492 -0.2906 -0.3563
 1342WAT     H1 6088   1.428   1.237   6.173  1.1811  0.4039 -0.3631
 1342WAT     H2 6089   1.297   1.277   6.165  0.3019 -1.3033  3.4332
 1342WAT    EPW 6090   1.374   1.294   6.167  0.3242 -0.3376  0.2025
 1343WAT      O 6091   3.579   7.089   3.317 -0.5629  0.1829 -0.7064
 1343WAT     H1 6092   3.562   7.021   3.370  3.2494 -0.1803  0.4214
 1343WAT     H2 6093   3.557   7.059   3.238 -3.3449 -0.5021  0.2017
 1343WAT    EPW 6094   3.573   7.074   3.313 -0.4107  0.0280 -0.4057
 1344WAT      O 6095   1.054   1.535   6.291 -0.1870 -0.3694  0.6640
 1344WAT     H1 6096   1.097   1.604   6.321  0.7925 -0.1836 -1.0745
 1344WAT     H2 6097   0.970   1.556   6.302  0.0467  1.6310 -0.8628
 1344WAT    EPW 6098   1.048   1.548   6.297 -0.0078 -0.0464  0.1816
 1345WAT      O 6099   1.679   1.982   0.994  0.6371  0.0874  0.5926
 1345WAT     H1 6100   1.643   2.038   1.051 -0.6580  0.6818 -0.7430
 1345WAT     H2 6101   1.674   1.905   1.035 -1.3194  0.3064  0.8931
 1345WAT    EPW 6102   1.673   1.979   1.009  0.1568  0.2075  0.4397
 1346WAT      O 6103   2.647   4.065   3.331 -0.2455  0.1201 -0.2868
 1346WAT     H1 6104   2.584   4.087   3.387  0.5694  2.3783 -0.1710
 1346WAT     H2 6105   2.720   4.079   3.376  0.3975  0.2721 -1.3464
 1346WAT    EPW 6106   2.648   4.070   3.346 -0.0301  0.4762 -0.4262
 1347WAT      O 6107   4.555   2.419   0.597 -0.0999  0.1995 -0.1777
 1347WAT     H1 6108   4.575   2.463   0.524 -0.3935 -0.9949 -1.0027
 1347WAT     H2 6109   4.468   2.414   0.595 -0.0589 -0.6687 -0.2665
 1347WAT    EPW 6110   4.545   2.425   0.586 -0.1372 -0.1052 -0.3127
 1348WAT      O 6111   1.658   1.368   4.364  0.4810  0.4228  0.2108
 1348WAT     H1 6112   1.632   1.316   4.299  2.0144 -0.4055  0.2094
 1348WAT     H2 6113   1.584   1.400   4.396 -0.3497  0.5050 -1.6546
 1348WAT    EPW 6114   1.643   1.365   4.359  0.5848  0.3126 -0.0650
 1349WAT      O 6115   5.534   5.150   0.084  0.6525 -0.4359  0.5329
 1349WAT     H1 6116   5.488   5.141   0.157 -0.3150 -2.6051 -0.2346
 1349WAT     H2 6117   5.596   5.089   0.091 -1.1095 -2.7371 -1.4688
 1349WAT    EPW 6118   5.536   5.139   0.096  0.2493 -1.0962  0.1238
 1350WAT      O 6119   4.376   6.716   2.042  0.4724 -0.3912  0.0133
 1350WAT     H1 6120   4.363   6.771   1.975 -1.6196 -0.6095  0.2040
 1350WAT     H2 6121   4.367   6.767   2.112 -1.4860 -0.9173  0.1935
 1350WAT    EPW 6122   4.373   6.732   2.043 -0.1259 -0.5011  0.0681
 1351WAT      O 6123   5.757   1.982   6.142  1.1423 -0.3034  0.5624
 1351WAT     H1 6124   5.718   1.913   6.178  1.4965 -0.5956  0.3909
 1351WAT     H2 6125   5.737   2.047   6.196  0.4249 -0.4477  0.4815
 1351WAT    EPW 6126   5.749   1.981   6.155  1.0887 -0.3679  0.5251
 1352WAT      O 6127   5.783   6.596   2.096 -0.4422  0.3904 -0.2105
 1352WAT     H1 6128   5.807   6.642   2.166 -1.1939  0.9242 -0.2837
 1352WAT     H2 6129   5.798   6.514   2.118  3.6241  0.6695 -1.0551
 1352WAT    EPW 6130   5.789   6.591   2.109  0.0474  0.5105 -0.3461
 1353WAT      O 6131   0.082   6.223   3.290 -0.1081 -0.1448  0.1657
 1353WAT     H1 6132   0.115   6.142   3.292 -0.6534 -0.4188 -1.1560
 1353WAT     H2 6133  -0.004   6.211   3.287 -0.1931  0.4750 -0.1554
 1353WAT    EPW 6134   0.074   6.209   3.290 -0.2012 -0.0937 -0.0769
 1354WAT      O 6135   0.296   1.926   2.003 -0.0402  0.4825 -0.2438
 1354WAT     H1 6136   0.272   1.881   2.074 -0.8509  0.0332 -0.7964
 1354WAT     H2 6137   0.244   1.896   1.940  0.5730  0.9786 -1.0085
 1354WAT    EPW 6138   0.285   1.915   2.004 -0.0694  0.4894 -0.4384
 1355WAT      O 6139   2.046   1.398   2.003 -0.0607 -0.2475  0.0824
 1355WAT     H1 6140   2.080   1.463   1.957 -0.5356  0.2954  0.4894
 1355WAT     H2 6141   1.971   1.431   2.034  0.9516 -0.0625  2.5230
 1355WAT    EPW 6142   2.040   1.412   2.001  0.0187 -0.1400  0.5031
 1356WAT      O 6143   2.944   1.499   3.607 -0.1798 -0.1890 -0.8625
 1356WAT     H1 6144   2.859   1.515   3.614 -0.3011 -0.8452 -0.8209
 1356WAT     H2 6145   2.953   1.418   3.639  0.3582 -0.3926 -1.4975
 1356WAT    EPW 6146   2.933   1.489   3.613 -0.1183 -0.3160 -0.9502
 1357WAT      O 6147   6.027   3.593   3.237 -0.4682  0.1204 -0.0944
 1357WAT     H1 6148   6.057   3.592   3.319  1.0772 -0.7320 -0.6352
 1357WAT     H2 6149   6.050   3.672   3.208 -0.6828  0.2810  0.1675
 1357WAT    EPW 6150   6.034   3.605   3.245 -0.2716  0.0182 -0.1356
 1358WAT      O 6151   0.180   6.381   2.295 -0.1256 -0.4416  0.2450
 1358WAT     H1 6152   0.221   6.420   2.229  0.8177  1.1807  1.6963
 1358WAT     H2 6153   0.240   6.325   2.326 -0.2928 -0.6497  0.1938
 1358WAT    EPW 6154   0.195   6.378   2.290 -0.0109 -0.2327  0.4518
 1359WAT      O 6155   7.087   1.706   5.538  0.2665 -0.0632 -0.5608
 1359WAT     H1 6156   7.160   1.732   5.578 -0.9406  0.2258  1.6406
 1359WAT     H2 6157   7.040   1.671   5.603 -2.2925  1.4018 -1.4930
 1359WAT    EPW 6158   7.091   1.705   5.554 -0.2899  0.1959 -0.3733
 1360WAT      O 6159   5.143   4.899   2.919 -0.0184 -0.4112  0.2844
 1360WAT     H1 6160   5.138   4.943   2.843 -0.2735 -2.7338 -1.1363
 1360WAT     H2 6161   5.076   4.931   2.965 -0.6806  0.1460 -0.9895
 1360WAT    EPW 6162   5.132   4.910   2.914 -0.1539 -0.6720 -0.1136
 1361WAT      O 6163   2.283   4.223   0.520  0.4587 -0.1891  0.3835
 1361WAT     H1 6164   2.238   4.150   0.503  0.4100  0.1211 -0.9390
 1361WAT     H2 6165   2.220   4.282   0.533  0.4920 -0.2069  0.6186
 1361WAT    EPW 6166   2.267   4.221   0.519  0.4564 -0.1459  0.2229
 1362WAT      O 6167   4.116   0.736   6.354  0.0534  0.2169  0.5186
 1362WAT     H1 6168   4.081   0.799   6.305 -0.0904  0.8138  1.3611
 1362WAT     H2 6169   4.201   0.758   6.358  0.6083 -1.2037 -1.4865
 1362WAT    EPW 6170   4.124   0.749   6.347  0.1141  0.0952  0.3469
 1363WAT      O 6171   4.125   5.148   2.630 -0.4853  0.2499 -0.2773
 1363WAT     H1 6172   4.073   5.104   2.684  0.7297 -1.1363 -0.1759
 1363WAT     H2 6173   4.117   5.104   2.555  0.2411  0.2477 -0.3569
 1363WAT    EPW 6174   4.116   5.135   2.627 -0.1985  0.0448 -0.2741
 1364WAT      O 6175   4.225   0.944   5.331  0.5754 -0.4345 -0.1041
 1364WAT     H1 6176   4.148   0.968   5.363  0.3440  0.6107 -1.3475
 1364WAT     H2 6177   4.229   0.986   5.255  0.6390 -3.4740 -1.9647
 1364WAT    EPW 6178   4.214   0.954   5.324  0.5506 -0.7291 -0.5627
 1365WAT      O 6179   3.834   3.452   4.566  0.5896 -1.0094 -0.2847
 1365WAT     H1 6180   3.869   3.479   4.642  0.0717  0.1067 -0.4204
 1365WAT     H2 6181   3.800   3.374   4.586  0.3115 -0.6592  0.6840
 1365WAT    EPW 6182   3.834   3.444   4.580  0.4720 -0.7928 -0.1616
 1366WAT      O 6183   1.060   0.967   0.257 -0.5853 -0.3199  0.2667
 1366WAT     H1 6184   1.117   0.902   0.269 -1.2752 -0.8649  0.7348
 1366WAT     H2 6185   1.075   0.993   0.176  0.8765  0.0997  0.6407
 1366WAT    EPW 6186   1.070   0.961   0.247 -0.4713 -0.3384  0.3911
 1367WAT      O 6187   3.505   1.213   0.664  0.4134 -0.1021 -0.0522
 1367WAT     H1 6188   3.425   1.239   0.640 -0.0999 -0.9391  0.6937
 1367WAT     H2 6189   3.557   1.249   0.604 -0.4674  0.8915 -0.2516
 1367WAT    EPW 6190   3.501   1.223   0.652  0.2075 -0.0789  0.0285
 1368WAT      O 6191   2.480   3.973   1.460 -0.1374  0.0598 -0.5215
 1368WAT     H1 6192   2.480   4.016   1.535 -1.6591 -0.0344 -0.4484
 1368WAT     H2 6193   2.451   3.893   1.481 -0.6855  0.0653 -1.2114
 1368WAT    EPW 6194   2.476   3.967   1.474 -0.4431  0.0467 -0.6126
 1369WAT      O 6195   4.144   2.830   2.645  0.5289 -0.4705  0.1489
 1369WAT     H1 6196   4.089   2.773   2.683  1.0601 -1.3291 -0.3298
 1369WAT     H2 6197   4.191   2.860   2.711  0.3179 -0.6760  0.3979
 1369WAT    EPW 6198   4.143   2.826   2.660  0.5762 -0.6277  0.1150
 1370WAT      O 6199   5.371   3.207   3.591  0.3572  0.8824  0.4894
 1370WAT     H1 6200   5.439   3.218   3.645  0.4781 -0.1054  0.5632
 1370WAT     H2 6201   5.308   3.176   3.643  0.0488  1.1874  0.3018
 1370WAT    EPW 6202   5.372   3.204   3.607  0.3295  0.7815  0.4726
 1371WAT      O 6203   3.455   1.171   6.439 -0.2653  0.1598 -0.1526
 1371WAT     H1 6204   3.394   1.233   6.451 -1.1374 -0.8441  0.8090
 1371WAT     H2 6205   3.410   1.096   6.448  1.0982 -0.6116  0.5495
 1371WAT    EPW 6206   3.439   1.169   6.442 -0.1927 -0.1025  0.0931
 1372WAT      O 6207   0.547   5.795   6.651  0.2775  0.4483 -0.7108
 1372WAT     H1 6208   0.632   5.810   6.639  0.8356 -1.0528  0.9418
 1372WAT     H2 6209   0.543   5.710   6.667 -1.2933  0.8038  1.1851
 1372WAT    EPW 6210   0.559   5.785   6.652  0.1279  0.2791 -0.1866
 1373WAT      O 6211   0.081   0.525   6.047 -0.1429  0.0330  0.5811
 1373WAT     H1 6212  -0.006   0.525   6.052 -0.5127 -1.4303 -2.7445
 1373WAT     H2 6213   0.103   0.441   6.056  0.5138 -0.1137 -1.7427
 1373WAT    EPW 6214   0.072   0.512   6.049 -0.1005 -0.2048 -0.2534
 1374WAT      O 6215   4.800   5.454   2.863 -0.6303 -0.1700 -0.1591
 1374WAT     H1 6216   4.858   5.493   2.916 -0.7914 -1.0667  0.7187
 1374WAT     H2 6217   4.723   5.484   2.890 -0.6702 -0.0630 -0.3863
 1374WAT    EPW 6218   4.797   5.464   2.875 -0.6600 -0.2866 -0.0630
 1375WAT      O 6219   4.511   2.966   2.076  0.2520 -0.0920  0.6828
 1375WAT     H1 6220   4.532   2.882   2.082 -0.4220 -0.3550 -0.4136
 1375WAT     H2 6221   4.567   2.997   2.017  0.4831  0.2462  1.0657
 1375WAT    EPW 6222   4.523   2.958   2.068  0.1866 -0.0809  0.5774
 1376WAT      O 6223   5.582   1.726   7.030  0.6234  0.1838 -0.3912
 1376WAT     H1 6224   5.616   1.781   6.971  1.3785 -0.5834 -0.6810
 1376WAT     H2 6225   5.650   1.681   7.058 -0.1489 -1.4743 -1.0514
 1376WAT    EPW 6226   5.597   1.728   7.026  0.6209 -0.1745 -0.5315
 1377WAT      O 6227   5.816   5.022   5.577 -0.0479 -0.1939 -0.1080
 1377WAT     H1 6228   5.815   4.961   5.514  1.2889 -0.2182 -0.1389
 1377WAT     H2 6229   5.899   5.049   5.578  0.2498 -0.9107  2.3003
 1377WAT    EPW 6230   5.828   5.017   5.568  0.1936 -0.3034  0.2432
 1378WAT      O 6231   0.252   0.368   4.171  0.2596  0.0275  0.4569
 1378WAT     H1 6232   0.272   0.295   4.215 -0.3577  0.4228  1.4209
 1378WAT     H2 6233   0.207   0.339   4.102 -0.4405 -0.4795  1.1114
 1378WAT    EPW 6234   0.248   0.353   4.167  0.0650  0.0110  0.6960
 1379WAT      O 6235   6.577   1.437   5.673 -0.0296 -0.0391  0.3933
 1379WAT     H1 6236   6.587   1.453   5.588 -1.5262  1.9187  0.5176
 1379WAT     H2 6237   6.649   1.393   5.694  1.2901  1.0593 -1.4951
 1379WAT    EPW 6238   6.589   1.433   5.663 -0.0557  0.4124  0.1327
 1380WAT      O 6239   3.062   0.616   5.958  0.3916 -0.3829 -0.7314
 1380WAT     H1 6240   3.116   0.675   5.923 -0.4790  1.3731  0.7429
 1380WAT     H2 6241   3.025   0.658   6.024 -2.7933 -1.4942 -1.6243
 1380WAT    EPW 6242   3.064   0.631   5.962 -0.2074 -0.2876 -0.6455
 1381WAT      O 6243   1.978   4.102   6.373 -0.5220  0.2665  0.0647
 1381WAT     H1 6244   1.997   4.186   6.368 -0.5636  0.5281  2.8381
 1381WAT     H2 6245   1.913   4.099   6.431 -1.6585 -1.5588 -1.1959
 1381WAT    EPW 6246   1.971   4.114   6.381 -0.6960  0.0355  0.2882
 1382WAT      O 6247   5.108   6.963   4.166  0.8790  0.4248  0.4445
 1382WAT     H1 6248   5.114   6.888   4.211  0.6450 -0.6100 -1.1545
 1382WAT     H2 6249   5.032   6.997   4.193  0.3836 -0.5398  0.3337
 1382WAT    EPW 6250   5.097   6.957   4.177  0.7712  0.1295  0.1919
 1383WAT      O 6251   5.094   2.726   1.251 -0.1352 -0.0735 -0.6530
 1383WAT     H1 6252   5.045   2.798   1.249  0.8404  0.6032 -0.6604
 1383WAT     H2 6253   5.161   2.746   1.199  1.2678 -0.1588  1.0527
 1383WAT    EPW 6254   5.096   2.739   1.243  0.2162  0.0139 -0.4021
 1384WAT      O 6255   7.164   1.618   5.282  0.3404  0.7900  0.1515
 1384WAT     H1 6256   7.234   1.568   5.295 -0.9323 -1.2486 -0.4091
 1384WAT     H2 6257   7.144   1.646   5.363  1.6042  1.1849  0.3489
 1384WAT    EPW 6258   7.172   1.615   5.296  0.3390  0.5472  0.0979
 1385WAT      O 6259   1.891   4.580   6.816 -0.4621  0.3043 -0.4548
 1385WAT     H1 6260   1.960   4.527   6.827 -0.1646 -0.0873 -3.3765
 1385WAT     H2 6261   1.837   4.557   6.880  0.8148 -1.6382  0.0159
 1385WAT    EPW 6262   1.893   4.568   6.827 -0.2295 -0.0405 -0.8169
 1386WAT      O 6263   1.142   3.099   7.222 -0.4108 -0.0300 -0.2740
 1386WAT     H1 6264   1.084   3.034   7.219  0.8305 -1.2085  0.2907
 1386WAT     H2 6265   1.124   3.140   7.297 -1.1953  0.3108 -0.6338
 1386WAT    EPW 6266   1.131   3.096   7.233 -0.3433 -0.1537 -0.2437
 1387WAT      O 6267   2.160   2.767   3.254  0.2348  0.2940 -0.3863
 1387WAT     H1 6268   2.093   2.820   3.271 -3.4889 -3.5289 -1.5054
 1387WAT     H2 6269   2.179   2.785   3.170 -0.7892  0.0855 -0.6735
 1387WAT    EPW 6270   2.153   2.778   3.244 -0.4665 -0.3015 -0.5940
 1388WAT      O 6271   5.782   5.438   3.997  0.0992  0.3574  0.2563
 1388WAT     H1 6272   5.834   5.465   3.932  0.0542  1.5891  0.7083
 1388WAT     H2 6273   5.703   5.436   3.960  0.4772 -1.8978 -0.5423
 1388WAT    EPW 6274   5.778   5.442   3.982  0.1484  0.2062  0.2051
 1389WAT      O 6275   5.656   2.285   7.322  0.2644  0.6188 -0.6003
 1389WAT     H1 6276   5.572   2.307   7.334  0.1179 -0.2222 -0.0009
 1389WAT     H2 6277   5.699   2.359   7.341 -0.2264  0.5210  1.1149
 1389WAT    EPW 6278   5.650   2.299   7.327  0.1703  0.4801 -0.2584
 1390WAT      O 6279   3.255   3.611   5.498  0.2039  0.4288 -0.0483
 1390WAT     H1 6280   3.180   3.654   5.513 -0.3347 -0.2818 -0.6480
 1390WAT     H2 6281   3.273   3.630   5.415 -0.7504 -1.5225 -0.7579
 1390WAT    EPW 6282   3.247   3.620   5.488 -0.0166  0.0356 -0.2417
 1391WAT      O 6283   6.327   2.404   3.276 -0.0650 -0.1338 -1.4607
 1391WAT     H1 6284   6.260   2.414   3.331 -0.7554  1.7045 -2.5403
 1391WAT     H2 6285   6.396   2.391   3.328 -0.8936  0.2601 -0.2345
 1391WAT    EPW 6286   6.327   2.404   3.292 -0.2894  0.1959 -1.4390
 1392WAT      O 6287   1.182   2.973   2.963  0.7513  0.1330  0.3115
 1392WAT     H1 6288   1.246   2.914   2.974  1.9747  1.3807  0.1388
 1392WAT     H2 6289   1.195   3.029   3.029 -0.0674  0.5010  0.1715
 1392WAT    EPW 6290   1.194   2.973   2.975  0.8111  0.3717  0.2653
 1393WAT      O 6291   7.211   6.543   1.194 -0.0049  0.4568  1.1455
 1393WAT     H1 6292   7.193   6.461   1.218 -0.2921 -0.0305 -0.5740
 1393WAT     H2 6293   7.297   6.548   1.202 -0.0335  0.1240  1.6904
 1393WAT    EPW 6294   7.221   6.532   1.198 -0.0515  0.3357  0.9720
 1394WAT      O 6295   5.503   3.562   4.703 -0.3248  0.2174 -0.1827
 1394WAT     H1 6296   5.587   3.543   4.694 -0.1734  0.8547 -0.1865
 1394WAT     H2 6297   5.462   3.503   4.654  0.0766 -0.5029  0.3385
 1394WAT    EPW 6298   5.509   3.550   4.695 -0.2431  0.2051 -0.1063
 1395WAT      O 6299   0.804   5.013   0.334 -0.0028  1.0288  0.4657
 1395WAT     H1 6300   0.808   5.082   0.387 -1.4562  1.2773  0.2949
 1395WAT     H2 6301   0.752   5.039   0.269  0.4163  0.1778 -0.2450
 1395WAT    EPW 6302   0.797   5.027   0.332 -0.1556  0.9398  0.3355
 1396WAT      O 6303   7.018   5.951   0.150 -0.0856  0.2389  0.0782
 1396WAT     H1 6304   7.048   5.967   0.070 -1.7521 -0.6977 -0.7870
 1396WAT     H2 6305   6.944   5.996   0.154 -0.1050  0.1543  1.0436
 1396WAT    EPW 6306   7.011   5.960   0.139 -0.3346  0.0881  0.0930
 1397WAT      O 6307   3.825   4.271   6.595 -0.2754 -0.2942  0.6401
 1397WAT     H1 6308   3.829   4.324   6.663  0.4383  1.3965 -0.6492
 1397WAT     H2 6309   3.740   4.272   6.574 -0.2331  0.5936  0.4630
 1397WAT    EPW 6310   3.813   4.279   6.602 -0.1637  0.0867  0.4235
 1398WAT      O 6311   1.553   1.364   2.052  0.3817  0.4079 -0.4785
 1398WAT     H1 6312   1.538   1.285   2.086 -1.0445  0.8596  0.0539
 1398WAT     H2 6313   1.631   1.386   2.083  1.2383 -1.1626 -1.3991
 1398WAT    EPW 6314   1.562   1.356   2.062  0.2976  0.2426 -0.5359
 1399WAT      O 6315   2.896   5.813   2.543  0.1935  0.5568 -0.0033
 1399WAT     H1 6316   2.956   5.836   2.485 -0.3983  1.0716 -0.4282
 1399WAT     H2 6317   2.820   5.824   2.500 -0.2249  0.2958  0.6426
 1399WAT    EPW 6318   2.893   5.818   2.528  0.0443  0.5943  0.0294
 1400WAT      O 6319   4.555   3.065   4.860  0.1108 -0.0326  0.1297
 1400WAT     H1 6320   4.599   3.132   4.826  0.6026  0.1667  1.1313
 1400WAT     H2 6321   4.605   3.038   4.926 -0.1237 -1.3317 -0.1901
 1400WAT    EPW 6322   4.569   3.071   4.865  0.1488 -0.1950  0.2304
 1401WAT      O 6323   4.126   6.946   4.939 -0.0318 -0.2597  0.2098
 1401WAT     H1 6324   4.073   6.877   4.929  0.4603 -0.5106 -0.9602
 1401WAT     H2 6325   4.178   6.941   4.869 -0.4841  1.7574 -0.3229
 1401WAT    EPW 6326   4.126   6.935   4.927 -0.0260  0.0012 -0.0417
 1402WAT      O 6327   3.926   3.912   3.028  0.4279 -0.5261  0.4129
 1402WAT     H1 6328   3.869   3.846   3.028  0.1520 -0.2959 -0.0482
 1402WAT     H2 6329   4.001   3.876   3.052 -0.0443 -0.7285  1.6682
 1402WAT    EPW 6330   3.928   3.897   3.032  0.3174 -0.5220  0.5302
 1403WAT      O 6331   3.295   0.448   5.433 -0.1800  0.6633 -0.4514
 1403WAT     H1 6332   3.313   0.416   5.512 -1.5003 -1.3845 -0.9126
 1403WAT     H2 6333   3.284   0.534   5.448 -0.0045  0.3807  1.4976
 1403WAT    EPW 6334   3.296   0.456   5.447 -0.3491  0.3190 -0.2316
 1404WAT      O 6335   2.738   4.288   7.292 -0.7659  0.3221  0.0208
 1404WAT     H1 6336   2.655   4.310   7.276 -0.6675  0.2714 -0.5715
 1404WAT     H2 6337   2.731   4.230   7.357 -1.4641 -1.9138 -1.8911
 1404WAT    EPW 6338   2.724   4.283   7.299 -0.8545 -0.0157 -0.3492
 1405WAT      O 6339   4.171   4.694   2.402 -0.8678  0.2779 -0.0941
 1405WAT     H1 6340   4.099   4.654   2.374 -1.6444  1.2843  0.3912
 1405WAT     H2 6341   4.178   4.670   2.485 -1.0362  0.7262  0.0507
 1405WAT    EPW 6342   4.161   4.685   2.410 -1.0074  0.4928 -0.0010
 1406WAT      O 6343   2.221   2.194   1.593 -0.0515  0.0359 -0.0097
 1406WAT     H1 6344   2.254   2.142   1.654  0.1223  0.9985  0.7351
 1406WAT     H2 6345   2.203   2.140   1.527  0.8028 -0.8514  0.4702
 1406WAT    EPW 6346   2.223   2.178   1.592  0.1003  0.0470  0.1712
 1407WAT      O 6347   5.750   2.900   4.057 -0.0061  0.2643 -0.2937
 1407WAT     H1 6348   5.722   2.838   4.003 -0.6872  0.1298  0.2046
 1407WAT     H2 6349   5.700   2.969   4.038  0.3703  0.4987 -0.4589
 1407WAT    EPW 6350   5.739   2.901   4.047 -0.0511  0.2791 -0.2445
 1408WAT      O 6351   5.675   0.056   5.469  0.6638 -0.0375  0.5646
 1408WAT     H1 6352   5.594   0.027   5.455 -0.7068  3.2043  0.7973
 1408WAT     H2 6353   5.694   0.028   5.549 -0.4509 -0.4188  0.7164
 1408WAT    EPW 6354   5.666   0.048   5.478  0.2967  0.3851  0.6214
 1409WAT      O 6355   6.594   1.000   6.006  0.2952  0.1269 -0.0029
 1409WAT     H1 6356   6.603   0.923   6.045  2.4229  0.1172 -0.3867
 1409WAT     H2 6357   6.535   1.041   6.055  1.1611 -0.7250  1.8633
 1409WAT    EPW 6358   6.587   0.995   6.019  0.7374 -0.0004  0.2161
 1410WAT      O 6359   3.779   3.471   5.987  0.2488 -0.2047 -0.6818
 1410WAT     H1 6360   3.700   3.441   6.010  0.5454 -0.4572  0.0400
 1410WAT     H2 6361   3.815   3.404   5.945  0.1901 -0.1862 -0.7626
 1410WAT    EPW 6362   3.773   3.457   5.984  0.2839 -0.2393 -0.5871
 1411WAT      O 6363   4.905   2.946   0.409 -0.0887 -0.0061  0.1956
 1411WAT     H1 6364   4.895   2.954   0.323  0.4854 -0.8191  0.0421
 1411WAT     H2 6365   4.984   2.910   0.418 -0.6571 -1.1412  0.9979
 1411WAT    EPW 6366   4.915   2.942   0.398 -0.0879 -0.2938  0.2914
 1412WAT      O 6367   5.441   2.908   4.588  0.7402 -0.2126 -0.0923
 1412WAT     H1 6368   5.507   2.865   4.626  0.5441 -1.7323 -1.3737
 1412WAT     H2 6369   5.467   2.991   4.591  1.3988 -0.4245  1.9728
 1412WAT    EPW 6370   5.455   2.913   4.594  0.8085 -0.4683  0.0235
 1413WAT      O 6371   1.881   6.700   7.011  0.1336  0.1451  0.5833
 1413WAT     H1 6372   1.871   6.649   7.081  0.8029  1.0331  1.3569
 1413WAT     H2 6373   1.823   6.669   6.954  1.0149 -1.9481  0.7357
 1413WAT    EPW 6374   1.871   6.688   7.013  0.3627 -0.0329  0.7201
 1414WAT      O 6375   3.068   1.346   5.489 -0.3893  0.4154 -0.3543
 1414WAT     H1 6376   3.066   1.364   5.575  2.5230  0.1820 -0.1196
 1414WAT     H2 6377   3.124   1.405   5.458 -1.4526  0.5294 -2.1429
 1414WAT    EPW 6378   3.076   1.357   5.497 -0.1161  0.3978 -0.5838
 1415WAT      O 6379   1.089   3.345   4.653  0.1838  0.0470 -0.2537
 1415WAT     H1 6380   1.146   3.394   4.697 -0.4573  0.0071  0.6441
 1415WAT     H2 6381   1.029   3.323   4.713 -1.5445  1.2238 -1.4373
 1415WAT    EPW 6382   1.088   3.349   4.668 -0.1662  0.2149 -0.2959
 1416WAT      O 6383   5.469   0.266   5.339 -0.5715  0.3739  0.0397
 1416WAT     H1 6384   5.439   0.186   5.320 -2.2705  1.0651 -0.4025
 1416WAT     H2 6385   5.551   0.265   5.309 -0.2093 -1.5115  0.9562
 1416WAT    EPW 6386   5.476   0.254   5.332 -0.7690  0.1975  0.1098
 1417WAT      O 6387   4.673   5.096   2.073 -0.0983 -0.2723 -0.1981
 1417WAT     H1 6388   4.643   5.057   2.145  1.1341 -1.0651 -0.0904
 1417WAT     H2 6389   4.751   5.126   2.097 -0.3567  0.8905 -0.7523
 1417WAT    EPW 6390   4.680   5.095   2.087  0.0455 -0.2176 -0.2641
 1418WAT      O 6391   4.794   0.365   3.922 -0.0319 -0.2253 -0.0154
 1418WAT     H1 6392   4.785   0.335   3.840 -0.0277  0.3971 -0.2494
 1418WAT     H2 6393   4.720   0.341   3.961 -0.0071 -0.5819 -0.1814
 1418WAT    EPW 6394   4.782   0.357   3.915 -0.0276 -0.1860 -0.0745
 1419WAT      O 6395   0.859   5.414   6.632  0.4605  0.5166 -0.4797
 1419WAT     H1 6396   0.871   5.408   6.719 -0.6860  2.9337 -0.0666
 1419WAT     H2 6397   0.917   5.476   6.609 -0.4016  1.0886 -1.1335
 1419WAT    EPW 6398   0.870   5.422   6.642  0.1638  0.9582 -0.5152
 1420WAT      O 6399   4.195   4.684   2.749  0.6061  1.0539  0.1978
 1420WAT     H1 6400   4.125   4.643   2.717  1.0610 -0.7484  1.3848
 1420WAT     H2 6401   4.261   4.633   2.727  0.9836 -0.2416  3.6296
 1420WAT    EPW 6402   4.194   4.670   2.741  0.7290  0.5963  0.8801
 1421WAT      O 6403   3.385   2.853   1.480 -0.1847  0.6370 -0.8196
 1421WAT     H1 6404   3.358   2.935   1.466 -3.9735  0.2092  2.3762
 1421WAT     H2 6405   3.388   2.847   1.567  0.8722 -2.4181 -0.9557
 1421WAT    EPW 6406   3.381   2.865   1.490 -0.5882  0.1225 -0.3676
 1422WAT      O 6407   1.470   3.692   2.112  0.1066  0.0865  0.2002
 1422WAT     H1 6408   1.385   3.699   2.095  0.1085 -0.7790 -0.2350
 1422WAT     H2 6409   1.474   3.630   2.174  0.5212 -1.2568 -1.1090
 1422WAT    EPW 6410   1.458   3.684   2.119  0.1681 -0.2398 -0.0575
 1423WAT      O 6411   0.130   0.766   6.803  0.1528  0.0883 -0.1148
 1423WAT     H1 6412   0.063   0.800   6.759 -0.5579 -0.5628  0.4546
 1423WAT     H2 6413   0.178   0.727   6.741 -1.0468 -1.1791 -0.2899
 1423WAT    EPW 6414   0.127   0.765   6.788 -0.1294 -0.1951 -0.0566
 1424WAT      O 6415   6.310   5.382   6.055  0.1364  0.1040 -0.8024
 1424WAT     H1 6416   6.269   5.342   6.121  0.9401 -1.9559 -1.4702
 1424WAT     H2 6417   6.374   5.425   6.094 -0.9745  1.1257 -0.0218
 1424WAT    EPW 6418   6.313   5.382   6.070  0.0910 -0.0494 -0.7858
 1425WAT      O 6419   3.666   6.229   1.386  0.1101  0.5094  0.4695
 1425WAT     H1 6420   3.671   6.148   1.419 -1.1386  0.7295  1.2822
 1425WAT     H2 6421   3.749   6.256   1.384  0.5829 -0.9099 -0.1533
 1425WAT    EPW 6422   3.679   6.221   1.391 -0.0045  0.3322  0.4975
 1426WAT      O 6423   0.052   5.386   6.698 -0.5477 -0.3371  0.1275
 1426WAT     H1 6424  -0.007   5.321   6.699 -0.0058 -0.8420 -0.0996
 1426WAT     H2 6425   0.078   5.389   6.614  0.3277 -0.6627  0.3731
 1426WAT    EPW 6426   0.047   5.377   6.686 -0.3383 -0.4598  0.1302
 1427WAT      O 6427   1.515   3.828   2.550 -0.1657  0.4858  0.1968
 1427WAT     H1 6428   1.600   3.812   2.539 -0.6590 -2.1344 -0.2510
 1427WAT     H2 6429   1.486   3.841   2.469 -0.2523  1.3120  0.3443
 1427WAT    EPW 6430   1.523   3.828   2.537 -0.2514  0.2208  0.1525
 1428WAT      O 6431   2.066   4.707   5.972 -0.2303 -0.7799 -0.2731
 1428WAT     H1 6432   2.011   4.643   5.995 -0.4383 -0.6829 -0.4853
 1428WAT     H2 6433   2.035   4.732   5.894  0.1329 -0.7392 -0.4062
 1428WAT    EPW 6434   2.053   4.701   5.964 -0.2073 -0.7595 -0.3241
 1429WAT      O 6435   3.674   6.348   5.032  0.1301 -0.6353  0.2499
 1429WAT     H1 6436   3.648   6.335   4.949 -0.4350 -3.5964  0.7760
 1429WAT     H2 6437   3.751   6.306   5.036  0.2289 -0.3863  1.1979
 1429WAT    EPW 6438   3.682   6.340   5.020  0.0612 -1.0360  0.4676
 1430WAT      O 6439   4.862   7.167   3.565  0.0965  0.1746  0.0841
 1430WAT     H1 6440   4.948   7.159   3.555  0.3605  2.2707  0.2963
 1430WAT     H2 6441   4.841   7.234   3.514 -1.3875 -0.1024  0.2699
 1430WAT    EPW 6442   4.871   7.176   3.556 -0.0837  0.4433  0.1429
 1431WAT      O 6443   5.554   3.768   3.479 -0.1852  0.3396 -0.1174
 1431WAT     H1 6444   5.570   3.854   3.475 -0.3665  0.4251  0.8531
 1431WAT     H2 6445   5.575   3.746   3.560 -0.2093 -0.5322 -0.3281
 1431WAT    EPW 6446   5.560   3.777   3.490 -0.2156  0.2235 -0.0052
 1432WAT      O 6447   2.530   1.806   0.069  0.4774 -0.0526 -0.8621
 1432WAT     H1 6448   2.495   1.739   0.112 -0.3803  0.6672 -0.4225
 1432WAT     H2 6449   2.511   1.789  -0.015  0.9329 -0.7395 -0.8299
 1432WAT    EPW 6450   2.522   1.794   0.063  0.4180 -0.0477 -0.7924
 1433WAT      O 6451   1.870   5.163   6.075 -0.0735  0.1205 -0.1687
 1433WAT     H1 6452   1.858   5.145   6.160  3.4743  4.7743  1.8068
 1433WAT     H2 6453   1.814   5.229   6.060  0.9373  0.9173 -0.5930
 1433WAT    EPW 6454   1.860   5.170   6.086  0.5999  0.9257  0.0605
 1434WAT      O 6455   1.967   2.035   4.913 -0.0400  0.0268 -0.1458
 1434WAT     H1 6456   1.924   2.056   4.986 -0.1893 -2.0112  0.4259
 1434WAT     H2 6457   1.914   2.063   4.849 -0.3715  0.9579  0.5184
 1434WAT    EPW 6458   1.953   2.042   4.914 -0.1111 -0.1367  0.0367
 1435WAT      O 6459   2.855   2.864   1.596 -0.1085 -0.1032 -0.3363
 1435WAT     H1 6460   2.812   2.899   1.529  0.7073  0.8087 -0.4024
 1435WAT     H2 6461   2.908   2.928   1.622  1.9506 -1.4738 -0.9023
 1435WAT    EPW 6462   2.856   2.879   1.590  0.3162 -0.1709 -0.4297
 1436WAT      O 6463   2.363   1.434   6.112 -0.0148 -0.2298 -0.4751
 1436WAT     H1 6464   2.383   1.374   6.052 -0.3048 -1.1584  0.3337
 1436WAT     H2 6465   2.345   1.505   6.064 -1.9592 -1.4110 -1.6514
 1436WAT    EPW 6466   2.363   1.436   6.096 -0.3449 -0.5415 -0.5294
 1437WAT      O 6467   4.064   6.619   5.747  0.1939  0.0128 -0.2873
 1437WAT     H1 6468   4.087   6.537   5.767 -0.4018 -0.2277 -0.5471
 1437WAT     H2 6469   4.131   6.648   5.700  0.4227 -0.3152 -0.1726
 1437WAT    EPW 6470   4.077   6.611   5.743  0.1397 -0.0712 -0.3087
 1438WAT      O 6471   5.785   4.381   0.520 -0.3324 -0.0784 -0.0027
 1438WAT     H1 6472   5.872   4.372   0.529 -0.1152  2.4161  0.8912
 1438WAT     H2 6473   5.777   4.430   0.448 -0.9886  0.1918  0.2518
 1438WAT    EPW 6474   5.797   4.387   0.510 -0.3972  0.3300  0.1669
 1439WAT      O 6475   6.369   2.058   1.535 -0.1021  0.0284 -0.0565
 1439WAT     H1 6476   6.346   2.112   1.599 -2.2992 -2.0596  1.0739
 1439WAT     H2 6477   6.455   2.050   1.544  0.0375  1.9162  0.8084
 1439WAT    EPW 6478   6.378   2.065   1.546 -0.4060 -0.0012  0.2382
 1440WAT      O 6479   0.381   5.054   2.609  0.0544 -0.0279  0.2011
 1440WAT     H1 6480   0.303   5.041   2.573 -0.4270  0.1738  1.1366
 1440WAT     H2 6481   0.431   5.079   2.542 -0.3243 -1.4878 -0.6629
 1440WAT    EPW 6482   0.377   5.056   2.594 -0.0727 -0.2137  0.2117
 1441WAT      O 6483   3.187   5.533   1.528  0.3340  0.0179 -0.3514
 1441WAT     H1 6484   3.181   5.451   1.499  1.2767 -0.3078  0.3368
 1441WAT     H2 6485   3.140   5.578   1.469 -0.7157 -1.0727 -0.3982
 1441WAT    EPW 6486   3.179   5.528   1.515  0.3182 -0.1913 -0.2567
 1442WAT      O 6487   3.252   5.308   2.667 -0.0049  0.3467  0.1514
 1442WAT     H1 6488   3.293   5.231   2.676 -1.7909 -0.5168  1.7616
 1442WAT     H2 6489   3.194   5.293   2.603  1.3442  1.1986 -1.3187
 1442WAT    EPW 6490   3.249   5.294   2.659 -0.0694  0.3450  0.1721
 1443WAT      O 6491   5.517   4.660   5.157  0.1010  0.3946  0.7581
 1443WAT     H1 6492   5.456   4.713   5.124 -0.0528  1.1554  2.1932
 1443WAT     H2 6493   5.522   4.596   5.098  2.5545  3.4050 -2.7397
 1443WAT    EPW 6494   5.509   4.658   5.143  0.4407  0.9517  0.4534
 1444WAT      O 6495   6.910   4.974   6.833 -0.4378  0.1561 -0.1539
 1444WAT     H1 6496   6.912   4.907   6.777 -0.0959  0.4467 -0.5003
 1444WAT     H2 6497   6.849   4.951   6.891 -0.4897 -0.3463 -0.4003
 1444WAT    EPW 6498   6.901   4.961   6.833 -0.3949  0.1248 -0.2414
 1445WAT      O 6499   1.143   0.335   1.608  0.8558  0.5909  0.1799
 1445WAT     H1 6500   1.058   0.315   1.603  0.9649  0.2152 -0.2030
 1445WAT     H2 6501   1.143   0.415   1.642  0.2978  1.1272 -1.0556
 1445WAT    EPW 6502   1.131   0.344   1.612  0.7895  0.6146 -0.0592
 1446WAT      O 6503   5.598   6.932   0.224  0.3614  0.1970  0.4561
 1446WAT     H1 6504   5.544   6.878   0.267  1.2145 -2.0634 -1.1166
 1446WAT     H2 6505   5.677   6.913   0.257  0.5207  1.8490  1.1430
 1446WAT    EPW 6506   5.602   6.921   0.235  0.5109  0.1072  0.3253
 1447WAT      O 6507   3.902   5.634   2.903  0.3093  0.9128  0.8065
 1447WAT     H1 6508   3.983   5.608   2.920 -0.4225 -0.5454  2.3615
 1447WAT     H2 6509   3.910   5.680   2.829  2.1743 -1.5149 -0.6550
 1447WAT    EPW 6510   3.915   5.637   2.894  0.4767  0.3388  0.8203
 1448WAT      O 6511   4.634   3.887   5.349 -0.1058 -0.0172  0.7722
 1448WAT     H1 6512   4.623   3.916   5.268  0.8565 -2.7212 -0.4247
 1448WAT     H2 6513   4.714   3.852   5.348 -0.9650 -2.2337  2.1281
 1448WAT    EPW 6514   4.644   3.886   5.337 -0.0906 -0.7441  0.7957
 1449WAT      O 6515   4.120   4.676   3.552 -0.3682  0.0393  0.3807
 1449WAT     H1 6516   4.192   4.635   3.527 -0.1528  0.3835  0.4299
 1449WAT     H2 6517   4.107   4.649   3.634 -0.0558  0.3079  0.5181
 1449WAT    EPW 6518   4.129   4.666   3.560 -0.2903  0.1298  0.4082
 1450WAT      O 6519   2.828   4.121   4.800  0.2152  0.0156 -0.0843
 1450WAT     H1 6520   2.908   4.139   4.771 -0.1135  4.2674  0.8835
 1450WAT     H2 6521   2.837   4.124   4.887 -0.7482 -1.1056  0.0798
 1450WAT    EPW 6522   2.841   4.124   4.809  0.0243  0.4780  0.0829
 1451WAT      O 6523   6.083   5.694   2.822  0.1557 -0.7606 -0.0608
 1451WAT     H1 6524   6.166   5.691   2.796 -0.1539 -1.3845 -1.0601
 1451WAT     H2 6525   6.039   5.711   2.749 -0.5013  1.1052  0.7181
 1451WAT    EPW 6526   6.089   5.696   2.807  0.0129 -0.5771 -0.0934
 1452WAT      O 6527   2.513   4.470   3.622  0.2156 -0.2532  0.1513
 1452WAT     H1 6528   2.599   4.485   3.622  0.3211 -0.8204  0.5936
 1452WAT     H2 6529   2.478   4.550   3.629  0.7091 -0.0397  0.1974
 1452WAT    EPW 6530   2.521   4.484   3.623  0.3041 -0.3054  0.2234
 1453WAT      O 6531   2.532   1.848   4.298  0.2355 -0.3208 -1.0819
 1453WAT     H1 6532   2.528   1.803   4.373  0.5369  0.1188 -0.7962
 1453WAT     H2 6533   2.448   1.855   4.274  0.0830  0.1003 -0.4413
 1453WAT    EPW 6534   2.519   1.842   4.305  0.2575 -0.1936 -0.9450
 1454WAT      O 6535   4.625   5.253   5.549 -0.0824  0.1513  0.8092
 1454WAT     H1 6536   4.616   5.245   5.636 -0.5663 -0.5225  0.7063
 1454WAT     H2 6537   4.559   5.305   5.526 -0.4873 -0.3876  0.7383
 1454WAT    EPW 6538   4.614   5.259   5.559 -0.2137 -0.0278  0.7835
 1455WAT      O 6539   5.204   0.269   1.237 -0.0470 -0.3850  0.9055
 1455WAT     H1 6540   5.173   0.286   1.317 -2.8759 -0.2964 -0.0936
 1455WAT     H2 6541   5.289   0.287   1.244 -0.2553  0.0086  3.7679
 1455WAT    EPW 6542   5.212   0.274   1.250 -0.4956 -0.3138  1.1807
 1456WAT      O 6543   6.576   4.013   4.907 -0.3557  0.3321 -0.4906
 1456WAT     H1 6544   6.626   4.066   4.860  0.0658  0.2467 -0.1475
 1456WAT     H2 6545   6.505   4.003   4.858  0.2378 -0.0681 -1.2963
 1456WAT    EPW 6546   6.573   4.019   4.893 -0.2057  0.2604 -0.5589
 1457WAT      O 6547   6.981   5.302   4.998 -0.0306  0.1455  0.2859
 1457WAT     H1 6548   7.004   5.365   5.052  0.4257  0.8905 -0.7476
 1457WAT     H2 6549   7.034   5.236   5.019 -1.6774 -0.6029  2.5720
 1457WAT    EPW 6550   6.992   5.301   5.009 -0.2065  0.1450  0.4709
 1458WAT      O 6551   6.531   4.231   3.481  0.3446 -0.2631  0.0476
 1458WAT     H1 6552   6.582   4.301   3.474 -1.4372  1.3894  2.0922
 1458WAT     H2 6553   6.568   4.184   3.545  1.7918 -1.5246 -1.6274
 1458WAT    EPW 6554   6.544   4.234   3.489  0.2951 -0.2053  0.1022
 1459WAT      O 6555   1.233   6.344   3.559  0.2201 -0.3606  0.4191
 1459WAT     H1 6556   1.301   6.308   3.516 -0.3519 -1.0434  0.0602
 1459WAT     H2 6557   1.164   6.306   3.522 -0.3956  0.8930  0.2705
 1459WAT    EPW 6558   1.233   6.333   3.547  0.0446 -0.2763  0.3441
 1460WAT      O 6559   1.370   3.749   5.733  0.3942 -0.2501  0.1421
 1460WAT     H1 6560   1.314   3.727   5.670  1.1887  0.5582 -0.8961
 1460WAT     H2 6561   1.428   3.800   5.691  1.8579 -0.9957  1.1655
 1460WAT    EPW 6562   1.371   3.754   5.717  0.7278 -0.2408  0.1399
 1461WAT      O 6563   4.177   0.509   1.409  0.6781 -0.1753 -0.0959
 1461WAT     H1 6564   4.222   0.537   1.478 -0.8703  0.6362  0.6429
 1461WAT     H2 6565   4.096   0.537   1.425 -0.3540 -2.5120 -0.8129
 1461WAT    EPW 6566   4.172   0.517   1.422  0.2969 -0.4006 -0.0927
 1462WAT      O 6567   2.288   3.551   6.298 -0.0150 -0.4620 -0.4956
 1462WAT     H1 6568   2.319   3.538   6.379 -1.4850  0.9876  0.3751
 1462WAT     H2 6569   2.349   3.599   6.260  0.6203 -1.0219 -0.2083
 1462WAT    EPW 6570   2.301   3.556   6.305 -0.1383 -0.3306 -0.3245
 1463WAT      O 6571   0.612   1.665   2.660 -0.2222 -1.1245 -0.3680
 1463WAT     H1 6572   0.699   1.670   2.657 -0.1213 -1.7398  1.0329
 1463WAT     H2 6573   0.588   1.676   2.577  1.1304  0.0943 -0.6374
 1463WAT    EPW 6574   0.621   1.668   2.647 -0.0075 -1.0353 -0.2009
 1464WAT      O 6575   1.016   4.493   1.225 -0.3146  0.3686  0.2334
 1464WAT     H1 6576   1.059   4.426   1.191 -0.3991  0.9091 -1.0081
 1464WAT     H2 6577   1.004   4.546   1.157  0.6224  2.1188  1.3642
 1464WAT    EPW 6578   1.020   4.491   1.210 -0.1887  0.7070  0.2171
 1465WAT      O 6579   4.540   4.909   6.897  0.1122  0.3151  0.1479
 1465WAT     H1 6580   4.521   4.980   6.849 -1.3453 -0.9352 -1.2647
 1465WAT     H2 6581   4.603   4.870   6.850 -0.0124  0.0250  0.2214
 1465WAT    EPW 6582   4.547   4.914   6.883 -0.1215  0.0875 -0.0499
 1466WAT      O 6583   2.344   0.333   5.706  0.5914  0.0157 -0.5685
 1466WAT     H1 6584   2.403   0.383   5.666  1.0620 -1.0772 -1.3149
 1466WAT     H2 6585   2.390   0.265   5.735 -0.0601 -0.1196  0.2132
 1466WAT    EPW 6586   2.359   0.330   5.704  0.5647 -0.1658 -0.5633
 1467WAT      O 6587   4.648   4.986   7.152 -0.4067 -0.0864  0.7146
 1467WAT     H1 6588   4.578   4.983   7.204 -0.6444  0.4171  0.4410
 1467WAT     H2 6589   4.620   4.948   7.078  0.0574 -1.1739  1.0851
 1467WAT    EPW 6590   4.634   4.980   7.149 -0.3732 -0.1727  0.7289
 1468WAT      O 6591   4.999   4.742   4.875  0.0544  0.4932 -0.4999
 1468WAT     H1 6592   5.055   4.777   4.818  2.2038 -1.0811  0.5031
 1468WAT     H2 6593   4.986   4.661   4.844  0.8965 -0.2350  0.9280
 1468WAT    EPW 6594   5.005   4.735   4.862  0.4963  0.1531 -0.1408
 1469WAT      O 6595   6.282   2.881   3.811 -0.3638  0.0285  0.3102
 1469WAT     H1 6596   6.254   2.853   3.733 -0.0194  0.7703 -0.0863
 1469WAT     H2 6597   6.233   2.952   3.826 -1.0924 -0.6407  1.2151
 1469WAT    EPW 6598   6.271   2.887   3.802 -0.4206  0.0392  0.3853
 1470WAT      O 6599   2.015   6.205   5.271 -0.2930 -0.0549 -0.7080
 1470WAT     H1 6600   2.025   6.199   5.357  0.1868 -0.0155 -0.7572
 1470WAT     H2 6601   2.094   6.183   5.240 -0.8063 -1.3154 -1.1781
 1470WAT    EPW 6602   2.028   6.201   5.279 -0.2979 -0.2353 -0.7847
 1471WAT      O 6603   4.449   5.212   4.863  0.0052  0.2677  0.4841
 1471WAT     H1 6604   4.492   5.235   4.791  0.5801 -0.5754  0.5540
 1471WAT     H2 6605   4.467   5.128   4.873 -0.0344  0.3736  1.6338
 1471WAT    EPW 6606   4.458   5.203   4.854  0.0843  0.1588  0.6643
 1472WAT      O 6607   3.739   1.989   6.496 -0.0446 -0.3241 -0.6296
 1472WAT     H1 6608   3.807   1.987   6.441  1.1340 -0.4100  0.7826
 1472WAT     H2 6609   3.696   1.915   6.478  2.2053 -2.1068  0.8193
 1472WAT    EPW 6610   3.742   1.978   6.485  0.4618 -0.6001 -0.2070
 1473WAT      O 6611   3.881   7.000   5.831 -0.1334 -0.0386 -0.3084
 1473WAT     H1 6612   3.851   7.001   5.749  0.6542 -2.0142 -0.6701
 1473WAT     H2 6613   3.968   7.001   5.822 -0.0216  1.6806  0.5940
 1473WAT    EPW 6614   3.889   7.000   5.818 -0.0005 -0.0765 -0.2285
 1474WAT      O 6615   5.417   5.017   3.767 -0.3172 -0.5354  0.1154
 1474WAT     H1 6616   5.353   4.981   3.814  0.1315 -1.2703  0.1824
 1474WAT     H2 6617   5.442   4.952   3.714 -0.7415  0.2296 -1.0808
 1474WAT    EPW 6618   5.411   5.002   3.766 -0.3136 -0.5310 -0.0514
 1475WAT      O 6619   1.347   2.487   2.940 -0.1062 -0.4624  0.5316
 1475WAT     H1 6620   1.424   2.460   2.907  1.3519  1.5310  2.0796
 1475WAT     H2 6621   1.349   2.459   3.022 -1.5415 -1.2351  0.3311
 1475WAT    EPW 6622   1.359   2.479   2.947 -0.1028 -0.2821  0.7307
 1476WAT      O 6623   5.832   7.109   0.475  0.0598 -0.4862 -0.0687
 1476WAT     H1 6624   5.871   7.151   0.409  0.9690 -1.2743 -0.0577
 1476WAT     H2 6625   5.749   7.137   0.471  0.4332  0.6029 -0.6084
 1476WAT    EPW 6626   5.825   7.119   0.465  0.2493 -0.4418 -0.1468
 1477WAT      O 6627   3.764   5.238   3.413 -0.0424  0.6185  0.2491
 1477WAT     H1 6628   3.802   5.253   3.490 -1.0749  1.8651  0.5658
 1477WAT     H2 6629   3.753   5.318   3.380  0.2524  0.1083 -1.1448
 1477WAT    EPW 6630   3.768   5.252   3.420 -0.1514  0.7273  0.0899
 1478WAT      O 6631   4.508   6.525   1.882 -0.2831 -0.0179 -0.3600
 1478WAT     H1 6632   4.447   6.556   1.937 -2.9164 -0.0506 -2.9807
 1478WAT     H2 6633   4.565   6.591   1.876 -0.2544  0.2318  1.7985
 1478WAT    EPW 6634   4.507   6.540   1.889 -0.6679  0.0142 -0.4283
 1479WAT      O 6635   1.456   6.892   1.125 -0.7020 -0.1034 -0.1983
 1479WAT     H1 6636   1.462   6.806   1.118 -1.3110 -0.3802  1.8825
 1479WAT     H2 6637   1.467   6.921   1.044  1.3682 -2.0075 -0.6845
 1479WAT    EPW 6638   1.459   6.884   1.112 -0.4862 -0.4256  0.0373
 1480WAT      O 6639   6.563   1.952   0.899 -0.2820 -0.4607 -1.1436
 1480WAT     H1 6640   6.499   1.914   0.853 -1.4062 -0.9023  0.6990
 1480WAT     H2 6641   6.614   1.886   0.923  0.5376 -0.1838 -2.0261
 1480WAT    EPW 6642   6.561   1.937   0.896 -0.3270 -0.4850 -1.0018
 1481WAT      O 6643   1.892   1.275   2.950  0.2559 -0.2743  0.1621
 1481WAT     H1 6644   1.964   1.315   2.980 -0.0368  0.3655  0.0296
 1481WAT     H2 6645   1.828   1.331   2.968 -0.1712 -0.6968 -0.0111
 1481WAT    EPW 6646   1.894   1.289   2.957  0.1495 -0.2422  0.1170
 1482WAT      O 6647   2.990   0.424   5.509 -0.4643 -0.1871 -0.0914
 1482WAT     H1 6648   3.023   0.345   5.490 -1.9205 -0.5550 -1.2417
 1482WAT     H2 6649   3.054   0.479   5.487  0.4028 -1.0045  0.3023
 1482WAT    EPW 6650   3.005   0.420   5.503 -0.5513 -0.3622 -0.2032
 1483WAT      O 6651   5.469   6.531   2.426  0.0306 -0.8983 -0.1155
 1483WAT     H1 6652   5.392   6.555   2.459  0.8118  0.1585  1.0508
 1483WAT     H2 6653   5.522   6.597   2.447  1.2453 -1.5530 -0.9678
 1483WAT    EPW 6654   5.466   6.544   2.434  0.3255 -0.8389 -0.0691
 1484WAT      O 6655   6.311   3.690   4.908 -0.3987 -0.0002  0.0533
 1484WAT     H1 6656   6.312   3.768   4.869 -0.8953  0.1553  0.3393
 1484WAT     H2 6657   6.274   3.638   4.849  1.3504 -0.3834 -0.7698
 1484WAT    EPW 6658   6.305   3.694   4.894 -0.2137 -0.0338 -0.0260
 1485WAT      O 6659   5.155   1.738   6.219  0.4941  0.1354  0.3981
 1485WAT     H1 6660   5.076   1.774   6.228  0.6343  0.5619 -0.0400
 1485WAT     H2 6661   5.187   1.739   6.300 -0.4091 -1.1387  0.8035
 1485WAT    EPW 6662   5.148   1.744   6.232  0.3814  0.0102  0.3932
 1486WAT      O 6663   6.562   3.132   4.113  0.1024 -0.0176  0.1847
 1486WAT     H1 6664   6.542   3.066   4.059  3.0660 -0.2963 -0.7555
 1486WAT     H2 6665   6.557   3.202   4.063 -0.0625  0.1128  0.3795
 1486WAT    EPW 6666   6.558   3.132   4.098  0.5158 -0.0395  0.0746
 1487WAT      O 6667   1.238   1.401   2.280  0.2070  0.0755  0.4022
 1487WAT     H1 6668   1.282   1.354   2.221 -2.9694 -0.8807 -1.4225
 1487WAT     H2 6669   1.292   1.468   2.296  2.5081 -1.2340 -1.2227
 1487WAT    EPW 6670   1.253   1.404   2.274  0.0777 -0.2592 -0.1073
 1488WAT      O 6671   5.328   0.055   0.392 -0.3945 -0.2518 -0.3408
 1488WAT     H1 6672   5.289   0.079   0.466  0.1054 -0.1077 -0.1252
 1488WAT     H2 6673   5.314   0.123   0.339  0.3835  0.2080  0.0376
 1488WAT    EPW 6674   5.320   0.068   0.395 -0.2057 -0.1626 -0.2531
 1489WAT      O 6675   2.984   4.377   1.717  0.1133  0.2223  0.4645
 1489WAT     H1 6676   3.038   4.351   1.780  0.9478  0.1302 -0.2708
 1489WAT     H2 6677   3.003   4.325   1.651  0.0889  1.0891 -0.2460
 1489WAT    EPW 6678   2.995   4.366   1.717  0.2330  0.3367  0.2510
 1490WAT      O 6679   4.211   2.175   3.889 -0.2926  0.3180  0.2465
 1490WAT     H1 6680   4.263   2.244   3.894 -1.4651  1.2958 -0.4221
 1490WAT     H2 6681   4.243   2.129   3.823  0.4087  0.2780  0.6054
 1490WAT    EPW 6682   4.223   2.178   3.880 -0.3622  0.4566  0.2008
 1491WAT      O 6683   1.087   1.118   1.425  0.1655 -0.2951  0.2767
 1491WAT     H1 6684   1.171   1.118   1.398 -0.0242  1.1676 -0.3783
 1491WAT     H2 6685   1.087   1.172   1.493 -0.5175  0.9490 -0.6855
 1491WAT    EPW 6686   1.100   1.126   1.431  0.0366  0.1047  0.0378
 1492WAT      O 6687   4.451   5.482   3.913 -0.4261  0.1623 -0.0672
 1492WAT     H1 6688   4.441   5.453   3.831 -0.1713  0.7058 -0.2930
 1492WAT     H2 6689   4.519   5.536   3.907 -0.8476  0.7404  0.3633
 1492WAT    EPW 6690   4.459   5.485   3.900 -0.4507  0.3280 -0.0370
 1493WAT      O 6691   0.490   6.140   4.370  0.3818 -0.2768 -0.6460
 1493WAT     H1 6692   0.527   6.104   4.300 -0.8668 -1.9117 -0.5206
 1493WAT     H2 6693   0.412   6.167   4.341 -0.4224 -1.5724  0.2088
 1493WAT    EPW 6694   0.484   6.139   4.356  0.0785 -0.7097 -0.5012
 1494WAT      O 6695   1.937   0.206   1.212 -0.2873 -0.2997  0.1923
 1494WAT     H1 6696   1.867   0.171   1.174  0.8946 -1.3490 -1.1213
 1494WAT     H2 6697   1.956   0.275   1.161  1.5726 -1.9747 -1.5228
 1494WAT    EPW 6698   1.929   0.211   1.199  0.1621 -0.7021 -0.2551
 1495WAT      O 6699   0.155   5.647   4.634  0.2549  0.3457 -0.3474
 1495WAT     H1 6700   0.238   5.672   4.630  1.2466 -2.2968  1.2352
 1495WAT     H2 6701   0.125   5.687   4.706 -0.1251  1.8659 -1.3088
 1495WAT    EPW 6702   0.163   5.657   4.644  0.3453  0.1799 -0.2556
 1496WAT      O 6703   2.981   2.072   5.417  0.2545 -0.2712  0.4992
 1496WAT     H1 6704   2.924   2.136   5.434  1.2668  1.2299 -1.3756
 1496WAT     H2 6705   2.933   2.013   5.373 -0.0041  0.8053 -0.7393
 1496WAT    EPW 6706   2.966   2.073   5.413  0.3658  0.1096  0.0393
 1497WAT      O 6707   3.842   3.923   3.294  0.6202 -0.6246 -0.0191
 1497WAT     H1 6708   3.868   3.841   3.307  0.6713 -0.4043  1.4477
 1497WAT     H2 6709   3.867   3.940   3.213  0.2433 -2.1957 -0.5024
 1497WAT    EPW 6710   3.849   3.914   3.284  0.5721 -0.8241  0.1262
 1498WAT      O 6711   0.534   4.930   5.070 -0.1376  0.1143 -0.6894
 1498WAT     H1 6712   0.450   4.911   5.060 -0.3882  1.6803 -1.9872
 1498WAT     H2 6713   0.533   5.008   5.109  0.7280 -0.0122 -0.3860
 1498WAT    EPW 6714   0.522   4.939   5.074 -0.0468  0.3270 -0.8363
 1499WAT      O 6715   1.509   5.229   7.343 -0.2553 -0.2081 -0.0826
 1499WAT     H1 6716   1.433   5.220   7.300  1.0562 -1.8916 -2.3074
 1499WAT     H2 6717   1.536   5.309   7.320 -1.2171  0.3184  0.5534
 1499WAT    EPW 6718   1.502   5.240   7.333 -0.2037 -0.3790 -0.3173
 1500WAT      O 6719   3.065   3.666   7.083 -0.3573  0.3233  0.2377
 1500WAT     H1 6720   3.086   3.751   7.076  0.0289  0.3595  1.5689
 1500WAT     H2 6721   3.123   3.626   7.033 -0.3715  0.8250 -0.1848
 1500WAT    EPW 6722   3.076   3.673   7.075 -0.3024  0.4028  0.3719
 1501WAT      O 6723   6.208   5.825   4.598  0.0431  0.1869 -0.1576
 1501WAT     H1 6724   6.143   5.779   4.563 -0.7490  0.4752  0.8828
 1501WAT     H2 6725   6.276   5.806   4.547 -0.5307 -1.2035 -0.4580
 1501WAT    EPW 6726   6.209   5.815   4.586 -0.1587  0.0241 -0.0483
 1502WAT      O 6727   0.519   6.834   4.395  0.0224 -0.7762 -0.3701
 1502WAT     H1 6728   0.547   6.916   4.391 -1.0318 -0.4002 -0.4713
 1502WAT     H2 6729   0.437   6.839   4.365 -1.6952 -1.0936  3.6708
 1502WAT    EPW 6730   0.511   6.847   4.390 -0.3871 -0.7676  0.2119
 1503WAT      O 6731   0.177   1.412   1.611  0.7938 -0.2139 -0.6108
 1503WAT     H1 6732   0.108   1.463   1.596 -0.7066 -1.5919  1.1404
 1503WAT     H2 6733   0.236   1.440   1.553 -0.8321  1.7452 -1.4494
 1503WAT    EPW 6734   0.175   1.424   1.600  0.3320 -0.1281 -0.4760
 1504WAT      O 6735   4.418   3.300   0.808  0.1671 -0.2389 -0.0482
 1504WAT     H1 6736   4.405   3.373   0.761 -2.0702  0.0819  0.9766
 1504WAT     H2 6737   4.403   3.326   0.890  1.2989 -1.4377  0.5716
 1504WAT    EPW 6738   4.414   3.315   0.813  0.0038 -0.3686  0.1947
 1505WAT      O 6739   1.635   5.864   2.956 -0.4102  0.4693 -0.1824
 1505WAT     H1 6740   1.559   5.894   2.925 -1.3667  0.6079  2.0892
 1505WAT     H2 6741   1.692   5.884   2.893 -1.7029  3.3461 -0.5987
 1505WAT    EPW 6742   1.632   5.872   2.942 -0.7425  0.9148  0.0917
 1506WAT      O 6743   3.362   5.746   2.284 -0.3797 -0.6090  0.4301
 1506WAT     H1 6744   3.338   5.800   2.348 -0.1693 -0.7304  0.6128
 1506WAT     H2 6745   3.313   5.675   2.297 -1.2707 -0.1541 -0.3100
 1506WAT    EPW 6746   3.351   5.743   2.295 -0.4803 -0.5597  0.3478
 1507WAT      O 6747   2.307   3.972   5.282 -0.4072 -0.7340 -0.1277
 1507WAT     H1 6748   2.279   4.054   5.276  0.7117 -0.2990  0.3363
 1507WAT     H2 6749   2.326   3.962   5.366  0.5640 -1.0817 -0.3718
 1507WAT    EPW 6750   2.306   3.982   5.293 -0.0984 -0.7211 -0.0952
 1508WAT      O 6751   1.112   4.259   5.404  0.3785  0.0697  0.0585
 1508WAT     H1 6752   1.094   4.179   5.432 -1.4379 -0.0075 -1.1537
 1508WAT     H2 6753   1.190   4.277   5.440 -1.3265 -0.2283  4.5506
 1508WAT    EPW 6754   1.121   4.250   5.413 -0.1417  0.0143  0.5430
 1509WAT      O 6755   0.011   5.079   2.670  0.0277 -0.2378  0.2157
 1509WAT     H1 6756  -0.053   5.041   2.715  0.3412  0.5588  1.3742
 1509WAT     H2 6757  -0.032   5.137   2.621 -0.1375  0.5630  1.2687
 1509WAT    EPW 6758  -0.005   5.082   2.669  0.0496 -0.0018  0.5424
 1510WAT      O 6759   3.679   6.810   5.905  0.0101  0.3065  0.1033
 1510WAT     H1 6760   3.730   6.878   5.883 -1.7897  1.8992  0.5256
 1510WAT     H2 6761   3.720   6.774   5.972  1.9446 -0.2029 -1.2667
 1510WAT    EPW 6762   3.692   6.815   5.911  0.0300  0.4665 -0.0367
 1511WAT      O 6763   1.045   1.574   1.579  0.6059 -0.1114 -0.3286
 1511WAT     H1 6764   1.131   1.569   1.589  0.8501 -0.6919 -2.2393
 1511WAT     H2 6765   1.032   1.547   1.496 -1.4083 -0.1208 -0.0721
 1511WAT    EPW 6766   1.055   1.570   1.568  0.3445 -0.1986 -0.5730
 1512WAT      O 6767   2.405   1.198   4.826  0.2125 -0.4017 -0.1018
 1512WAT     H1 6768   2.476   1.240   4.853 -0.2621  0.7486 -0.6130
 1512WAT     H2 6769   2.385   1.147   4.894 -0.4718  1.7897  1.4411
 1512WAT    EPW 6770   2.413   1.196   4.840  0.0413  0.0919  0.0506
 1513WAT      O 6771   5.015   4.617   0.041  0.4584 -0.2022  1.3299
 1513WAT     H1 6772   5.090   4.630   0.084 -0.1558  0.1466  2.3388
 1513WAT     H2 6773   5.018   4.677  -0.023  1.1794 -0.4191  1.1439
 1513WAT    EPW 6774   5.027   4.628   0.038  0.4742 -0.1827  1.4514
 1514WAT      O 6775   2.903   3.388   2.869 -0.3573 -0.3488 -0.0521
 1514WAT     H1 6776   2.964   3.435   2.911 -2.1997 -0.4430  3.0117
 1514WAT     H2 6777   2.916   3.307   2.900 -0.5654 -0.8381 -1.2109
 1514WAT    EPW 6778   2.914   3.383   2.880 -0.6602 -0.4350  0.2293
 1515WAT      O 6779   3.531   5.896   4.255 -0.2886 -0.6081  0.5946
 1515WAT     H1 6780   3.453   5.920   4.226  0.1465 -1.6444 -1.6159
 1515WAT     H2 6781   3.547   5.952   4.320 -2.4883  0.1421  0.5540
 1515WAT    EPW 6782   3.522   5.908   4.261 -0.5493 -0.6503  0.2621
 1516WAT      O 6783   7.174   4.160   4.696  0.4500  0.4327 -0.3205
 1516WAT     H1 6784   7.146   4.097   4.643  1.6231  0.5833 -1.1569
 1516WAT     H2 6785   7.102   4.183   4.741  0.1593 -2.0226  0.5994
 1516WAT    EPW 6786   7.159   4.154   4.695  0.5803  0.0923 -0.3081
 1517WAT      O 6787   3.789   3.712   1.008 -0.1591  0.4346 -0.1078
 1517WAT     H1 6788   3.733   3.700   0.942 -1.1050  0.8715  0.6017
 1517WAT     H2 6789   3.778   3.795   1.030  1.0022  0.6192 -0.1472
 1517WAT    EPW 6790   3.779   3.722   1.002 -0.1273  0.5264 -0.0088
 1518WAT      O 6791   3.799   2.634   6.805 -0.2820 -0.3401  0.2015
 1518WAT     H1 6792   3.790   2.714   6.838 -0.5547 -0.6065  0.7944
 1518WAT     H2 6793   3.756   2.638   6.729  1.2696  0.5907 -0.6810
 1518WAT    EPW 6794   3.791   2.647   6.798 -0.0931 -0.2419  0.1587
 1519WAT      O 6795   6.607   0.843   2.035 -0.4430  0.3173  0.7605
 1519WAT     H1 6796   6.618   0.849   1.949  0.0245  0.2648  0.8139
 1519WAT     H2 6797   6.674   0.794   2.061 -1.0310 -0.3451  1.0581
 1519WAT    EPW 6798   6.618   0.837   2.026 -0.4608  0.2117  0.8123
 1520WAT      O 6799   2.051   2.336   1.780  0.0750  0.7033 -0.1802
 1520WAT     H1 6800   2.128   2.350   1.820  1.1535  0.3420 -2.0350
 1520WAT     H2 6801   2.072   2.287   1.711 -1.9138  0.2042 -0.5004
 1520WAT    EPW 6802   2.066   2.331   1.776 -0.0594  0.5762 -0.5015
 1521WAT      O 6803   0.721   1.014   0.841 -0.0600 -0.4784  0.5953
 1521WAT     H1 6804   0.798   0.988   0.872  0.4987 -1.0517 -1.1906
 1521WAT     H2 6805   0.738   1.092   0.806 -0.5865 -0.0494  1.2492
 1521WAT    EPW 6806   0.735   1.022   0.840 -0.0553 -0.4997  0.4281
 1522WAT      O 6807   2.438   4.709   3.244 -0.2062 -0.0428 -0.1678
 1522WAT     H1 6808   2.395   4.636   3.264 -1.3968  0.8027  0.5331
 1522WAT     H2 6809   2.399   4.737   3.171  0.6981 -0.4451 -0.8165
 1522WAT    EPW 6810   2.426   4.702   3.237 -0.2485  0.0226 -0.1601
 1523WAT      O 6811   1.364   6.457   4.949  0.6683 -0.3019 -0.0033
 1523WAT     H1 6812   1.436   6.409   4.942 -0.0610 -1.2394 -1.4901
 1523WAT     H2 6813   1.343   6.476   4.867  0.6682  2.2238  0.5074
 1523WAT    EPW 6814   1.371   6.453   4.936  0.5606 -0.0673 -0.1475
 1524WAT      O 6815   2.333   4.968   7.191 -0.3016  0.2398 -1.2034
 1524WAT     H1 6816   2.413   4.994   7.214 -0.9445  0.1273  1.5524
 1524WAT     H2 6817   2.285   5.040   7.199 -1.1140 -0.4593  1.1730
 1524WAT    EPW 6818   2.338   4.983   7.196 -0.5166  0.1199 -0.4452
 1525WAT      O 6819   2.933   3.203   4.520  0.6196 -0.1454 -0.1499
 1525WAT     H1 6820   2.984   3.148   4.476  1.1201 -0.1248  0.3947
 1525WAT     H2 6821   2.886   3.242   4.457  2.1261  0.7184 -0.7882
 1525WAT    EPW 6822   2.933   3.200   4.504  0.9161 -0.0147 -0.1637
 1526WAT      O 6823   0.192   4.750   5.866  0.3098 -0.0987 -0.0763
 1526WAT     H1 6824   0.276   4.735   5.884  0.3930  0.6008  0.1439
 1526WAT     H2 6825   0.160   4.784   5.940 -0.3827 -1.1425  0.1266
 1526WAT    EPW 6826   0.199   4.753   5.879  0.2198 -0.1495 -0.0138
 1527WAT      O 6827   2.980   5.726   0.219 -0.4349  0.5775  0.7734
 1527WAT     H1 6828   3.053   5.741   0.174 -0.0150 -1.0615  0.8489
 1527WAT     H2 6829   2.991   5.772   0.292  1.2716 -0.8448  1.4860
 1527WAT    EPW 6830   2.993   5.735   0.223 -0.1208  0.1253  0.8898
 1528WAT      O 6831   2.657   2.534   2.987 -0.2938  0.1552  0.6434
 1528WAT     H1 6832   2.677   2.562   3.067 -1.6535  0.6306  0.8511
 1528WAT     H2 6833   2.569   2.531   2.989 -0.3954  1.0595 -1.1209
 1528WAT    EPW 6834   2.647   2.537   2.999 -0.5096  0.3590  0.4134
 1529WAT      O 6835   2.198   5.618   6.338 -0.5132 -0.2774  0.1549
 1529WAT     H1 6836   2.144   5.586   6.398 -0.8551  0.0525  0.0312
 1529WAT     H2 6837   2.185   5.568   6.268  0.4703 -1.1703  0.5898
 1529WAT    EPW 6838   2.188   5.606   6.337 -0.4184 -0.3606  0.2009
 1530WAT      O 6839   4.655   1.592   2.065 -0.4133 -0.0770 -0.0553
 1530WAT     H1 6840   4.700   1.662   2.092  0.4691 -0.9266  0.7752
 1530WAT     H2 6841   4.582   1.626   2.032  0.2583  1.2739 -0.2484
 1530WAT    EPW 6842   4.651   1.607   2.064 -0.1837 -0.0029  0.0389
 1531WAT      O 6843   5.699   5.667   3.056 -0.7970  0.0646 -0.4976
 1531WAT     H1 6844   5.751   5.700   2.994  1.7419 -3.3822 -0.4994
 1531WAT     H2 6845   5.712   5.721   3.124  1.1340  0.5881 -1.2035
 1531WAT    EPW 6846   5.709   5.680   3.057 -0.1367 -0.3672 -0.6021
 1532WAT      O 6847   3.284   5.422   2.942  0.2559 -0.3449  0.3989
 1532WAT     H1 6848   3.269   5.341   2.969 -0.2798 -0.3712  0.0314
 1532WAT     H2 6849   3.240   5.428   2.867 -1.2438  0.8577  1.2985
 1532WAT    EPW 6850   3.275   5.411   2.935 -0.0448 -0.1711  0.4775
 1533WAT      O 6851   5.510   0.608   1.424 -0.3415  0.1221 -0.3087
 1533WAT     H1 6852   5.503   0.677   1.477 -1.2495  0.2782 -0.6021
 1533WAT     H2 6853   5.581   0.625   1.377  0.7995 -0.2845  1.2250
 1533WAT    EPW 6854   5.519   0.621   1.425 -0.3071  0.0851 -0.1255
 1534WAT      O 6855   5.171   4.967   3.879 -0.1588 -0.6095 -0.1503
 1534WAT     H1 6856   5.121   5.038   3.879 -2.0614 -1.8381  2.0384
 1534WAT     H2 6857   5.178   4.945   3.963  1.0379 -2.5631 -0.6733
 1534WAT    EPW 6858   5.164   4.974   3.891 -0.2630 -1.0796  0.0957
 1535WAT      O 6859   0.883   0.924   7.343  1.5861 -0.0408  0.1496
 1535WAT     H1 6860   0.836   0.979   7.393  1.5149  0.0956 -0.0684
 1535WAT     H2 6861   0.951   0.972   7.318 -1.2677  2.0694 -4.9739
 1535WAT    EPW 6862   0.886   0.939   7.347  1.1540  0.2911 -0.6395
 1536WAT      O 6863   5.243   1.458   7.198 -0.1208  0.0795  0.4953
 1536WAT     H1 6864   5.213   1.499   7.270  2.5983  1.7509  0.8316
 1536WAT     H2 6865   5.267   1.524   7.146 -0.6028 -1.1233 -1.3276
 1536WAT    EPW 6866   5.242   1.474   7.201  0.2097  0.1488  0.2757
 1537WAT      O 6867   6.677   4.042   5.971 -0.0895  0.1491  0.0062
 1537WAT     H1 6868   6.737   4.061   6.032 -0.0661 -1.5605  0.5584
 1537WAT     H2 6869   6.640   3.969   6.000 -0.9377 -0.0365 -1.4386
 1537WAT    EPW 6870   6.680   4.034   5.984 -0.2113 -0.1308 -0.1257
 1538WAT      O 6871   7.225   0.929   1.561  0.2696  0.2527  0.4828
 1538WAT     H1 6872   7.224   0.908   1.646 -0.1654  2.1504  0.9989
 1538WAT     H2 6873   7.308   0.954   1.548  0.9891 -2.2849 -0.3183
 1538WAT    EPW 6874   7.237   0.929   1.572  0.3116  0.1582  0.4407
 1539WAT      O 6875   6.085   0.481   1.132 -0.3219 -0.0909 -0.6292
 1539WAT     H1 6876   6.073   0.525   1.058 -0.1902  0.0901 -0.5419
 1539WAT     H2 6877   6.084   0.542   1.194 -1.2321 -0.3254 -0.3968
 1539WAT    EPW 6878   6.083   0.496   1.131 -0.4369 -0.0988 -0.5820
 1540WAT      O 6879   1.791   7.048   2.238 -0.3785  0.5041  0.3680
 1540WAT     H1 6880   1.834   6.972   2.240 -1.3142 -0.0642 -0.3973
 1540WAT     H2 6881   1.821   7.087   2.167 -1.6554 -0.2450 -0.6250
 1540WAT    EPW 6882   1.802   7.042   2.228 -0.7053  0.3095  0.1083
 1541WAT      O 6883   5.284   1.696   0.546 -0.2060 -0.0572  0.2429
 1541WAT     H1 6884   5.330   1.714   0.475 -1.2776  0.8021 -0.2595
 1541WAT     H2 6885   5.243   1.621   0.525 -1.1705  0.6216 -0.4059
 1541WAT    EPW 6886   5.285   1.688   0.532 -0.5068  0.1700  0.0729
 1542WAT      O 6887   4.911   3.994   5.807 -0.1765 -0.3455  0.7110
 1542WAT     H1 6888   4.967   4.060   5.813  0.8585 -1.3035  2.1710
 1542WAT     H2 6889   4.838   4.026   5.843 -0.1072  0.4313  0.1673
 1542WAT    EPW 6890   4.908   4.008   5.813 -0.0134 -0.3723  0.8464
 1543WAT      O 6891   0.029   1.871   0.969 -0.3113 -0.5811  0.6880
 1543WAT     H1 6892   0.080   1.824   0.916 -2.5803 -1.2849 -1.0507
 1543WAT     H2 6893   0.046   1.839   1.048  0.6709 -1.9518 -0.0392
 1543WAT    EPW 6894   0.039   1.860   0.973 -0.5014 -0.8876  0.3237
 1544WAT      O 6895   0.466   5.560   3.634  0.2659  0.0525  0.1329
 1544WAT     H1 6896   0.522   5.626   3.642 -0.3982  0.8466 -1.4215
 1544WAT     H2 6897   0.516   5.495   3.604  0.9853 -0.3079  1.9736
 1544WAT    EPW 6898   0.482   5.560   3.631  0.2741  0.1165  0.1752
 1545WAT      O 6899   3.381   2.060   3.756  0.1659  0.1190 -0.2539
 1545WAT     H1 6900   3.458   2.070   3.794  0.2574 -2.3665  0.3691
 1545WAT     H2 6901   3.327   2.108   3.805  0.7502 -0.8514  1.3962
 1545WAT    EPW 6902   3.384   2.069   3.769  0.2657 -0.3915  0.0819
 1546WAT      O 6903   1.392   4.815   4.249 -0.0679 -0.3662 -0.2022
 1546WAT     H1 6904   1.456   4.761   4.226 -0.4946  0.1686 -2.9715
 1546WAT     H2 6905   1.321   4.765   4.247 -0.2729 -0.0564 -1.3908
 1546WAT    EPW 6906   1.391   4.799   4.245 -0.1612 -0.2414 -0.7869
 1547WAT      O 6907   5.778   0.646   3.019 -0.1018  0.0868  0.1851
 1547WAT     H1 6908   5.800   0.711   2.966 -0.0251  0.8501  1.1252
 1547WAT     H2 6909   5.698   0.668   3.047 -0.0280 -0.1632  0.6042
 1547WAT    EPW 6910   5.769   0.659   3.016 -0.0796  0.1626  0.3859
 1548WAT      O 6911   4.116   4.006   6.810 -0.7496  0.1676 -0.6574
 1548WAT     H1 6912   4.129   3.987   6.894  1.6318 -0.8791 -1.1896
 1548WAT     H2 6913   4.104   3.928   6.772 -0.5948  0.5166 -1.4598
 1548WAT    EPW 6914   4.116   3.992   6.817 -0.3750  0.0645 -0.8546
 1549WAT      O 6915   0.647   7.135   6.017  0.0527  0.0822  0.2548
 1549WAT     H1 6916   0.705   7.070   6.016  0.0604  0.0939 -0.9036
 1549WAT     H2 6917   0.663   7.175   6.093 -0.3962 -1.6476  1.3090
 1549WAT    EPW 6918   0.658   7.131   6.028 -0.0125 -0.1716  0.2394
 1550WAT      O 6919   4.160   0.060   3.430 -0.1315 -0.2120 -0.1501
 1550WAT     H1 6920   4.166   0.137   3.469  0.5485 -0.1497 -0.3732
 1550WAT     H2 6921   4.167   0.003   3.496  0.1332 -0.0959 -0.0771
 1550WAT    EPW 6922   4.162   0.063   3.445  0.0081 -0.1856 -0.1723
 1551WAT      O 6923   7.077   3.778   2.919 -0.1849 -0.3801 -0.6352
 1551WAT     H1 6924   7.081   3.702   2.876 -2.6637  0.4144 -2.4995
 1551WAT     H2 6925   7.045   3.755   2.997  1.2065 -1.4773 -0.3535
 1551WAT    EPW 6926   7.073   3.763   2.924 -0.3455 -0.4248 -0.8690
 1552WAT      O 6927   7.226   1.207   6.598 -0.5596  0.3953 -0.3839
 1552WAT     H1 6928   7.163   1.170   6.550 -1.3275 -0.7191  1.3592
 1552WAT     H2 6929   7.292   1.216   6.542 -1.7770  0.2593 -1.9225
 1552WAT    EPW 6930   7.226   1.203   6.583 -0.8529  0.2106 -0.3537
 1553WAT      O 6931   0.122   0.896   0.201 -0.2980 -0.1771 -0.2982
 1553WAT     H1 6932   0.089   0.824   0.238 -1.2223  1.0108  1.2820
 1553WAT     H2 6933   0.158   0.939   0.268  1.5609  0.1891 -1.4474
 1553WAT    EPW 6934   0.123   0.892   0.216 -0.1599  0.0524 -0.2345
 1554WAT      O 6935   2.979   4.215   1.482 -0.0002 -0.0379 -0.2298
 1554WAT     H1 6936   3.066   4.214   1.474 -0.1077  0.6640 -1.9127
 1554WAT     H2 6937   2.955   4.135   1.456 -0.0816  1.1419 -4.7196
 1554WAT    EPW 6938   2.989   4.203   1.477 -0.0281  0.2400 -1.1416
 1555WAT      O 6939   6.795   2.605   3.808  0.0003  0.2441  0.0542
 1555WAT     H1 6940   6.723   2.565   3.837 -0.0939 -0.1332 -0.6658
 1555WAT     H2 6941   6.771   2.689   3.802 -0.5347  0.0598 -0.6030
 1555WAT    EPW 6942   6.781   2.611   3.811 -0.0927  0.1611 -0.1492
 1556WAT      O 6943   2.350   4.342   4.435 -0.2088 -0.0141  0.1825
 1556WAT     H1 6944   2.417   4.386   4.400  0.1239 -0.8697 -0.2731
 1556WAT     H2 6945   2.363   4.351   4.521  1.7216 -1.8859  0.1847
 1556WAT    EPW 6946   2.362   4.350   4.443  0.1255 -0.4170  0.1155
 1557WAT      O 6947   0.392   6.119   6.290  0.0392 -0.5324  0.1135
 1557WAT     H1 6948   0.345   6.183   6.254 -0.1579 -1.3356 -1.1426
 1557WAT     H2 6949   0.463   6.159   6.321 -0.5040  0.4015  0.1714
 1557WAT    EPW 6950   0.396   6.134   6.289 -0.0702 -0.5131 -0.0635
 1558WAT      O 6951   7.281   3.959   5.854  0.1802  0.0855 -0.5732
 1558WAT     H1 6952   7.212   3.978   5.804  0.3702 -2.4989 -1.9766
 1558WAT     H2 6953   7.332   4.029   5.846 -1.1023  0.9324 -1.6791
 1558WAT    EPW 6954   7.278   3.972   5.845  0.0188 -0.1712 -0.9439
 1559WAT      O 6955   1.666   6.770   4.541  0.0232  0.4522  0.0163
 1559WAT     H1 6956   1.639   6.849   4.566 -1.2241  0.1607 -0.3359
 1559WAT     H2 6957   1.646   6.719   4.608  1.3531  0.5135  0.4793
 1559WAT    EPW 6958   1.659   6.774   4.554  0.0354  0.4182  0.0326
 1560WAT      O 6959   6.390   6.213   2.925  0.0638  0.3045  0.0278
 1560WAT     H1 6960   6.412   6.144   2.876 -0.6918  1.2220 -1.7040
 1560WAT     H2 6961   6.356   6.269   2.867 -0.5758  1.6010  1.5797
 1560WAT    EPW 6962   6.388   6.211   2.909 -0.1423  0.6316  0.0012
 1561WAT      O 6963   1.958   1.475   5.856 -1.0430 -0.5435 -0.6114
 1561WAT     H1 6964   1.899   1.516   5.806 -0.8298 -1.8740 -2.0085
 1561WAT     H2 6965   1.920   1.399   5.874 -0.0862 -1.1066 -0.8979
 1561WAT    EPW 6966   1.944   1.470   5.851 -0.8701 -0.8232 -0.8601
 1562WAT      O 6967   4.031   3.135   1.183  0.2908 -0.2587 -0.4797
 1562WAT     H1 6968   4.039   3.148   1.269 -3.3689 -0.5093  0.0384
 1562WAT     H2 6969   4.060   3.053   1.172  3.3855  0.6513 -0.1042
 1562WAT    EPW 6970   4.037   3.125   1.194  0.2074 -0.1613 -0.3477
 1563WAT      O 6971   4.080   2.087   0.423  0.0090 -0.3424 -0.7570
 1563WAT     H1 6972   4.042   2.121   0.494  2.6386  0.1953  0.5368
 1563WAT     H2 6973   4.122   2.154   0.388  0.6814 -1.0984 -1.4408
 1563WAT    EPW 6974   4.081   2.102   0.428  0.4968 -0.3747 -0.6669
 1564WAT      O 6975   7.002   3.411   4.137 -0.1759 -0.2360 -1.0765
 1564WAT     H1 6976   7.082   3.380   4.122 -1.0712 -2.8240 -0.9889
 1564WAT     H2 6977   6.954   3.380   4.071 -1.4615 -0.3102 -0.1569
 1564WAT    EPW 6978   7.006   3.402   4.125 -0.4980 -0.6293 -0.9277
 1565WAT      O 6979   0.059   4.989   1.679  0.0975  0.2543 -0.1409
 1565WAT     H1 6980   0.028   5.069   1.662  2.4098  1.3700  0.5064
 1565WAT     H2 6981   0.125   5.004   1.733  1.8082 -1.9271 -1.4759
 1565WAT    EPW 6982   0.064   5.003   1.684  0.6918  0.0969 -0.2425
 1566WAT      O 6983   3.702   4.938   2.912  0.4494 -0.7803  0.0953
 1566WAT     H1 6984   3.783   4.937   2.882 -0.5237 -0.3205 -2.8990
 1566WAT     H2 6985   3.670   5.014   2.883 -1.3657 -1.4546  0.1853
 1566WAT    EPW 6986   3.709   4.949   2.903  0.0375 -0.8120 -0.3337
 1567WAT      O 6987   6.987   2.261   4.281 -0.0344 -0.3760 -0.2627
 1567WAT     H1 6988   7.025   2.307   4.344 -0.5591 -0.9090  0.4611
 1567WAT     H2 6989   7.054   2.223   4.240  0.2649 -0.7764  0.5731
 1567WAT    EPW 6990   7.002   2.262   4.284 -0.0677 -0.5139 -0.0323
 1568WAT      O 6991   2.480   0.729   0.101 -0.0883 -0.4216  0.1093
 1568WAT     H1 6992   2.554   0.730   0.147 -0.3496 -1.0173  0.5345
 1568WAT     H2 6993   2.473   0.647   0.074 -1.1880 -0.6408  1.0199
 1568WAT    EPW 6994   2.490   0.717   0.104 -0.2893 -0.5420  0.3066
 1569WAT      O 6995   1.086   2.529   2.835  0.2872  0.3008 -0.1699
 1569WAT     H1 6996   1.056   2.449   2.853  0.7878  0.5677  2.0509
 1569WAT     H2 6997   1.165   2.530   2.870  0.3033  1.7758 -0.2055
 1569WAT    EPW 6998   1.093   2.517   2.843  0.3635  0.5581  0.1529
 1570WAT      O 6999   5.232   3.074   5.131  0.6665  0.5881 -0.0459
 1570WAT     H1 7000   5.235   3.050   5.215  1.5097 -0.5452 -0.3695
 1570WAT     H2 7001   5.314   3.061   5.104  0.5497  1.5615 -0.8879
 1570WAT    EPW 7002   5.244   3.068   5.140  0.7738  0.5645 -0.2181
 1571WAT      O 7003   3.307   3.028   0.217 -0.1957 -0.3995  0.2928
 1571WAT     H1 7004   3.355   3.085   0.171  0.2765 -0.2569  0.9574
 1571WAT     H2 7005   3.273   2.976   0.155 -0.2111  0.2702 -0.2828
 1571WAT    EPW 7006   3.309   3.029   0.201 -0.1282 -0.2795  0.3060
 1572WAT      O 7007   3.577   6.040   0.860  0.2285 -0.3221  0.4645
 1572WAT     H1 7008   3.639   6.005   0.911  0.1953 -1.4594 -0.2437
 1572WAT     H2 7009   3.615   6.045   0.782  0.3676  1.6601  0.6085
 1572WAT    EPW 7010   3.592   6.036   0.856  0.2442 -0.1973  0.3811
 1573WAT      O 7011   0.649   1.323   0.932 -0.0158 -0.0240  0.6589
 1573WAT     H1 7012   0.603   1.254   0.960  1.4005 -1.2295  0.1754
 1573WAT     H2 7013   0.654   1.309   0.846  3.0100 -1.1448  0.9139
 1573WAT    EPW 7014   0.643   1.311   0.923  0.6404 -0.3676  0.6251
 1574WAT      O 7015   4.330   6.402   6.200  0.3405 -0.3342  0.2051
 1574WAT     H1 7016   4.369   6.404   6.278  0.6207  1.0661  0.0543
 1574WAT     H2 7017   4.392   6.374   6.146 -0.0034 -1.8271  0.5294
 1574WAT    EPW 7018   4.345   6.398   6.203  0.3311 -0.3479  0.2307
 1575WAT      O 7019   6.352   1.678   3.521  0.0341  0.0309 -0.3043
 1575WAT     H1 7020   6.387   1.756   3.541  0.3891 -0.2138  0.0579
 1575WAT     H2 7021   6.365   1.631   3.593 -1.2794  0.0019 -0.0799
 1575WAT    EPW 7022   6.359   1.683   3.534 -0.1075 -0.0095 -0.2176
 1576WAT      O 7023   7.183   4.773   2.942  0.1700  0.6312 -0.4872
 1576WAT     H1 7024   7.169   4.843   2.892 -0.6556 -0.0103 -1.1729
 1576WAT     H2 7025   7.234   4.722   2.892  1.0627  0.8753  0.1456
 1576WAT    EPW 7026   7.189   4.776   2.927  0.1799  0.5725 -0.4950
 1577WAT      O 7027   3.672   0.630   5.740  0.3087 -0.8741 -0.5084
 1577WAT     H1 7028   3.746   0.649   5.782  0.6742  1.0482 -1.9092
 1577WAT     H2 7029   3.688   0.552   5.705  2.3402  0.1420 -2.0591
 1577WAT    EPW 7030   3.685   0.621   5.741  0.6628 -0.4400 -0.9444
 1578WAT      O 7031   6.911   0.732   1.645  0.2617  0.0646  0.3821
 1578WAT     H1 7032   6.960   0.732   1.717  0.6344  0.2370  0.1341
 1578WAT     H2 7033   6.911   0.816   1.620 -0.7465  0.1932  0.7664
 1578WAT    EPW 7034   6.918   0.744   1.652  0.1678  0.1091  0.4022
 1579WAT      O 7035   2.667   0.634   2.784 -0.4164  0.0113  0.4766
 1579WAT     H1 7036   2.701   0.576   2.840 -0.2886 -0.5231 -0.1448
 1579WAT     H2 7037   2.664   0.591   2.708  1.9706  1.5383 -0.6312
 1579WAT    EPW 7038   2.672   0.619   2.781 -0.0449  0.1579  0.2212
 1580WAT      O 7039   5.056   2.275   4.402 -0.5370  0.1534  0.0753
 1580WAT     H1 7040   5.039   2.217   4.338 -2.8336 -0.6059  1.2788
 1580WAT     H2 7041   5.116   2.234   4.451 -0.8578 -0.4690 -0.0468
 1580WAT    EPW 7042   5.063   2.260   4.400 -0.9237 -0.0507  0.2351
 1581WAT      O 7043   1.964   3.142   5.053  0.5670  0.2682 -0.1925
 1581WAT     H1 7044   1.979   3.228   5.045  1.5989  0.2363  1.1098
 1581WAT     H2 7045   1.967   3.114   4.971  0.4335  1.4453 -0.6259
 1581WAT    EPW 7046   1.967   3.151   5.040  0.6997  0.4374 -0.0642
 1582WAT      O 7047   5.668   1.364   1.800 -0.3219  0.5001 -0.3375
 1582WAT     H1 7048   5.603   1.359   1.857 -0.9602  0.0069 -1.0915
 1582WAT     H2 7049   5.629   1.393   1.727 -0.0530 -1.3779 -1.2956
 1582WAT    EPW 7050   5.653   1.368   1.797 -0.3764  0.1499 -0.5904
 1583WAT      O 7051   3.091   2.928   7.138 -0.4449  0.4655  0.4599
 1583WAT     H1 7052   3.134   2.895   7.207  0.4101 -1.4705 -0.8987
 1583WAT     H2 7053   3.016   2.956   7.172 -0.7998 -1.9646  1.9808
 1583WAT    EPW 7054   3.087   2.927   7.153 -0.3710 -0.1795  0.4839
 1584WAT      O 7055   2.002   5.817   2.971  0.2418  0.5934 -0.0509
 1584WAT     H1 7056   1.955   5.889   2.955  0.2427  0.4097 -0.9682
 1584WAT     H2 7057   1.945   5.765   3.013 -0.2498  0.5538 -0.7412
 1584WAT    EPW 7058   1.986   5.820   2.975  0.1693  0.5604 -0.2884
 1585WAT      O 7059   4.820   6.070   4.684 -0.1754 -0.1714  0.0115
 1585WAT     H1 7060   4.867   6.082   4.756  2.9373 -0.5468 -1.7893
 1585WAT     H2 7061   4.827   5.984   4.669 -1.2755 -0.1990 -0.4793
 1585WAT    EPW 7062   4.828   6.059   4.693  0.1219 -0.2310 -0.3270
 1586WAT      O 7063   4.897   5.414   1.610  0.7358  0.4786 -0.0121
 1586WAT     H1 7064   4.909   5.484   1.661 -0.3439 -0.4364  1.6304
 1586WAT     H2 7065   4.821   5.430   1.570 -0.1107 -0.1820  1.2480
 1586WAT    EPW 7066   4.887   5.427   1.612  0.4513  0.2459  0.4167
 1587WAT      O 7067   6.139   0.519   5.655  0.3028  0.2368 -0.5698
 1587WAT     H1 7068   6.097   0.542   5.728 -0.7769 -2.4228 -0.2176
 1587WAT     H2 7069   6.090   0.552   5.591 -0.9428 -0.6437 -0.1063
 1587WAT    EPW 7070   6.125   0.527   5.656 -0.0407 -0.2862 -0.4493
 1588WAT      O 7071   2.526   0.120   5.776  0.1114 -0.5587  0.6188
 1588WAT     H1 7072   2.474   0.086   5.837 -0.0622  0.5471  1.1133
 1588WAT     H2 7073   2.548   0.051   5.727 -2.6757 -0.9314 -0.2775
 1588WAT    EPW 7074   2.521   0.105   5.778 -0.3259 -0.4504  0.5594
 1589WAT      O 7075   5.337   2.942   0.580 -0.2606 -0.0843  0.5557
 1589WAT     H1 7076   5.278   2.999   0.608 -1.9284 -0.4924 -1.7889
 1589WAT     H2 7077   5.335   2.878   0.639 -2.5658 -0.2825  0.3642
 1589WAT    EPW 7078   5.328   2.941   0.593 -0.8475 -0.1738  0.1811
 1590WAT      O 7079   3.435   4.008   4.010  0.8963 -0.1459  0.1230
 1590WAT     H1 7080   3.507   3.992   4.057  0.8027 -0.9577  0.0108
 1590WAT     H2 7081   3.385   3.938   4.025  0.6802 -0.2075 -0.8253
 1590WAT    EPW 7082   3.439   3.995   4.019  0.8506 -0.2749 -0.0337
 1591WAT      O 7083   4.637   1.650   6.741 -0.0942 -0.1979 -0.4574
 1591WAT     H1 7084   4.573   1.646   6.800  0.8509 -1.8103  0.5289
 1591WAT     H2 7085   4.628   1.729   6.707 -0.7431  0.7732  1.7881
 1591WAT    EPW 7086   4.626   1.661   6.744 -0.0505 -0.2927  0.0200
 1592WAT      O 7087   5.458   7.097   1.977  0.1814  0.3400 -0.5276
 1592WAT     H1 7088   5.403   7.030   1.963 -0.6025  1.0238 -0.7835
 1592WAT     H2 7089   5.536   7.058   1.980 -0.1338 -0.4493 -1.7963
 1592WAT    EPW 7090   5.461   7.081   1.976  0.0190  0.3244 -0.7528
 1593WAT      O 7091   3.097   0.683   2.598 -0.1962 -0.1378 -0.1809
 1593WAT     H1 7092   3.085   0.663   2.683  0.6649  0.1630  0.0216
 1593WAT     H2 7093   3.163   0.631   2.574  1.8793  2.1124  0.2691
 1593WAT    EPW 7094   3.105   0.673   2.607  0.2376  0.2390 -0.0845
 1594WAT      O 7095   2.378   6.484   2.588  0.2748 -0.0313  0.1125
 1594WAT     H1 7096   2.402   6.523   2.514 -1.7401  1.6392  0.2487
 1594WAT     H2 7097   2.364   6.401   2.564  2.4637 -0.2251 -0.6883
 1594WAT    EPW 7098   2.379   6.478   2.573  0.3005  0.1868  0.0143
 1595WAT      O 7099   0.607   3.381   3.928  0.5018 -0.4032 -0.2520
 1595WAT     H1 7100   0.598   3.463   3.959 -2.3001  0.9696 -3.9709
 1595WAT     H2 7101   0.608   3.333   4.001  1.0021  2.7860  2.1176
 1595WAT    EPW 7102   0.606   3.386   3.943  0.1618  0.2707 -0.4513
 1596WAT      O 7103   6.020   6.008   1.090 -0.6513  0.3421 -0.0888
 1596WAT     H1 7104   6.033   6.002   1.004 -1.6251  1.3669 -0.3280
 1596WAT     H2 7105   6.100   6.009   1.123 -0.2690 -0.6702 -0.9297
 1596WAT    EPW 7106   6.034   6.007   1.082 -0.7387  0.3440 -0.2484
 1597WAT      O 7107   5.813   5.360   6.729  0.0514 -0.0726 -0.1503
 1597WAT     H1 7108   5.849   5.428   6.687  1.5785 -1.3730 -1.0430
 1597WAT     H2 7109   5.733   5.353   6.694  1.3630 -1.3026 -3.1946
 1597WAT    EPW 7110   5.806   5.369   6.718  0.4707 -0.4464 -0.7319
 1598WAT      O 7111   1.011   0.054   1.734 -0.2244 -0.1460 -0.0375
 1598WAT     H1 7112   0.967   0.003   1.789  1.2853 -1.2777  0.1784
 1598WAT     H2 7113   0.965   0.049   1.660 -0.2376 -1.6709  0.0432
 1598WAT    EPW 7114   0.997   0.046   1.731 -0.0033 -0.5384  0.0063
 1599WAT      O 7115   0.566   2.187   3.873 -0.3669 -0.4241 -0.3858
 1599WAT     H1 7116   0.627   2.248   3.887 -0.4203 -0.0777 -1.5048
 1599WAT     H2 7117   0.591   2.120   3.921  0.4036  0.0401 -0.1286
 1599WAT    EPW 7118   0.579   2.186   3.882 -0.2610 -0.3044 -0.5131
 1600WAT      O 7119   0.793   7.227   3.692 -0.0108  0.3518  0.8070
 1600WAT     H1 7120   0.713   7.210   3.662  0.2223 -1.0590  0.9043
 1600WAT     H2 7121   0.779   7.268   3.767 -0.6663 -0.8392  1.3550
 1600WAT    EPW 7122   0.779   7.231   3.698 -0.0732 -0.0326  0.9023
 1601WAT      O 7123   5.948   6.958   4.018  0.5346 -0.1533  0.0544
 1601WAT     H1 7124   6.016   6.964   3.964  0.5109  1.6645  0.1876
 1601WAT     H2 7125   5.906   7.034   4.007 -1.7361 -1.3597 -0.3568
 1601WAT    EPW 7126   5.952   6.970   4.008  0.1956 -0.0630  0.0133
 1602WAT      O 7127   1.748   5.514   2.122  0.2616 -0.1213  0.4249
 1602WAT     H1 7128   1.798   5.458   2.167  1.0309  0.0063 -0.2437
 1602WAT     H2 7129   1.776   5.593   2.148  0.5955 -0.0481 -0.1457
 1602WAT    EPW 7130   1.760   5.518   2.133  0.4245 -0.0917  0.2419
 1603WAT      O 7131   1.963   1.778   5.038 -0.3121  0.0452 -0.5843
 1603WAT     H1 7132   1.971   1.726   4.969 -0.5776  0.7348 -1.1492
 1603WAT     H2 7133   1.945   1.856   5.003 -2.3492  0.0398  0.3173
 1603WAT    EPW 7134   1.962   1.782   5.023 -0.6522  0.1462 -0.5346
 1604WAT      O 7135   6.941   4.557   2.764 -0.2484  0.6688  0.2478
 1604WAT     H1 7136   6.937   4.487   2.712 -2.4491  0.4772  0.6094
 1604WAT     H2 7137   6.932   4.624   2.710 -2.2789  0.4773  0.2763
 1604WAT    EPW 7138   6.939   4.556   2.749 -0.8734  0.6122  0.3055
 1605WAT      O 7139   0.900   6.122   2.991 -0.3266 -0.0103  0.2183
 1605WAT     H1 7140   0.914   6.091   3.071  0.9641  0.6104  0.2436
 1605WAT     H2 7141   0.980   6.131   2.958 -0.6593  2.7516  0.0079
 1605WAT    EPW 7142   0.914   6.119   2.998 -0.1851  0.4894  0.1910
 1606WAT      O 7143   0.730   6.967   0.646  0.0475 -0.4778  0.7313
 1606WAT     H1 7144   0.737   6.948   0.731  4.0014  1.3606  1.0412
 1606WAT     H2 7145   0.766   6.898   0.606  3.6130  0.9016  1.1339
 1606WAT    EPW 7146   0.736   6.954   0.652  1.1583 -0.0025  0.8365
 1607WAT      O 7147   1.081   2.686   1.256 -0.5680 -0.3015 -0.0284
 1607WAT     H1 7148   1.115   2.715   1.181 -0.8794 -1.6002 -0.6995
 1607WAT     H2 7149   1.106   2.603   1.259 -0.8575 -0.3666  1.1503
 1607WAT    EPW 7150   1.090   2.678   1.245 -0.6568 -0.5030  0.0466
 1608WAT      O 7151   2.062   2.992   4.144 -0.7217 -0.1132  0.0285
 1608WAT     H1 7152   2.095   3.051   4.089 -0.3371  0.2987  0.6772
 1608WAT     H2 7153   2.018   3.041   4.202 -1.3145 -0.5541 -0.0456
 1608WAT    EPW 7154   2.061   3.008   4.144 -0.7525 -0.1175  0.1134
 1609WAT      O 7155   2.313   6.090   6.409  0.3726  0.1666 -0.0516
 1609WAT     H1 7156   2.230   6.101   6.382  0.2014 -0.0449  0.3720
 1609WAT     H2 7157   2.331   6.007   6.389  0.0061 -0.2115  1.0654
 1609WAT    EPW 7158   2.303   6.080   6.402  0.2931  0.0795  0.1760
 1610WAT      O 7159   1.367   3.152   4.727 -0.5771 -0.0300  0.0117
 1610WAT     H1 7160   1.313   3.190   4.784  2.5473  0.2580  3.1156
 1610WAT     H2 7161   1.363   3.067   4.748  1.9920  0.2668  2.2948
 1610WAT    EPW 7162   1.359   3.145   4.739  0.2640  0.0564  0.8075
 1611WAT      O 7163   5.246   1.063   5.165 -0.5348 -0.0243 -0.2970
 1611WAT     H1 7164   5.181   1.005   5.166 -1.5473  1.0606  0.6920
 1611WAT     H2 7165   5.248   1.090   5.082 -1.5216  0.1138 -0.2840
 1611WAT    EPW 7166   5.237   1.058   5.153 -0.8302  0.1564 -0.1490
 1612WAT      O 7167   4.272   1.253   6.224 -0.5716 -0.1030  0.4318
 1612WAT     H1 7168   4.350   1.285   6.247 -1.3541  1.9779  0.4000
 1612WAT     H2 7169   4.264   1.276   6.140 -0.5828 -1.7215 -0.0499
 1612WAT    EPW 7170   4.283   1.261   6.215 -0.6888 -0.0347  0.3560
 1613WAT      O 7171   1.044   4.206   0.342 -0.1520  0.5415  0.2700
 1613WAT     H1 7172   1.000   4.161   0.281  0.2896  0.0377  0.3145
 1613WAT     H2 7173   1.123   4.215   0.307 -0.6117  2.5783 -0.3726
 1613WAT    EPW 7174   1.049   4.201   0.328 -0.1547  0.7680  0.1817
 1614WAT      O 7175   3.567   3.835   4.503  0.6610 -0.0925 -0.2987
 1614WAT     H1 7176   3.526   3.911   4.491  0.3129 -0.5068 -1.9949
 1614WAT     H2 7177   3.633   3.838   4.446  2.7793  0.3308  1.9891
 1614WAT    EPW 7178   3.571   3.847   4.493  0.9225 -0.0912 -0.2113
 1615WAT      O 7179   3.740   5.935   2.204 -0.2571 -0.2526 -0.4551
 1615WAT     H1 7180   3.704   6.014   2.190  0.1759  0.2933  1.2579
 1615WAT     H2 7181   3.826   5.951   2.203 -0.1727 -0.5556  0.4620
 1615WAT    EPW 7182   3.747   5.949   2.202 -0.1807 -0.2167 -0.0666
 1616WAT      O 7183   3.774   2.541   5.719  0.0694 -0.5608  0.3718
 1616WAT     H1 7184   3.706   2.530   5.666  1.0360 -1.5109 -0.7329
 1616WAT     H2 7185   3.835   2.576   5.668  1.3605 -2.4453  0.5285
 1616WAT    EPW 7186   3.773   2.544   5.704  0.4029 -0.9795  0.2317
 1617WAT      O 7187   4.276   6.343   0.611 -0.4904 -0.7972  0.5536
 1617WAT     H1 7188   4.251   6.385   0.539  1.4369 -1.5791 -0.6531
 1617WAT     H2 7189   4.206   6.295   0.631 -0.6469 -1.6042 -1.6228
 1617WAT    EPW 7190   4.262   6.342   0.603 -0.2288 -1.0319  0.0539
 1618WAT      O 7191   2.107   4.219   6.020 -0.5118  0.0360  0.1952
 1618WAT     H1 7192   2.020   4.215   6.021 -0.6092  1.5856  0.9001
 1618WAT     H2 7193   2.124   4.304   6.010  0.9179 -0.1684  0.6314
 1618WAT    EPW 7194   2.096   4.231   6.019 -0.3150  0.2347  0.3638
 1619WAT      O 7195   1.915   5.460   0.123 -0.0810 -0.3224 -0.3705
 1619WAT     H1 7196   1.991   5.465   0.166 -0.1769  0.1361 -0.2509
 1619WAT     H2 7197   1.873   5.532   0.148 -0.5220 -0.5310 -0.5037
 1619WAT    EPW 7198   1.920   5.471   0.133 -0.1603 -0.2854 -0.3725
 1620WAT      O 7199   3.005   7.147   6.246  0.1534 -0.2521  0.0345
 1620WAT     H1 7200   2.954   7.201   6.201  1.0731  1.9864  1.5103
 1620WAT     H2 7201   3.037   7.093   6.185 -0.2078  1.3705 -1.6669
 1620WAT    EPW 7202   3.002   7.147   6.231  0.2359  0.3183  0.0012
 1621WAT      O 7203   5.214   2.673   3.843 -0.4239 -0.0515  0.5003
 1621WAT     H1 7204   5.287   2.639   3.876  1.5040  2.2024 -1.1088
 1621WAT     H2 7205   5.183   2.722   3.908  1.0835  1.1681  0.3484
 1621WAT    EPW 7206   5.220   2.675   3.857  0.0836  0.4616  0.2402
 1622WAT      O 7207   3.209   6.382   3.966 -0.6359 -0.2466 -1.1154
 1622WAT     H1 7208   3.168   6.342   4.032  0.1766 -0.7626 -0.9050
 1622WAT     H2 7209   3.212   6.466   3.992  1.1810 -0.7010  0.3413
 1622WAT    EPW 7210   3.204   6.389   3.980 -0.2475 -0.3900 -0.8692
 1623WAT      O 7211   0.271   3.614   6.625 -0.2360  0.5903  0.2592
 1623WAT     H1 7212   0.278   3.652   6.546  0.8407  0.5388  0.3233
 1623WAT     H2 7213   0.284   3.529   6.608 -0.0310  0.5766  0.4900
 1623WAT    EPW 7214   0.274   3.607   6.611 -0.0466  0.5807  0.3027
 1624WAT      O 7215   4.900   4.353   6.586  0.3169  0.7548  0.9045
 1624WAT     H1 7216   4.875   4.436   6.578 -3.6419 -0.1327  1.7925
 1624WAT     H2 7217   4.852   4.324   6.653 -0.2881 -2.7873 -0.8320
 1624WAT    EPW 7218   4.889   4.361   6.594 -0.3573  0.1004  0.7792
 1625WAT      O 7219   2.881   6.395   3.431  0.0162 -0.1809 -0.0593
 1625WAT     H1 7220   2.858   6.320   3.468 -0.8860 -0.0338 -0.2992
 1625WAT     H2 7221   2.859   6.385   3.347 -0.2043  0.3780 -0.0763
 1625WAT    EPW 7222   2.874   6.382   3.424 -0.1497 -0.0766 -0.0973
 1626WAT      O 7223   3.685   1.455   5.009  0.1262 -0.8674  0.3807
 1626WAT     H1 7224   3.752   1.499   4.975 -1.0364  0.8475  0.1559
 1626WAT     H2 7225   3.694   1.468   5.095  0.0702 -0.5671  0.3450
 1626WAT    EPW 7226   3.696   1.464   5.017 -0.0538 -0.5697  0.3422
 1627WAT      O 7227   4.231   5.978   7.280 -0.2801 -0.1281  0.4003
 1627WAT     H1 7228   4.245   6.063   7.268  0.3036 -0.3991 -0.9875
 1627WAT     H2 7229   4.249   5.943   7.203 -0.6644 -1.5054  0.9085
 1627WAT    EPW 7230   4.236   5.985   7.267 -0.2507 -0.3716  0.2704
 1628WAT      O 7231   1.244   4.896   3.980 -0.3963 -0.0165 -0.1157
 1628WAT     H1 7232   1.241   4.826   3.927  0.6042 -0.2860  0.1717
 1628WAT     H2 7233   1.325   4.926   3.970 -0.3843  0.2923  0.8119
 1628WAT    EPW 7234   1.256   4.890   3.970 -0.2467 -0.0107  0.0638
 1629WAT      O 7235   3.582   1.394   5.868  0.3317  0.1796 -0.0012
 1629WAT     H1 7236   3.647   1.434   5.826 -0.2273  0.6518 -0.4383
 1629WAT     H2 7237   3.511   1.415   5.822  0.0332 -1.5595 -0.4002
 1629WAT    EPW 7238   3.581   1.403   5.855  0.2050 -0.0076 -0.1247
 1630WAT      O 7239   2.955   6.447   5.025  0.3760 -0.2781  0.4714
 1630WAT     H1 7240   2.910   6.399   5.082  0.3403 -0.7312  0.0708
 1630WAT     H2 7241   3.016   6.486   5.074 -0.5330  0.4560  1.0484
 1630WAT    EPW 7242   2.957   6.446   5.040  0.2364 -0.2366  0.4974
 1631WAT      O 7243   1.562   6.646   0.686  0.0937 -0.4950  0.6112
 1631WAT     H1 7244   1.523   6.719   0.657 -0.5166 -0.9603  0.2502
 1631WAT     H2 7245   1.646   6.670   0.693  0.2482 -0.2807 -1.3442
 1631WAT    EPW 7246   1.569   6.661   0.683  0.0264 -0.5320  0.2690
 1632WAT      O 7247   1.442   3.464   0.738 -0.0944 -0.3909  0.1425
 1632WAT     H1 7248   1.390   3.529   0.764  0.3744  0.6636 -1.3759
 1632WAT     H2 7249   1.459   3.420   0.811  0.2303  1.7061  1.4112
 1632WAT    EPW 7250   1.437   3.467   0.752  0.0228  0.0747  0.1056
 1633WAT      O 7251   5.624   6.593   5.678  0.4262 -0.0547 -0.3413
 1633WAT     H1 7252   5.667   6.527   5.715  1.1641  0.2354 -0.6561
 1633WAT     H2 7253   5.638   6.580   5.593 -0.2229 -0.0202 -0.4596
 1633WAT    EPW 7254   5.632   6.581   5.671  0.4393 -0.0068 -0.4053
 1634WAT      O 7255   5.899   3.914   7.208 -0.2873 -0.7749  0.0523
 1634WAT     H1 7256   5.878   3.962   7.278  0.3987 -1.1526  0.5325
 1634WAT     H2 7257   5.823   3.906   7.165 -0.1071  2.5182 -1.2060
 1634WAT    EPW 7258   5.885   3.920   7.212 -0.1593 -0.3442 -0.0626
 1635WAT      O 7259   4.503   3.540   7.344 -0.1903  0.0330  0.3130
 1635WAT     H1 7260   4.575   3.538   7.295 -0.4460 -1.0888 -0.0421
 1635WAT     H2 7261   4.439   3.544   7.285 -0.5659 -2.5653  0.4390
 1635WAT    EPW 7262   4.504   3.541   7.328 -0.2836 -0.5166  0.2792
 1636WAT      O 7263   5.307   4.176   6.990 -0.4356 -0.0090 -0.1833
 1636WAT     H1 7264   5.290   4.240   7.047  0.5193 -0.5913  0.7762
 1636WAT     H2 7265   5.390   4.189   6.969  0.5263 -2.2149  1.7925
 1636WAT    EPW 7266   5.317   4.188   6.995 -0.1525 -0.4208  0.2503
 1637WAT      O 7267   5.245   5.042   5.790  0.3143  0.1081 -0.3958
 1637WAT     H1 7268   5.167   5.068   5.819  1.1201  0.6917  1.4188
 1637WAT     H2 7269   5.226   4.984   5.728 -1.5642 -0.3492  0.5370
 1637WAT    EPW 7270   5.230   5.037   5.785  0.1559  0.1268  0.0101
 1638WAT      O 7271   5.356   3.502   3.478 -0.2064  0.6349 -0.2815
 1638WAT     H1 7272   5.347   3.422   3.512  0.4149  0.8889  0.5123
 1638WAT     H2 7273   5.350   3.488   3.392 -1.8442 -0.0202 -0.0933
 1638WAT    EPW 7274   5.354   3.488   3.470 -0.3566  0.5757 -0.1365
 1639WAT      O 7275   5.786   4.385   3.106  0.0222  0.1563 -0.4182
 1639WAT     H1 7276   5.717   4.408   3.058  1.8454  2.9103 -1.9928
 1639WAT     H2 7277   5.823   4.461   3.126  2.0683 -1.1697  1.2453
 1639WAT    EPW 7278   5.781   4.399   3.102  0.5937  0.3673 -0.4051
 1640WAT      O 7279   4.480   5.683   7.390 -0.2898  0.1644  0.2642
 1640WAT     H1 7280   4.405   5.724   7.409  0.7038  2.2214  0.0776
 1640WAT     H2 7281   4.528   5.746   7.353  2.8768 -0.0031  3.5777
 1640WAT    EPW 7282   4.476   5.698   7.387  0.3247  0.4435  0.7261
 1641WAT      O 7283   0.383   6.644   0.870 -0.1582  0.6088  0.6080
 1641WAT     H1 7284   0.403   6.644   0.785  0.4046  0.9242  0.7429
 1641WAT     H2 7285   0.331   6.713   0.879  0.0718  0.7852  0.5872
 1641WAT    EPW 7286   0.378   6.654   0.859 -0.0411  0.6815  0.6249
 1642WAT      O 7287   2.268   2.705   4.648 -0.1593 -0.1979  0.6766
 1642WAT     H1 7288   2.331   2.645   4.653 -0.0511 -0.2320 -0.6870
 1642WAT     H2 7289   2.311   2.780   4.634 -0.3659 -0.0641  0.7459
 1642WAT    EPW 7290   2.284   2.707   4.646 -0.1738 -0.1832  0.4854
 1643WAT      O 7291   4.761   4.817   6.740 -0.4044  0.2256  0.1037
 1643WAT     H1 7292   4.719   4.842   6.667 -1.7868  1.1026  1.1546
 1643WAT     H2 7293   4.800   4.742   6.716 -1.3396  0.1654 -1.3574
 1643WAT    EPW 7294   4.761   4.810   6.726 -0.7468  0.3463  0.0431
 1644WAT      O 7295   6.402   4.983   0.085 -0.2610  0.8377  0.2187
 1644WAT     H1 7296   6.461   4.931   0.121 -0.3129  0.3535 -0.3884
 1644WAT     H2 7297   6.414   4.973  -0.001 -1.0250  0.9581  0.0874
 1644WAT    EPW 7298   6.413   4.974   0.078 -0.3815  0.7840  0.1096
 1645WAT      O 7299   5.684   7.110   5.949  0.1861 -0.2015  0.2200
 1645WAT     H1 7300   5.677   7.024   5.961  1.5730 -0.3635  0.0406
 1645WAT     H2 7301   5.602   7.136   5.937 -0.3215 -1.3935  0.9567
 1645WAT    EPW 7302   5.671   7.101   5.949  0.3160 -0.4015  0.3023
 1646WAT      O 7303   5.094   6.610   7.093  0.2335  0.2113 -0.3042
 1646WAT     H1 7304   5.160   6.630   7.039  1.3497  3.0501  1.8740
 1646WAT     H2 7305   5.132   6.564   7.157 -0.0353  1.1734  0.5631
 1646WAT    EPW 7306   5.109   6.606   7.094  0.3587  0.7728  0.1457
 1647WAT      O 7307   4.716   4.796   2.844  0.1615  0.2309 -0.5165
 1647WAT     H1 7308   4.640   4.821   2.878 -0.1545  0.4471 -1.3387
 1647WAT     H2 7309   4.771   4.795   2.912 -0.9445 -1.5589  0.4200
 1647WAT    EPW 7310   4.713   4.800   2.859 -0.0486 -0.0016 -0.4996
 1648WAT      O 7311   6.582   2.508   3.978 -0.1245 -0.1116  0.6417
 1648WAT     H1 7312   6.611   2.546   4.051 -1.1757  0.9048  0.5700
 1648WAT     H2 7313   6.509   2.553   3.960  0.3665 -0.0334 -1.3067
 1648WAT    EPW 7314   6.575   2.521   3.986 -0.2072  0.0501  0.3433
 1649WAT      O 7315   4.375   0.071   5.626 -0.1533 -0.4238  0.4102
 1649WAT     H1 7316   4.294   0.100   5.639  0.1176  0.8972 -0.6369
 1649WAT     H2 7317   4.425   0.141   5.641  0.5101 -0.1683 -2.4169
 1649WAT    EPW 7318   4.370   0.085   5.631 -0.0153 -0.1909 -0.1621
 1650WAT      O 7319   4.956   6.132   0.836 -0.0777  0.4832  0.5415
 1650WAT     H1 7320   5.008   6.137   0.767  0.5334 -0.7686  0.8837
 1650WAT     H2 7321   4.877   6.117   0.802 -0.0969  1.6490  0.0535
 1650WAT    EPW 7322   4.952   6.130   0.821  0.0098  0.4705  0.5200
 1651WAT      O 7323   1.734   5.441   6.358 -0.3278  0.4795  0.5760
 1651WAT     H1 7324   1.772   5.505   6.312  0.1461  0.2395  0.6283
 1651WAT     H2 7325   1.669   5.482   6.400  0.2050  1.0025  0.9076
 1651WAT    EPW 7326   1.730   5.457   6.357 -0.1791  0.5213  0.6327
 1652WAT      O 7327   1.562   6.478   6.024 -0.4993 -0.2786 -0.3187
 1652WAT     H1 7328   1.619   6.539   5.998  1.6608 -1.6592  0.8115
 1652WAT     H2 7329   1.546   6.433   5.951 -0.7108  0.5542 -0.7995
 1652WAT    EPW 7330   1.568   6.480   6.009 -0.2114 -0.3595 -0.2228
 1653WAT      O 7331   1.294   4.091   3.750  0.2658 -0.4109 -0.9716
 1653WAT     H1 7332   1.280   4.014   3.789 -1.9149  0.7955  0.8489
 1653WAT     H2 7333   1.348   4.133   3.804 -1.0477  0.4571 -0.2785
 1653WAT    EPW 7334   1.300   4.086   3.763 -0.2503 -0.1044 -0.6003
 1654WAT      O 7335   2.730   6.052   1.391  0.5250 -0.2381  0.5664
 1654WAT     H1 7336   2.792   5.995   1.415 -0.2174 -1.3456 -0.0711
 1654WAT     H2 7337   2.713   6.097   1.464 -0.1538 -2.0627  1.5772
 1654WAT    EPW 7338   2.737   6.050   1.405  0.3150 -0.6712  0.6215
 1655WAT      O 7339   2.991   5.622   6.316  0.4309 -0.3923  0.1372
 1655WAT     H1 7340   2.907   5.614   6.336  0.9086 -0.3263  2.4521
 1655WAT     H2 7341   3.032   5.601   6.390  2.4421 -0.0259 -0.7982
 1655WAT    EPW 7342   2.985   5.618   6.330  0.7986 -0.3284  0.3410
 1656WAT      O 7343   7.248   3.243   0.148 -0.1328 -0.5288 -0.4879
 1656WAT     H1 7344   7.311   3.258   0.089 -0.5594 -0.9731 -1.0700
 1656WAT     H2 7345   7.180   3.287   0.117 -0.1735 -0.2100  0.0384
 1656WAT    EPW 7346   7.247   3.251   0.135 -0.2018 -0.5474 -0.4962
 1657WAT      O 7347   0.554   6.736   5.904 -0.4358 -0.3554 -0.3975
 1657WAT     H1 7348   0.524   6.808   5.865  0.3156  1.1520  1.6194
 1657WAT     H2 7349   0.489   6.712   5.956 -0.3298 -0.5784 -0.3687
 1657WAT    EPW 7350   0.540   6.743   5.906 -0.3091 -0.1656 -0.0953
 1658WAT      O 7351   2.431   6.221   2.268 -0.1562  0.1631 -0.5205
 1658WAT     H1 7352   2.445   6.284   2.210 -0.6758  0.8077  0.0467
 1658WAT     H2 7353   2.507   6.177   2.268  0.3071  0.9377 -0.7221
 1658WAT    EPW 7354   2.444   6.224   2.259 -0.1645  0.3727 -0.4665
 1659WAT      O 7355   4.439   0.395   2.275 -0.2411 -0.5924 -0.0796
 1659WAT     H1 7356   4.500   0.453   2.296 -0.9240 -0.0831  0.5183
 1659WAT     H2 7357   4.485   0.322   2.259  0.6172  0.0807 -0.7864
 1659WAT    EPW 7358   4.455   0.393   2.276 -0.2152 -0.4177 -0.0957
 1660WAT      O 7359   6.658   0.451   4.210  0.2978  0.3091 -0.0196
 1660WAT     H1 7360   6.695   0.485   4.139  0.3881 -0.2655 -0.2578
 1660WAT     H2 7361   6.624   0.520   4.251 -0.5464  0.5449 -1.0799
 1660WAT    EPW 7362   6.659   0.466   4.205  0.1864  0.2591 -0.2114
 1661WAT      O 7363   2.072   6.182   6.326  0.2632 -0.6772 -0.4283
 1661WAT     H1 7364   2.040   6.216   6.400  0.0593  3.6066 -2.2039
 1661WAT     H2 7365   2.003   6.140   6.292 -1.8710  2.9172 -1.1216
 1661WAT    EPW 7366   2.057   6.181   6.332 -0.0822  0.4866 -0.7930
 1662WAT      O 7367   0.070   1.157   1.998  0.5541  0.1455  0.3524
 1662WAT     H1 7368   0.069   1.181   2.082  0.4689 -0.9414  0.6891
 1662WAT     H2 7369   0.099   1.227   1.956 -1.1089  1.3379  1.0795
 1662WAT    EPW 7370   0.074   1.171   2.004  0.2958  0.1611  0.5096
 1663WAT      O 7371   7.256   6.395   5.950 -0.3840  0.0202 -0.0753
 1663WAT     H1 7372   7.231   6.330   5.898 -1.1336  0.8161 -0.7348
 1663WAT     H2 7373   7.308   6.443   5.900  1.4752 -0.8733  0.8755
 1663WAT    EPW 7374   7.260   6.393   5.935 -0.2201  0.0058 -0.0323
 1664WAT      O 7375   2.768   6.660   3.387 -0.0111 -0.3218 -0.3667
 1664WAT     H1 7376   2.835   6.606   3.373 -0.5335 -0.7518 -1.3027
 1664WAT     H2 7377   2.733   6.630   3.461  0.9118 -0.0004  0.2122
 1664WAT    EPW 7378   2.773   6.647   3.396  0.0481 -0.3378 -0.4195
 1665WAT      O 7379   2.829   0.428   1.554  0.1898  0.3616 -0.3050
 1665WAT     H1 7380   2.902   0.474   1.541 -0.5299  1.2143 -1.6386
 1665WAT     H2 7381   2.801   0.455   1.632  0.5414  1.1253 -0.4347
 1665WAT    EPW 7382   2.836   0.439   1.564  0.1354  0.6004 -0.5212
 1666WAT      O 7383   1.651   0.891   4.586 -0.2668  0.2206 -0.3283
 1666WAT     H1 7384   1.664   0.805   4.576  1.8093  0.1380  2.0870
 1666WAT     H2 7385   1.573   0.896   4.624 -1.6023 -0.3098 -2.7591
 1666WAT    EPW 7386   1.641   0.879   4.590 -0.1574  0.1300 -0.3306
 1667WAT      O 7387   4.139   4.432   3.164 -0.3601  0.2388 -0.2274
 1667WAT     H1 7388   4.154   4.375   3.229 -0.8883  0.6604  0.2758
 1667WAT     H2 7389   4.161   4.387   3.092 -1.4297 -0.8520  0.1000
 1667WAT    EPW 7390   4.145   4.417   3.163 -0.5961  0.1400 -0.1047
 1668WAT      O 7391   1.324   4.383   6.589 -0.7136  0.0615  0.5957
 1668WAT     H1 7392   1.269   4.318   6.568  2.1843 -2.4655  0.1890
 1668WAT     H2 7393   1.353   4.360   6.668 -0.4271  1.4810  0.9163
 1668WAT    EPW 7394   1.320   4.370   6.597 -0.2432 -0.1021  0.5829
 1669WAT      O 7395   1.472   1.300   4.106  0.1807  0.4157  0.3464
 1669WAT     H1 7396   1.413   1.315   4.168  0.0953  0.0071  0.3697
 1669WAT     H2 7397   1.442   1.228   4.067 -0.0740  0.9935 -0.5430
 1669WAT    EPW 7398   1.459   1.291   4.109  0.1305  0.4407  0.2185
 1670WAT      O 7399   4.260   2.310   4.903  0.3779 -0.6086  0.0971
 1670WAT     H1 7400   4.233   2.298   4.985 -1.5636 -1.6034 -0.6305
 1670WAT     H2 7401   4.346   2.324   4.912 -0.0831  1.2566  2.4244
 1670WAT    EPW 7402   4.269   2.310   4.916  0.0230 -0.4801  0.3334
 1671WAT      O 7403   1.409   2.646   7.011 -0.5630  0.2469 -0.3565
 1671WAT     H1 7404   1.403   2.604   6.935  1.4138 -0.4728 -0.1721
 1671WAT     H2 7405   1.391   2.584   7.070  0.1993  0.2019 -0.1639
 1671WAT    EPW 7406   1.405   2.631   7.009 -0.1584  0.1340 -0.3008
 1672WAT      O 7407   4.948   6.144   3.706  0.1259  0.1166 -0.3764
 1672WAT     H1 7408   4.973   6.135   3.622 -1.6388 -0.6206 -0.8628
 1672WAT     H2 7409   4.868   6.177   3.700  0.4029  1.1247  1.0833
 1672WAT    EPW 7410   4.940   6.148   3.692 -0.0938  0.1566 -0.2327
 1673WAT      O 7411   3.389   2.035   0.072 -0.0244  0.4900  0.3819
 1673WAT     H1 7412   3.386   2.111   0.029 -0.0314  0.6351  0.6361
 1673WAT     H2 7413   3.474   2.014   0.068  0.4817  1.8199  2.5472
 1673WAT    EPW 7414   3.401   2.043   0.065  0.0494  0.7079  0.7393
 1674WAT      O 7415   2.482   1.555   0.656  0.2295  0.1469 -0.3795
 1674WAT     H1 7416   2.411   1.533   0.702 -0.0068  0.8712 -0.3748
 1674WAT     H2 7417   2.530   1.599   0.714 -0.2343  1.3864 -0.8977
 1674WAT    EPW 7418   2.479   1.558   0.671  0.1260  0.4370 -0.4553
 1675WAT      O 7419   4.364   5.883   4.036  0.0246 -0.5556  0.5049
 1675WAT     H1 7420   4.449   5.870   4.050 -0.2666 -2.0141  1.1632
 1675WAT     H2 7421   4.332   5.901   4.115  0.0741  2.7632 -0.0861
 1675WAT    EPW 7422   4.372   5.883   4.050 -0.0111 -0.2808  0.5148
 1676WAT      O 7423   3.822   1.989   5.756  0.5206  0.2520 -0.3845
 1676WAT     H1 7424   3.799   1.923   5.703  0.0948 -0.4134  0.5710
 1676WAT     H2 7425   3.778   2.057   5.724 -0.5868 -0.3751 -0.2739
 1676WAT    EPW 7426   3.812   1.989   5.744  0.2941  0.0611 -0.2270
 1677WAT      O 7427   3.864   6.207   1.933 -0.2229 -0.1522 -0.1706
 1677WAT     H1 7428   3.937   6.165   1.908  0.5785 -0.2545  2.0861
 1677WAT     H2 7429   3.878   6.289   1.909 -1.0268 -0.7514 -3.0317
 1677WAT    EPW 7430   3.877   6.213   1.926 -0.2233 -0.2558 -0.2599
 1678WAT      O 7431   6.099   1.724   6.097 -1.0337  0.6796  0.0374
 1678WAT     H1 7432   6.182   1.708   6.075 -0.7058  0.7608  1.1358
 1678WAT     H2 7433   6.067   1.766   6.027 -0.5469 -0.5190 -0.9308
 1678WAT    EPW 7434   6.106   1.728   6.084 -0.9133  0.5145  0.0566
 1679WAT      O 7435   2.205   2.225   2.177 -0.7924 -0.0442  0.1393
 1679WAT     H1 7436   2.287   2.228   2.206 -1.3566 -0.1930  1.8708
 1679WAT     H2 7437   2.209   2.265   2.100  1.1005 -1.0059 -0.3448
 1679WAT    EPW 7438   2.218   2.231   2.170 -0.5961 -0.2082  0.3236
 1680WAT      O 7439   0.255   6.657   3.625 -0.2297 -0.1541  0.5756
 1680WAT     H1 7440   0.206   6.612   3.569 -0.6787 -0.0264  0.8663
 1680WAT     H2 7441   0.231   6.740   3.611 -1.0933 -0.1972  1.6648
 1680WAT    EPW 7442   0.244   6.662   3.615 -0.4236 -0.1416  0.7795
 1681WAT      O 7443   3.482   6.844   5.454  0.0241 -0.0259  0.0728
 1681WAT     H1 7444   3.445   6.878   5.525  0.3943  1.6263 -0.4628
 1681WAT     H2 7445   3.442   6.767   5.444  0.2066 -0.4607  2.2365
 1681WAT    EPW 7446   3.471   6.838   5.463  0.1058  0.1539  0.3133
 1682WAT      O 7447   6.660   3.658   2.869 -0.2479 -0.3996 -0.3713
 1682WAT     H1 7448   6.707   3.639   2.799  0.4049  1.4536 -0.4777
 1682WAT     H2 7449   6.703   3.724   2.906 -2.0452  0.4936  0.2523
 1682WAT    EPW 7450   6.673   3.665   2.864 -0.4170  0.0061 -0.2949
 1683WAT      O 7451   4.151   5.414   2.598 -0.2420 -0.6749 -0.3489
 1683WAT     H1 7452   4.139   5.327   2.600  2.9368 -1.2142  0.7232
 1683WAT     H2 7453   4.238   5.422   2.596 -0.4517  2.5190 -1.3288
 1683WAT    EPW 7454   4.162   5.402   2.598  0.1966 -0.2828 -0.3352
 1684WAT      O 7455   2.355   0.184   0.687  0.1977  1.0969 -0.4446
 1684WAT     H1 7456   2.309   0.198   0.760 -0.0266 -0.8795 -0.1634
 1684WAT     H2 7457   2.293   0.182   0.625  0.1996  1.0474 -0.4446
 1684WAT    EPW 7458   2.339   0.186   0.688  0.1649  0.7976 -0.4031
 1685WAT      O 7459   2.687   1.490   3.331  0.2906  0.1668 -0.5017
 1685WAT     H1 7460   2.772   1.478   3.316  0.9517  1.3721  1.8974
 1685WAT     H2 7461   2.672   1.443   3.403 -0.7099  1.2107 -0.0058
 1685WAT    EPW 7462   2.697   1.481   3.339  0.2405  0.4990 -0.0740
 1686WAT      O 7463   5.130   5.810   6.564  0.2996 -0.0034  0.2069
 1686WAT     H1 7464   5.048   5.786   6.550 -0.4060  1.3216  1.7025
 1686WAT     H2 7465   5.177   5.741   6.540 -1.1479 -0.3889 -1.7235
 1686WAT    EPW 7466   5.125   5.797   6.558 -0.0185  0.1354  0.1427
 1687WAT      O 7467   0.145   5.123   3.237 -0.4355 -0.2034  0.7758
 1687WAT     H1 7468   0.213   5.146   3.287  0.9730 -0.6613 -0.8102
 1687WAT     H2 7469   0.138   5.189   3.181  0.1893 -1.1346 -0.4588
 1687WAT    EPW 7470   0.154   5.136   3.236 -0.1351 -0.4086  0.3591
 1688WAT      O 7471   0.618   1.271   7.019 -0.3269  0.4204  0.0931
 1688WAT     H1 7472   0.666   1.335   7.054  0.1571 -0.0061  0.2131
 1688WAT     H2 7473   0.659   1.199   7.044 -1.0912  0.0456  0.2805
 1688WAT    EPW 7474   0.631   1.270   7.028 -0.3683  0.3020  0.1385
 1689WAT      O 7475   1.935   2.284   6.816  0.2856 -0.3600  0.1040
 1689WAT     H1 7476   1.962   2.275   6.734 -2.0666 -0.2573 -0.7495
 1689WAT     H2 7477   1.912   2.204   6.840 -0.5594 -0.1222  0.0911
 1689WAT    EPW 7478   1.936   2.271   6.807 -0.1867 -0.3097 -0.0240
 1690WAT      O 7479   1.820   1.036   7.073  0.1742 -0.4124  0.0341
 1690WAT     H1 7480   1.846   1.117   7.052  2.5912 -0.2875  2.7974
 1690WAT     H2 7481   1.734   1.044   7.082  0.3962  2.0478  0.7926
 1690WAT    EPW 7482   1.811   1.049   7.071  0.5640 -0.0305  0.5544
 1691WAT      O 7483   5.093   6.588   5.756 -0.3199 -1.1632  0.1062
 1691WAT     H1 7484   5.061   6.659   5.718  0.9676 -1.1816 -1.0997
 1691WAT     H2 7485   5.177   6.608   5.770  0.0571 -2.4153 -0.2007
 1691WAT    EPW 7486   5.101   6.601   5.752 -0.0740 -1.3509 -0.1172
 1692WAT      O 7487   1.139   2.825   1.496  0.3579  0.1578 -0.3944
 1692WAT     H1 7488   1.116   2.789   1.420  0.9933 -0.3253 -0.3683
 1692WAT     H2 7489   1.209   2.873   1.475  0.7233 -0.2257 -0.0590
 1692WAT    EPW 7490   1.146   2.827   1.482  0.5057  0.0298 -0.3410
 1693WAT      O 7491   0.453   5.754   6.363 -0.7041 -0.2992 -0.5582
 1693WAT     H1 7492   0.498   5.680   6.356 -0.8257 -0.3477 -0.8555
 1693WAT     H2 7493   0.472   5.783   6.443 -1.3194 -1.0815 -0.1130
 1693WAT    EPW 7494   0.463   5.748   6.373 -0.8130 -0.4220 -0.5363
 1694WAT      O 7495   5.313   4.068   2.816  0.2759 -0.3865  0.1256
 1694WAT     H1 7496   5.292   4.002   2.764  0.5699  0.2119 -0.7841
 1694WAT     H2 7497   5.279   4.046   2.893 -1.2187 -0.7411 -0.6028
 1694WAT    EPW 7498   5.305   4.055   2.820  0.0985 -0.3505 -0.1163
 1695WAT      O 7499   2.215   0.726   5.010  0.1984 -0.8314 -0.6474
 1695WAT     H1 7500   2.141   0.681   5.012  1.0503 -2.2841 -0.4721
 1695WAT     H2 7501   2.277   0.664   5.010  1.4119  0.3298 -0.9262
 1695WAT    EPW 7502   2.213   0.710   5.010  0.5035 -0.8745 -0.6627
 1696WAT      O 7503   2.557   2.334   4.445  1.1760  0.3009 -0.2188
 1696WAT     H1 7504   2.534   2.398   4.390 -0.1606 -0.3200 -0.4387
 1696WAT     H2 7505   2.584   2.270   4.392 -1.3364 -0.7871 -0.3399
 1696WAT    EPW 7506   2.557   2.334   4.429  0.6074  0.0485 -0.2691
 1697WAT      O 7507   3.690   5.938   3.258 -0.2005 -0.0708  0.2149
 1697WAT     H1 7508   3.644   5.918   3.330 -0.3306 -0.0192  0.1462
 1697WAT     H2 7509   3.721   5.860   3.231  0.7946  0.0416  0.9622
 1697WAT    EPW 7510   3.688   5.923   3.265 -0.0727 -0.0466  0.3151
 1698WAT      O 7511   0.273   6.888   0.876 -0.4695 -0.3399  0.0418
 1698WAT     H1 7512   0.309   6.903   0.798  0.2424 -1.3431  0.1698
 1698WAT     H2 7513   0.325   6.930   0.931 -0.5904 -0.1933  0.0448
 1698WAT    EPW 7514   0.286   6.896   0.872 -0.3822 -0.4664  0.0612
 1699WAT      O 7515   7.266   6.843   0.379  0.6334 -0.3006  0.5402
 1699WAT     H1 7516   7.319   6.832   0.448  0.7631 -2.4804  0.1693
 1699WAT     H2 7517   7.319   6.870   0.316  0.7191  0.6040  0.9962
 1699WAT    EPW 7518   7.282   6.845   0.380  0.6652 -0.4890  0.5527
 1700WAT      O 7519   6.893   3.285   5.748 -0.4432  0.0516 -0.2086
 1700WAT     H1 7520   6.877   3.368   5.768  0.3558  0.1242  0.1865
 1700WAT     H2 7521   6.978   3.285   5.727  0.2838 -1.1074  2.3903
 1700WAT    EPW 7522   6.903   3.297   5.748 -0.2178 -0.1089  0.2337
 1701WAT      O 7523   2.423   3.633   5.950  0.4852 -0.3474 -0.4579
 1701WAT     H1 7524   2.440   3.650   6.034  1.5038 -1.4112 -0.4165
 1701WAT     H2 7525   2.433   3.711   5.911  1.2099 -0.0696  0.2376
 1701WAT    EPW 7526   2.427   3.647   5.957  0.7427 -0.4635 -0.3491
 1702WAT      O 7527   0.602   1.655   5.182  0.2920 -0.0332  0.3866
 1702WAT     H1 7528   0.664   1.689   5.129  0.4876 -0.9105  0.0328
 1702WAT     H2 7529   0.533   1.706   5.168 -0.4211 -1.5292 -2.5174
 1702WAT    EPW 7530   0.601   1.668   5.172  0.2156 -0.3838 -0.0946
 1703WAT      O 7531   0.291   4.202   6.298 -0.0244 -0.0320  0.1584
 1703WAT     H1 7532   0.265   4.208   6.381 -0.3046 -0.5041  0.1059
 1703WAT     H2 7533   0.240   4.258   6.256 -0.9399 -0.9051  0.0669
 1703WAT    EPW 7534   0.280   4.211   6.304 -0.2010 -0.2307  0.1371
 1704WAT      O 7535   5.925   1.717   2.263 -0.3501 -0.8763 -0.0087
 1704WAT     H1 7536   5.905   1.696   2.345  0.9422  0.2684  0.6391
 1704WAT     H2 7537   5.900   1.800   2.257  0.3367 -0.6992 -0.4971
 1704WAT    EPW 7538   5.918   1.726   2.274 -0.0577 -0.6810  0.0149
 1705WAT      O 7539   0.705   1.336   7.312  0.6111  0.3750 -0.3880
 1705WAT     H1 7540   0.757   1.363   7.375  1.1037 -0.1057 -0.5814
 1705WAT     H2 7541   0.760   1.305   7.251  0.1040 -0.4715 -0.4376
 1705WAT    EPW 7542   0.720   1.335   7.312  0.6089  0.1790 -0.4239
 1706WAT      O 7543   6.731   1.698   3.520  0.1552 -0.1590 -0.1727
 1706WAT     H1 7544   6.671   1.667   3.464  1.5779 -2.8444 -0.3918
 1706WAT     H2 7545   6.696   1.682   3.598  0.8197 -2.4723 -0.2820
 1706WAT    EPW 7546   6.717   1.691   3.523  0.4635 -0.8974 -0.2212
 1707WAT      O 7547   6.946   2.788   6.347 -0.2306 -0.0916 -0.2097
 1707WAT     H1 7548   6.981   2.792   6.267  0.3489  1.3657  0.0934
 1707WAT     H2 7549   6.875   2.738   6.336 -0.2965  0.2847 -1.6838
 1707WAT    EPW 7550   6.941   2.781   6.334 -0.1547  0.1793 -0.3827
 1708WAT      O 7551   4.292   6.125   1.373  0.4443  0.3973  0.0212
 1708WAT     H1 7552   4.309   6.208   1.395 -0.1764  0.7332 -0.7330
 1708WAT     H2 7553   4.212   6.112   1.406 -1.2748  1.4529 -3.2788
 1708WAT    EPW 7554   4.282   6.136   1.381  0.0987  0.6028 -0.5777
 1709WAT      O 7555   7.179   0.863   5.111 -0.4580  0.2659 -0.5883
 1709WAT     H1 7556   7.122   0.928   5.122 -0.8483 -0.0205 -0.8680
 1709WAT     H2 7557   7.134   0.805   5.064 -0.4158 -0.5818  0.3788
 1709WAT    EPW 7558   7.164   0.864   5.106 -0.5094  0.0983 -0.4867
 1710WAT      O 7559   1.310   2.067   6.610 -0.5293 -0.4679  0.4053
 1710WAT     H1 7560   1.387   2.108   6.614  0.1778 -1.7847  0.8278
 1710WAT     H2 7561   1.253   2.128   6.635  0.6762 -0.1639  2.6562
 1710WAT    EPW 7562   1.313   2.082   6.614 -0.2468 -0.6175  0.8002
 1711WAT      O 7563   2.036   1.609   7.117  0.1858 -0.2302  0.5518
 1711WAT     H1 7564   2.051   1.600   7.032 -0.0202 -0.5451  0.5454
 1711WAT     H2 7565   2.112   1.587   7.154 -0.0343 -1.1364  0.4921
 1711WAT    EPW 7566   2.049   1.605   7.110  0.1229 -0.4105  0.5420
 1712WAT      O 7567   4.534   1.239   2.295 -0.3105  0.2302 -0.5513
 1712WAT     H1 7568   4.513   1.155   2.284  1.5910 -0.1629 -1.6100
 1712WAT     H2 7569   4.480   1.281   2.240 -1.3527 -0.2683  0.0691
 1712WAT    EPW 7570   4.523   1.233   2.285 -0.1836  0.0985 -0.6161
 1713WAT      O 7571   4.300   6.240   0.140  0.3522 -0.1887  0.4359
 1713WAT     H1 7572   4.276   6.269   0.218  2.1766 -1.1819  1.4327
 1713WAT     H2 7573   4.234   6.188   0.117 -0.3707  0.3881  1.1336
 1713WAT    EPW 7574   4.287   6.236   0.148  0.5149 -0.2502  0.6862
 1714WAT      O 7575   1.960   0.635   5.103  0.1128 -0.1782  0.0126
 1714WAT     H1 7576   1.913   0.695   5.146 -0.3974  0.4936 -1.3977
 1714WAT     H2 7577   1.900   0.593   5.055  0.6358 -1.0034  0.0690
 1714WAT    EPW 7578   1.944   0.638   5.102  0.1147 -0.2009 -0.1874
 1715WAT      O 7579   3.280   2.134   1.778 -0.3552 -0.2782 -0.5937
 1715WAT     H1 7580   3.280   2.137   1.865 -0.5671  2.1407 -0.6255
 1715WAT     H2 7581   3.195   2.135   1.756 -0.4589 -3.6184 -0.8877
 1715WAT    EPW 7582   3.267   2.134   1.787 -0.4018 -0.4143 -0.6418
 1716WAT      O 7583   1.266   2.445   5.915  0.2995  0.3535 -0.0862
 1716WAT     H1 7584   1.281   2.456   6.000  0.7720 -0.6159 -0.0250
 1716WAT     H2 7585   1.180   2.457   5.908 -0.6064 -3.5725  1.3092
 1716WAT    EPW 7586   1.256   2.448   5.927  0.2355 -0.3696  0.1290
 1717WAT      O 7587   1.328   1.762   5.264 -0.3921  0.2549 -0.1389
 1717WAT     H1 7588   1.344   1.711   5.195 -1.3417  1.3087 -1.1697
 1717WAT     H2 7589   1.406   1.766   5.304  0.7212  1.1922 -2.2368
 1717WAT    EPW 7590   1.342   1.755   5.260 -0.3679  0.5490 -0.6011
 1718WAT      O 7591   4.388   2.524   3.306  0.0357  0.2231  0.1235
 1718WAT     H1 7592   4.308   2.490   3.303 -0.3057  0.8510  1.6639
 1718WAT     H2 7593   4.397   2.562   3.228 -1.3155  0.4801  0.0694
 1718WAT    EPW 7594   4.378   2.524   3.294 -0.2143  0.3538  0.3430
 1719WAT      O 7595   1.671   0.052   0.687  0.0713 -0.0554 -0.5608
 1719WAT     H1 7596   1.719  -0.011   0.723 -1.9246 -0.3067  1.9228
 1719WAT     H2 7597   1.730   0.115   0.670  1.5635 -1.1151  0.4131
 1719WAT    EPW 7598   1.687   0.052   0.690 -0.0031 -0.2490 -0.0500
 1720WAT      O 7599   3.928   4.352   0.329 -0.2339  0.3894 -0.0755
 1720WAT     H1 7600   3.986   4.325   0.388  0.0514 -0.8843 -0.9045
 1720WAT     H2 7601   3.974   4.408   0.280 -0.3610  1.1373  0.6319
 1720WAT    EPW 7602   3.943   4.357   0.331 -0.2105  0.3117 -0.0935
 1721WAT      O 7603   4.177   3.932   5.269 -0.0747 -0.1384  0.1754
 1721WAT     H1 7604   4.095   3.907   5.252 -0.3027 -1.8393  3.1115
 1721WAT     H2 7605   4.220   3.911   5.196 -2.1979  0.8993 -1.4755
 1721WAT    EPW 7606   4.171   3.925   5.255 -0.4220 -0.2364  0.3653
 1722WAT      O 7607   5.143   3.116   0.667  0.3517 -0.5822  0.1840
 1722WAT     H1 7608   5.163   3.141   0.748  0.0929  1.2419 -0.2816
 1722WAT     H2 7609   5.163   3.185   0.618 -1.7261 -0.7399 -1.0080
 1722WAT    EPW 7610   5.149   3.130   0.672  0.0065 -0.3360 -0.0608
 1723WAT      O 7611   0.648   6.232   6.343  0.3229  0.1993 -0.2473
 1723WAT     H1 7612   0.649   6.276   6.268  1.0284  0.8649  0.1385
 1723WAT     H2 7613   0.732   6.228   6.366 -0.0028  1.5510  1.3671
 1723WAT    EPW 7614   0.660   6.238   6.336  0.3790  0.4973  0.0482
 1724WAT      O 7615   0.540   0.397   3.934  0.4328  0.4756 -0.2136
 1724WAT     H1 7616   0.580   0.434   3.865 -0.3901 -0.0310 -0.9852
 1724WAT     H2 7617   0.521   0.465   3.985  0.0603  0.9934 -1.0157
 1724WAT    EPW 7618   0.543   0.412   3.931  0.2562  0.4773 -0.4461
 1725WAT      O 7619   0.175   1.340   0.966  0.2750  0.2917 -0.1895
 1725WAT     H1 7620   0.199   1.257   0.979  0.2243  0.1901 -0.7515
 1725WAT     H2 7621   0.096   1.333   0.930 -0.0438  0.5997  0.4337
 1725WAT    EPW 7622   0.167   1.326   0.963  0.2204  0.3222 -0.1805
 1726WAT      O 7623   6.530   5.596   1.161  0.1914 -0.6943 -0.8212
 1726WAT     H1 7624   6.521   5.532   1.102 -2.6128 -0.0313 -1.2507
 1726WAT     H2 7625   6.456   5.593   1.207  1.2827  0.3562  1.1556
 1726WAT    EPW 7626   6.517   5.586   1.159 -0.0616 -0.4412 -0.5926
 1727WAT      O 7627   1.206   0.198   2.672  0.3940 -0.5917 -0.1554
 1727WAT     H1 7628   1.262   0.258   2.643 -1.3652  2.0633  1.4975
 1727WAT     H2 7629   1.187   0.151   2.601  1.3287  1.2613 -1.7107
 1727WAT    EPW 7630   1.211   0.200   2.657  0.2722  0.0742 -0.1410
 1728WAT      O 7631   2.414   7.183   3.146 -0.5883 -0.0833  0.3229
 1728WAT     H1 7632   2.411   7.099   3.125 -2.0818 -0.0949  0.5011
 1728WAT     H2 7633   2.378   7.223   3.078 -0.0077  0.4127  0.2934
 1728WAT    EPW 7634   2.408   7.177   3.133 -0.7231 -0.0117  0.3449
 1729WAT      O 7635   2.495   3.334   7.023  0.4260  0.2125 -0.0990
 1729WAT     H1 7636   2.522   3.301   6.947 -0.6728 -0.6332 -0.1478
 1729WAT     H2 7637   2.545   3.292   7.082 -0.3817 -0.9631 -0.2162
 1729WAT    EPW 7638   2.506   3.323   7.021  0.1444 -0.0861 -0.1235
 1730WAT      O 7639   5.986   0.214   5.383 -0.4057 -0.0614 -0.0606
 1730WAT     H1 7640   5.958   0.134   5.405  0.1865 -0.4184 -0.5879
 1730WAT     H2 7641   6.042   0.200   5.318 -1.2152  0.8882 -1.0079
 1730WAT    EPW 7642   5.990   0.200   5.377 -0.4378  0.0262 -0.2784
 1731WAT      O 7643   6.854   6.095   4.041 -0.6645 -0.1195 -0.0765
 1731WAT     H1 7644   6.930   6.077   4.001 -1.8381 -2.9484 -1.2751
 1731WAT     H2 7645   6.805   6.130   3.978 -0.6857  0.8633  0.4639
 1731WAT    EPW 7646   6.858   6.098   4.026 -0.8410 -0.3922 -0.1737
 1732WAT      O 7647   5.700   3.374   0.592 -0.1771  0.3101 -0.2602
 1732WAT     H1 7648   5.636   3.317   0.607 -0.3934  0.7141  0.3657
 1732WAT     H2 7649   5.658   3.445   0.564  0.1147  0.0546 -1.4306
 1732WAT    EPW 7650   5.685   3.376   0.590 -0.1659  0.3321 -0.3407
 1733WAT      O 7651   4.583   4.295   3.945 -0.2790 -0.2689 -0.2016
 1733WAT     H1 7652   4.563   4.216   3.914 -1.7699 -0.4594  1.1355
 1733WAT     H2 7653   4.645   4.279   4.004 -1.2321 -0.5808  0.7367
 1733WAT    EPW 7654   4.589   4.281   3.949 -0.6400 -0.3431  0.1345
 1734WAT      O 7655   0.187   6.940   5.350  0.1300  0.4790 -0.5565
 1734WAT     H1 7656   0.118   6.981   5.316 -0.0470  1.2507  0.6247
 1734WAT     H2 7657   0.255   6.983   5.316 -0.0472  1.4469  0.2603
 1734WAT    EPW 7658   0.187   6.953   5.340  0.0777  0.7360 -0.2613
 1735WAT      O 7659   6.308   0.059   2.116  0.0682 -0.0511  0.2864
 1735WAT     H1 7660   6.257   0.065   2.186  0.0464  1.0242  0.1838
 1735WAT     H2 7661   6.260   0.094   2.052  0.4047 -0.2772 -0.0941
 1735WAT    EPW 7662   6.293   0.065   2.117  0.1147  0.0743  0.2150
 1736WAT      O 7663   7.104   4.553   0.467  0.5131 -0.1992  0.2794
 1736WAT     H1 7664   7.126   4.541   0.384 -0.0572 -0.3957  0.1513
 1736WAT     H2 7665   7.053   4.484   0.485  0.8508 -0.2997  0.8685
 1736WAT    EPW 7666   7.100   4.541   0.458  0.4787 -0.2431  0.3475
 1737WAT      O 7667   4.849   6.213   6.887  0.8257  0.5247  0.3687
 1737WAT     H1 7668   4.868   6.171   6.813  2.8013  0.3142  0.9313
 1737WAT     H2 7669   4.882   6.293   6.874  0.7745  0.6286  0.8505
 1737WAT    EPW 7670   4.857   6.219   6.874  1.1100  0.5089  0.5230
 1738WAT      O 7671   2.227   1.566   1.081 -0.2263 -0.7416  0.0642
 1738WAT     H1 7672   2.299   1.519   1.062 -0.8917 -2.0987  0.7872
 1738WAT     H2 7673   2.168   1.505   1.100 -1.8127  0.3274 -1.2414
 1738WAT    EPW 7674   2.229   1.550   1.081 -0.5589 -0.7842 -0.0219
 1739WAT      O 7675   6.015   3.836   3.079 -0.0386  0.1635  0.5170
 1739WAT     H1 7676   6.073   3.900   3.066 -1.6127  1.5100 -0.2895
 1739WAT     H2 7677   5.955   3.874   3.130 -0.9118 -0.7293  0.1672
 1739WAT    EPW 7678   6.015   3.851   3.085 -0.4001  0.2305  0.3462
 1740WAT      O 7679   2.647   1.039   3.271  0.1818  0.6040  0.1580
 1740WAT     H1 7680   2.614   0.989   3.335  1.5390  1.1562  1.3364
 1740WAT     H2 7681   2.584   1.038   3.211 -0.7344 -0.7545  1.0633
 1740WAT    EPW 7682   2.633   1.031   3.272  0.2469  0.4849  0.4658
 1741WAT      O 7683   0.689   2.798   7.224 -0.0559  0.2776  0.1807
 1741WAT     H1 7684   0.651   2.783   7.147  0.8290 -3.9617  0.3222
 1741WAT     H2 7685   0.623   2.797   7.281 -0.3756 -0.4754 -0.1954
 1741WAT    EPW 7686   0.674   2.796   7.221  0.0276 -0.4599  0.1461
 1742WAT      O 7687   6.214   6.799   5.403 -0.7497 -0.0187  0.3376
 1742WAT     H1 7688   6.245   6.873   5.439  0.4769 -0.7337  0.7949
 1742WAT     H2 7689   6.219   6.741   5.467 -2.3027 -0.3775  0.1687
 1742WAT    EPW 7690   6.219   6.802   5.418 -0.7979 -0.1773  0.3802
 1743WAT      O 7691   2.940   6.894   7.310 -0.7301  0.4356  0.0233
 1743WAT     H1 7692   2.986   6.838   7.261 -2.3150  0.0092 -1.0292
 1743WAT     H2 7693   2.939   6.855   7.389 -0.0296  0.0500 -0.1416
 1743WAT    EPW 7694   2.947   6.880   7.315 -0.8607  0.3156 -0.1565
 1744WAT      O 7695   6.928   1.256   0.632 -0.3705  0.1811 -0.3874
 1744WAT     H1 7696   6.859   1.225   0.590 -0.0065  0.3316 -1.1084
 1744WAT     H2 7697   6.996   1.227   0.585  0.1238 -0.8533  0.8732
 1744WAT    EPW 7698   6.928   1.247   0.619 -0.2437  0.0505 -0.3077
 1745WAT      O 7699   4.149   0.647   3.863 -0.7646  0.0196  0.4880
 1745WAT     H1 7700   4.076   0.674   3.903 -0.5185 -0.5136  1.3291
 1745WAT     H2 7701   4.196   0.613   3.928  0.0217 -0.0964 -0.1278
 1745WAT    EPW 7702   4.145   0.646   3.879 -0.6121 -0.0763  0.5213
 1746WAT      O 7703   4.373   6.639   3.680 -0.2564 -0.0244 -0.5186
 1746WAT     H1 7704   4.455   6.627   3.705 -0.2210  0.5738 -0.3233
 1746WAT     H2 7705   4.352   6.565   3.640  0.2843 -0.2878 -0.3164
 1746WAT    EPW 7706   4.382   6.627   3.677 -0.1713  0.0250 -0.4599
 1747WAT      O 7707   1.955   1.654   3.497  0.2122  0.1675  0.6407
 1747WAT     H1 7708   1.942   1.601   3.429 -0.8242 -1.2057  1.8284
 1747WAT     H2 7709   1.875   1.661   3.532  0.8284  0.3410  2.0550
 1747WAT    EPW 7710   1.941   1.647   3.492  0.1502 -0.0098  1.0251
 1748WAT      O 7711   3.288   5.538   7.333 -0.4173  0.2402 -0.0948
 1748WAT     H1 7712   3.266   5.463   7.294 -0.2473  0.1389  0.0025
 1748WAT     H2 7713   3.374   5.530   7.346 -0.4080  0.4301 -0.0368
 1748WAT    EPW 7714   3.297   5.526   7.329 -0.3908  0.2533 -0.0718
 1749WAT      O 7715   5.985   3.926   0.227 -0.2188 -0.9710  0.1036
 1749WAT     H1 7716   6.054   3.956   0.271 -0.7769  0.0544  0.3039
 1749WAT     H2 7717   5.918   3.946   0.279 -0.7546 -1.0642 -0.5463
 1749WAT    EPW 7718   5.986   3.933   0.241 -0.3804 -0.8333  0.0372
 1750WAT      O 7719   1.367   4.447   0.071  0.5097 -0.4670  0.1807
 1750WAT     H1 7720   1.324   4.519   0.097  0.4789 -0.2603 -0.4223
 1750WAT     H2 7721   1.329   4.427  -0.005  0.2519 -1.3624  0.5439
 1750WAT    EPW 7722   1.355   4.455   0.064  0.4671 -0.5687  0.1453
 1751WAT      O 7723   2.480   2.113   1.327 -0.7642 -0.0413  0.0104
 1751WAT     H1 7724   2.531   2.051   1.293 -1.0220  0.0585 -0.5728
 1751WAT     H2 7725   2.527   2.186   1.319 -0.6387 -0.0895  0.2950
 1751WAT    EPW 7726   2.495   2.115   1.321 -0.7838 -0.0336 -0.0337
 1752WAT      O 7727   2.498   1.268   5.941 -0.2662 -0.2122  0.0645
 1752WAT     H1 7728   2.504   1.270   5.854  1.0782  0.9799  0.1602
 1752WAT     H2 7729   2.504   1.183   5.960 -0.9005 -0.5185 -1.0072
 1752WAT    EPW 7730   2.500   1.256   5.931 -0.1613 -0.0813 -0.0797
 1753WAT      O 7731   1.947   4.028   2.734 -0.0096  0.1321  0.2103
 1753WAT     H1 7732   1.881   4.050   2.788  0.3704  1.7221  0.0790
 1753WAT     H2 7733   1.912   4.035   2.655  0.1985  0.5727  0.1552
 1753WAT    EPW 7734   1.932   4.032   2.730  0.0772  0.4321  0.1828
 1754WAT      O 7735   5.637   6.947   1.502 -0.1686  0.1669  0.4042
 1754WAT     H1 7736   5.622   6.931   1.587  2.3603 -2.3640  0.5116
 1754WAT     H2 7737   5.679   7.023   1.503  1.4977 -0.7023  1.7053
 1754WAT    EPW 7738   5.641   6.956   1.515  0.4511 -0.3353  0.6123
 1755WAT      O 7739   3.803   6.426   4.541  0.3237 -0.0894 -0.0769
 1755WAT     H1 7740   3.783   6.395   4.462  0.2130 -0.5141  0.1129
 1755WAT     H2 7741   3.726   6.426   4.582  0.4135 -0.0426  0.0899
 1755WAT    EPW 7742   3.788   6.422   4.535  0.3206 -0.1452 -0.0242
 1756WAT      O 7743   5.019   6.367   5.334 -0.0999 -0.2783 -0.3377
 1756WAT     H1 7744   4.955   6.367   5.275  0.0225 -1.0965 -0.4856
 1756WAT     H2 7745   5.072   6.430   5.307  0.4325 -1.2381 -1.6600
 1756WAT    EPW 7746   5.018   6.376   5.322 -0.0032 -0.5410 -0.5549
 1757WAT      O 7747   4.995   5.259   3.497 -0.0620 -0.1690 -0.0623
 1757WAT     H1 7748   4.999   5.188   3.548  1.0164 -1.0722 -1.3300
 1757WAT     H2 7749   5.001   5.325   3.553 -1.3024 -1.0381  1.1795
 1757WAT    EPW 7750   4.996   5.258   3.513 -0.0859 -0.4308 -0.0662
 1758WAT      O 7751   1.439   1.040   5.686  0.0409 -0.2412  0.6987
 1758WAT     H1 7752   1.464   0.976   5.740 -1.7323  0.5052  2.5865
 1758WAT     H2 7753   1.412   1.103   5.741 -1.4238  0.7759 -1.0667
 1758WAT    EPW 7754   1.439   1.040   5.702 -0.4374  0.0193  0.7168
 1759WAT      O 7755   3.825   4.034   5.126 -0.3955  0.5104 -0.4420
 1759WAT     H1 7756   3.855   4.058   5.047 -0.4335 -0.4221 -0.7534
 1759WAT     H2 7757   3.874   3.964   5.146 -0.5038  0.6359  0.2957
 1759WAT    EPW 7758   3.837   4.028   5.117 -0.4171  0.3912 -0.3790
 1760WAT      O 7759   5.421   5.143   6.402 -0.3791  0.3741  0.6954
 1760WAT     H1 7760   5.356   5.161   6.346 -1.3136 -3.1605  0.4607
 1760WAT     H2 7761   5.478   5.097   6.354  0.8318  0.7765  1.6831
 1760WAT    EPW 7762   5.420   5.139   6.387 -0.3383 -0.0886  0.8066
 1761WAT      O 7763   2.563   1.362   6.290 -0.3477 -0.2162 -0.4312
 1761WAT     H1 7764   2.616   1.431   6.293 -0.7680  0.0969 -0.0889
 1761WAT     H2 7765   2.497   1.390   6.240 -0.7076 -0.2329  0.0325
 1761WAT    EPW 7766   2.561   1.376   6.283 -0.4630 -0.1724 -0.3121
 1762WAT      O 7767   4.541   2.264   4.350  0.2764 -0.4361  0.6498
 1762WAT     H1 7768   4.496   2.222   4.412  0.8585  0.7807  1.9727
 1762WAT     H2 7769   4.545   2.346   4.380 -0.7083  0.6013 -1.7465
 1762WAT    EPW 7770   4.535   2.270   4.364  0.2169 -0.1031  0.4912
 1763WAT      O 7771   5.883   6.599   0.375  0.5473 -0.1335 -0.2044
 1763WAT     H1 7772   5.853   6.673   0.340 -0.0473  0.2608  1.0734
 1763WAT     H2 7773   5.964   6.593   0.344  0.0451  0.1651 -1.6371
 1763WAT    EPW 7774   5.891   6.609   0.365  0.3852 -0.0311 -0.2272
 1764WAT      O 7775   1.435   3.858   4.205  0.5477  0.0270 -0.2642
 1764WAT     H1 7776   1.476   3.837   4.131 -0.9582  0.4112 -1.2429
 1764WAT     H2 7777   1.387   3.927   4.184  0.8133  0.7611  1.3492
 1764WAT    EPW 7778   1.434   3.865   4.191  0.3645  0.1922 -0.1704
 1765WAT      O 7779   0.346   1.520   0.862  0.2491 -0.1440 -0.0060
 1765WAT     H1 7780   0.289   1.467   0.901  0.6716 -0.8125 -0.2953
 1765WAT     H2 7781   0.370   1.574   0.926 -0.4931 -0.0261  0.1888
 1765WAT    EPW 7782   0.341   1.520   0.877  0.2019 -0.2253 -0.0200
 1766WAT      O 7783   4.102   5.579   1.494 -0.0644 -0.0791  0.4814
 1766WAT     H1 7784   4.055   5.539   1.556 -0.8951  0.9577  0.5538
 1766WAT     H2 7785   4.056   5.564   1.421  0.9947 -1.4373  0.0495
 1766WAT    EPW 7786   4.088   5.571   1.492 -0.0306 -0.1266  0.4283
 1767WAT      O 7787   6.402   4.241   3.968 -0.1365  0.1069  0.2068
 1767WAT     H1 7788   6.345   4.288   4.014  0.1801 -0.1969  0.9210
 1767WAT     H2 7789   6.397   4.276   3.888  0.8823  2.0917  0.9401
 1767WAT    EPW 7790   6.393   4.253   3.963  0.0608  0.3552  0.4206
 1768WAT      O 7791   5.276   4.517   2.070  0.1091  0.0989 -0.1327
 1768WAT     H1 7792   5.319   4.590   2.093  0.9584 -0.8812  1.5466
 1768WAT     H2 7793   5.196   4.530   2.101  0.5180 -0.0589  1.0202
 1768WAT    EPW 7794   5.271   4.530   2.078  0.2950 -0.0692  0.2857
 1769WAT      O 7795   5.036   0.284   6.350 -0.5615 -0.5330 -0.2949
 1769WAT     H1 7796   4.997   0.268   6.274 -0.4402 -0.2484 -0.4200
 1769WAT     H2 7797   5.039   0.371   6.353 -1.5311 -0.5076  0.5246
 1769WAT    EPW 7798   5.031   0.295   6.339 -0.6868 -0.4872 -0.1923
 1770WAT      O 7799   5.846   7.228   2.219 -0.5209 -0.4558 -0.4572
 1770WAT     H1 7800   5.759   7.225   2.217 -0.5232 -0.9255 -0.0583
 1770WAT     H2 7801   5.864   7.253   2.301 -0.2785 -0.3093 -0.5518
 1770WAT    EPW 7802   5.836   7.231   2.231 -0.4854 -0.5035 -0.4122
 1771WAT      O 7803   7.275   1.388   5.746  0.0583  0.1603  0.0636
 1771WAT     H1 7804   7.325   1.338   5.797 -0.2743  0.3974  0.6355
 1771WAT     H2 7805   7.329   1.411   5.681  2.2715  4.1237  2.8469
 1771WAT    EPW 7806   7.291   1.384   5.744  0.3361  0.7808  0.5592
 1772WAT      O 7807   1.122   4.275   4.029 -0.1403  0.5584 -0.1083
 1772WAT     H1 7808   1.116   4.362   4.023 -0.7947  0.5390  0.1467
 1772WAT     H2 7809   1.065   4.247   3.969 -1.1782  0.3287  0.9400
 1772WAT    EPW 7810   1.112   4.284   4.019 -0.3903  0.5216  0.0842
 1773WAT      O 7811   0.950   5.704   4.285  0.0355 -0.0286  0.0032
 1773WAT     H1 7812   0.863   5.700   4.275  0.0719 -1.5995  0.0522
 1773WAT     H2 7813   0.961   5.765   4.346 -0.8868  1.6266 -1.3777
 1773WAT    EPW 7814   0.939   5.712   4.292 -0.0954 -0.0161 -0.1935
 1774WAT      O 7815   6.556   2.090   2.333 -0.0573  0.3772 -0.2884
 1774WAT     H1 7816   6.532   2.026   2.279  2.2100 -2.4633  1.7996
 1774WAT     H2 7817   6.633   2.116   2.301 -0.4546  1.3592 -0.4905
 1774WAT    EPW 7818   6.563   2.085   2.320  0.2190  0.1027 -0.0098
 1775WAT      O 7819   5.909   4.664   0.537 -0.1682 -0.2582 -0.1459
 1775WAT     H1 7820   5.952   4.660   0.462 -0.0748  0.3993 -0.1285
 1775WAT     H2 7821   5.931   4.590   0.577  0.2933 -0.3086 -0.4858
 1775WAT    EPW 7822   5.918   4.652   0.532 -0.0862 -0.1685 -0.1936
 1776WAT      O 7823   6.222   4.619   4.126 -0.3324 -0.0369  0.3364
 1776WAT     H1 7824   6.193   4.691   4.086  0.6785  1.0507  1.4870
 1776WAT     H2 7825   6.181   4.619   4.203 -0.0481 -0.5024  0.4962
 1776WAT    EPW 7826   6.212   4.629   4.131 -0.1411  0.0550  0.5300
 1777WAT      O 7827   1.991   5.454   6.860 -0.0868 -0.5717 -0.1981
 1777WAT     H1 7828   1.972   5.474   6.943 -0.9021  2.4837 -1.0009
 1777WAT     H2 7829   1.918   5.417   6.830 -0.8083  0.7709 -0.1979
 1777WAT    EPW 7830   1.978   5.451   6.868 -0.3138  0.0780 -0.3166
 1778WAT      O 7831   4.513   4.630   3.123 -0.4168 -0.1790 -0.3509
 1778WAT     H1 7832   4.583   4.611   3.171 -0.7943  1.3169  0.8904
 1778WAT     H2 7833   4.520   4.577   3.054  1.0542 -1.2022  0.5272
 1778WAT    EPW 7834   4.524   4.620   3.120 -0.2553 -0.1092 -0.0378
 1779WAT      O 7835   7.262   0.339   2.961  0.9916  0.4886 -0.6771
 1779WAT     H1 7836   7.289   0.395   2.900  1.2441  1.3054  0.1513
 1779WAT     H2 7837   7.333   0.325   3.010  0.6186  0.4516 -0.1286
 1779WAT    EPW 7838   7.276   0.345   2.960  0.9738  0.6038 -0.4737
 1780WAT      O 7839   1.078   1.344   2.494  0.3756 -0.3694  0.4024
 1780WAT     H1 7840   1.082   1.280   2.435  0.5768 -0.7414  0.8116
 1780WAT     H2 7841   1.149   1.391   2.478  0.7045 -0.7661  0.6770
 1780WAT    EPW 7842   1.089   1.342   2.483  0.4539 -0.4830  0.5034
 1781WAT      O 7843   6.416   6.953   5.721  0.2831  0.6545 -0.7743
 1781WAT     H1 7844   6.429   6.866   5.720 -0.1340  0.5464  0.9637
 1781WAT     H2 7845   6.398   6.971   5.638  2.2608 -0.6122 -1.5667
 1781WAT    EPW 7846   6.415   6.942   5.709  0.5136  0.4514 -0.6346
 1782WAT      O 7847   2.693   2.278   7.331 -0.0409 -0.6172 -0.2661
 1782WAT     H1 7848   2.609   2.295   7.315 -0.1258 -0.6838  0.0875
 1782WAT     H2 7849   2.690   2.199   7.369  0.1390 -0.4161  0.1686
 1782WAT    EPW 7850   2.680   2.269   7.334 -0.0268 -0.5973 -0.1497
 1783WAT      O 7851   0.646   4.750   0.644  0.1808 -0.1308  0.1043
 1783WAT     H1 7852   0.712   4.800   0.672  0.6238  0.2583 -1.5110
 1783WAT     H2 7853   0.614   4.795   0.577  1.0792 -2.3067 -1.9172
 1783WAT    EPW 7854   0.651   4.764   0.638  0.3789 -0.3948 -0.4329
 1784WAT      O 7855   4.648   5.683   3.877  0.0976 -0.5777 -0.1280
 1784WAT     H1 7856   4.731   5.663   3.860 -0.2388 -1.4576 -0.7753
 1784WAT     H2 7857   4.622   5.728   3.808  0.0395 -0.2746  0.0879
 1784WAT    EPW 7858   4.656   5.686   3.864  0.0393 -0.6629 -0.1917
 1785WAT      O 7859   4.309   0.682   5.247  0.3600  0.2575 -0.4096
 1785WAT     H1 7860   4.386   0.677   5.288  1.0304  1.1654 -1.4898
 1785WAT     H2 7861   4.282   0.763   5.265  0.4206  0.4885 -1.3377
 1785WAT    EPW 7862   4.316   0.693   5.256  0.4680  0.4257 -0.7063
 1786WAT      O 7863   5.119   4.320   0.898  0.1264  0.0315 -0.3509
 1786WAT     H1 7864   5.202   4.299   0.880  0.3537  0.6611 -0.0554
 1786WAT     H2 7865   5.103   4.276   0.971 -0.4123 -1.5743 -1.3867
 1786WAT    EPW 7866   5.129   4.311   0.906  0.0804 -0.1127 -0.4603
 1787WAT      O 7867   4.470   2.421   1.695  0.2332  0.4854  0.2332
 1787WAT     H1 7868   4.410   2.458   1.746  1.7287  1.2804  1.5039
 1787WAT     H2 7869   4.537   2.478   1.697  1.3702 -0.7721 -0.3816
 1787WAT    EPW 7870   4.471   2.435   1.703  0.6221  0.4171  0.3301
 1788WAT      O 7871   1.528   5.250   1.334 -0.1411  0.1166  0.3385
 1788WAT     H1 7872   1.575   5.243   1.260  0.6324 -0.4027  0.8652
 1788WAT     H2 7873   1.588   5.266   1.395 -0.8428  1.1757  0.7698
 1788WAT    EPW 7874   1.544   5.251   1.332 -0.1305  0.1963  0.4800
 1789WAT      O 7875   3.447   5.146   2.068 -0.6027 -0.0557 -0.1618
 1789WAT     H1 7876   3.514   5.130   2.016 -0.3252  0.3086  0.0787
 1789WAT     H2 7877   3.377   5.134   2.017 -0.3323  0.4184 -0.6443
 1789WAT    EPW 7878   3.446   5.142   2.053 -0.5217  0.0681 -0.1975
 1790WAT      O 7879   4.098   3.994   0.942 -0.4694 -0.3133 -0.2142
 1790WAT     H1 7880   4.064   3.933   0.889 -2.1177  0.9388 -0.6769
 1790WAT     H2 7881   4.052   3.985   1.016  1.5346 -1.7725  0.9658
 1790WAT    EPW 7882   4.086   3.983   0.946 -0.4169 -0.3439 -0.1083
 1791WAT      O 7883   3.324   2.070   2.059 -0.7301 -0.5576 -0.2244
 1791WAT     H1 7884   3.388   2.016   2.081  2.5111  2.4274 -1.4318
 1791WAT     H2 7885   3.324   2.130   2.122 -0.4801  0.8613 -1.5044
 1791WAT    EPW 7886   3.333   2.071   2.071 -0.2144  0.0929 -0.5918
 1792WAT      O 7887   0.488   0.227   3.164  0.0183 -0.3599 -0.1006
 1792WAT     H1 7888   0.466   0.145   3.186 -1.3410  0.1960  0.7723
 1792WAT     H2 7889   0.562   0.217   3.119 -0.4435 -2.1238 -0.5721
 1792WAT    EPW 7890   0.495   0.213   3.161 -0.2507 -0.5384 -0.0413
 1793WAT      O 7891   2.209   1.127   2.786 -0.2738  0.4465  0.6108
 1793WAT     H1 7892   2.237   1.180   2.849  0.1394  0.0275  0.7920
 1793WAT     H2 7893   2.273   1.068   2.779 -0.5483  0.1938  0.1543
 1793WAT    EPW 7894   2.222   1.126   2.795 -0.2533  0.3473  0.5701
 1794WAT      O 7895   2.553   0.593   3.281  0.1068 -0.2389  0.3026
 1794WAT     H1 7896   2.633   0.629   3.280  0.2023 -0.4453  0.5010
 1794WAT     H2 7897   2.519   0.616   3.204  0.5795 -0.6560 -0.0318
 1794WAT    EPW 7898   2.560   0.602   3.269  0.1908 -0.3310  0.2825
 1795WAT      O 7899   4.295   1.758   3.813  0.5881 -0.4330 -0.7648
 1795WAT     H1 7900   4.253   1.702   3.865 -0.0049 -0.3003 -1.0923
 1795WAT     H2 7901   4.251   1.833   3.823  0.6979 -0.3092 -1.1676
 1795WAT    EPW 7902   4.282   1.761   3.822  0.5167 -0.3951 -0.8727
 1796WAT      O 7903   0.636   0.429   5.944  0.1673 -0.3112  0.0472
 1796WAT     H1 7904   0.631   0.514   5.961  0.5411 -0.4213  0.7426
 1796WAT     H2 7905   0.689   0.398   6.007 -0.3160 -1.1245  0.0702
 1796WAT    EPW 7906   0.643   0.437   5.956  0.1511 -0.4476  0.1533
 1797WAT      O 7907   5.553   4.856   2.589  0.4336 -0.7961  0.3625
 1797WAT     H1 7908   5.467   4.853   2.605  0.1875 -0.6512 -0.8541
 1797WAT     H2 7909   5.559   4.827   2.507  1.4455  0.2258  0.0608
 1797WAT    EPW 7910   5.541   4.851   2.579  0.5467 -0.6237  0.1382
 1798WAT      O 7911   1.876   5.704   6.595  0.0513  0.6292  0.3880
 1798WAT     H1 7912   1.915   5.628   6.578  1.3548  0.6668  2.7060
 1798WAT     H2 7913   1.811   5.682   6.649  0.3950  1.1233  1.0217
 1798WAT    EPW 7914   1.872   5.689   6.601  0.2946  0.7077  0.8241
 1799WAT      O 7915   4.646   4.945   6.495 -0.7123 -0.2046 -0.0630
 1799WAT     H1 7916   4.712   4.944   6.437 -0.3294  0.5289  0.3492
 1799WAT     H2 7917   4.601   4.872   6.476 -0.0031 -0.5126 -0.6036
 1799WAT    EPW 7918   4.649   4.934   6.484 -0.5510 -0.1418 -0.0819
 1800WAT      O 7919   3.920   3.223   1.880 -0.0417  0.2620 -0.1760
 1800WAT     H1 7920   3.848   3.216   1.929  0.2379  1.2876  0.4203
 1800WAT     H2 7921   3.952   3.142   1.879  0.2423  0.2940  1.8588
 1800WAT    EPW 7922   3.914   3.210   1.887  0.0416  0.4182  0.2127
 1801WAT      O 7923   3.301   5.097   0.639 -0.7890  0.4912  0.0800
 1801WAT     H1 7924   3.383   5.121   0.661 -0.5800 -1.2663  1.4469
 1801WAT     H2 7925   3.309   5.068   0.558  0.2318 -0.7820  0.6031
 1801WAT    EPW 7926   3.314   5.096   0.631 -0.6073  0.0435  0.3592
 1802WAT      O 7927   3.879   6.483   4.254 -0.2486 -0.3677 -0.1011
 1802WAT     H1 7928   3.864   6.562   4.219 -0.7337 -0.3928  0.0424
 1802WAT     H2 7929   3.932   6.500   4.321 -1.1756 -0.0170  0.5741
 1802WAT    EPW 7930   3.884   6.497   4.258 -0.4572 -0.3196  0.0199
 1803WAT      O 7931   2.858   4.465   0.048  0.3050  0.7532 -0.4080
 1803WAT     H1 7932   2.788   4.469   0.100  1.4115 -0.0720  1.2795
 1803WAT     H2 7933   2.829   4.426  -0.024 -0.6313 -1.3110  0.9930
 1803WAT    EPW 7934   2.844   4.460   0.045  0.3301  0.3264  0.0483
 1804WAT      O 7935   2.367   5.746   3.726 -0.0709  0.4865 -0.0643
 1804WAT     H1 7936   2.368   5.819   3.677 -2.0175  0.4128 -0.3086
 1804WAT     H2 7937   2.410   5.688   3.677 -0.5528  0.8550 -0.9624
 1804WAT    EPW 7938   2.373   5.748   3.711 -0.4296  0.5300 -0.2331
 1805WAT      O 7939   0.484   4.697   0.277  0.1738 -0.0439 -0.1371
 1805WAT     H1 7940   0.480   4.770   0.325 -0.7158  0.3170 -0.7331
 1805WAT     H2 7941   0.568   4.690   0.256  0.1850  1.1023 -0.5149
 1805WAT    EPW 7942   0.496   4.707   0.281  0.0440  0.1788 -0.2809
 1806WAT      O 7943   6.489   1.141   6.802  0.8371 -0.4305 -0.1978
 1806WAT     H1 7944   6.552   1.199   6.822  0.2899  0.0242  0.2339
 1806WAT     H2 7945   6.533   1.066   6.794  1.3390 -0.3021  1.0266
 1806WAT    EPW 7946   6.505   1.139   6.804  0.8304 -0.3444  0.0469
 1807WAT      O 7947   1.090   4.550   3.990 -0.2832 -0.2028  0.5628
 1807WAT     H1 7948   1.148   4.600   3.948  0.4820  0.8441  2.7366
 1807WAT     H2 7949   1.013   4.579   3.960  0.1973 -1.1282 -1.8221
 1807WAT    EPW 7950   1.087   4.562   3.980 -0.0992 -0.1848  0.5316
 1808WAT      O 7951   7.081   4.133   0.294 -0.3829  0.6068 -0.5164
 1808WAT     H1 7952   7.159   4.094   0.304 -1.3299 -1.6022 -1.0689
 1808WAT     H2 7953   7.087   4.173   0.217  0.3722  0.9395 -0.2948
 1808WAT    EPW 7954   7.094   4.133   0.284 -0.4113  0.3296 -0.5653
 1809WAT      O 7955   0.670   0.880   3.197 -0.2465  0.0211  0.1938
 1809WAT     H1 7956   0.696   0.870   3.114 -0.0973  0.2210  0.2170
 1809WAT     H2 7957   0.589   0.849   3.196 -0.5026  0.6829 -0.1849
 1809WAT    EPW 7958   0.662   0.874   3.184 -0.2623  0.1484  0.1413
 1810WAT      O 7959   5.700   5.657   2.395 -0.2584  0.2624 -0.5728
 1810WAT     H1 7960   5.737   5.578   2.397  0.6545  0.6842 -0.2944
 1810WAT     H2 7961   5.768   5.712   2.387 -0.6179  1.1855  1.8604
 1810WAT    EPW 7962   5.715   5.654   2.394 -0.1766  0.4611 -0.1722
 1811WAT      O 7963   3.686   0.592   3.317  0.0648 -0.0267 -0.7922
 1811WAT     H1 7964   3.601   0.571   3.320  0.1040 -0.0666  1.1305
 1811WAT     H2 7965   3.701   0.627   3.395  1.7900  0.1590 -1.1734
 1811WAT    EPW 7966   3.675   0.594   3.329  0.3255 -0.0052 -0.5645
 1812WAT      O 7967   5.715   6.042   2.320 -0.0326  0.0319 -0.4090
 1812WAT     H1 7968   5.752   6.030   2.398  1.2582 -0.8435 -1.1405
 1812WAT     H2 7969   5.629   6.039   2.338  0.2414 -0.5359  0.9082
 1812WAT    EPW 7970   5.708   6.040   2.334  0.1985 -0.1813 -0.3224
 1813WAT      O 7971   2.750   6.163   3.507  0.2373  0.3292 -0.1238
 1813WAT     H1 7972   2.778   6.171   3.589 -1.9805  1.0176  0.6533
 1813WAT     H2 7973   2.803   6.103   3.472  2.4134  1.3666  1.2195
 1813WAT    EPW 7974   2.762   6.155   3.514  0.2311  0.5842  0.1895
 1814WAT      O 7975   6.529   1.901   6.150  0.4679 -0.9480  0.0451
 1814WAT     H1 7976   6.542   1.975   6.194 -2.2782 -0.8304  0.8495
 1814WAT     H2 7977   6.501   1.928   6.072  1.3340 -1.1652 -0.3487
 1814WAT    EPW 7978   6.527   1.916   6.145  0.1902 -0.9627  0.1057
 1815WAT      O 7979   1.898   2.915   3.036  0.3997  0.0651 -0.5797
 1815WAT     H1 7980   1.900   2.830   3.055  1.5558  0.5056  1.4770
 1815WAT     H2 7981   1.817   2.939   3.058 -0.3197 -0.6846 -2.2580
 1815WAT    EPW 7982   1.886   2.906   3.042  0.4642  0.0194 -0.5238
 1816WAT      O 7983   4.231   4.257   1.172  0.5654 -0.2869 -0.4409
 1816WAT     H1 7984   4.296   4.313   1.186  0.5539  0.1118 -1.8160
 1816WAT     H2 7985   4.184   4.261   1.245 -0.5881  3.0368 -1.2009
 1816WAT    EPW 7986   4.234   4.266   1.185  0.3933  0.2630 -0.7563
 1817WAT      O 7987   6.044   2.868   5.872  0.3157  0.1098 -0.0552
 1817WAT     H1 7988   6.112   2.876   5.818 -0.1413 -2.5346 -1.1638
 1817WAT     H2 7989   6.081   2.854   5.949  0.9839  1.0849 -0.1755
 1817WAT    EPW 7990   6.060   2.868   5.875  0.3469 -0.1368 -0.2367
 1818WAT      O 7991   3.438   1.628   0.195  0.5242 -0.5461  0.2123
 1818WAT     H1 7992   3.403   1.613   0.274  1.7564 -3.5923  0.3399
 1818WAT     H2 7993   3.502   1.685   0.212  0.6809 -1.0441  1.4435
 1818WAT    EPW 7994   3.443   1.634   0.209  0.7294 -1.0696  0.4130
 1819WAT      O 7995   5.987   6.300   2.593 -0.1968 -0.2675  0.0847
 1819WAT     H1 7996   5.937   6.267   2.657  0.5087  0.9034  1.2929
 1819WAT     H2 7997   5.929   6.336   2.539 -0.8671 -2.0124 -0.4483
 1819WAT    EPW 7998   5.971   6.300   2.595 -0.1916 -0.3523  0.1845
 1820WAT      O 7999   2.408   0.640   3.060  0.5857 -0.6215 -0.4466
 1820WAT     H1 8000   2.449   0.662   2.987  0.7502 -0.4023 -0.2904
 1820WAT     H2 8001   2.353   0.577   3.035  0.5693 -0.4776 -0.7751
 1820WAT    EPW 8002   2.406   0.634   3.046  0.6076 -0.5679 -0.4721
 1821WAT      O 8003   0.850   1.402   2.614  0.4357  0.4743  0.3297
 1821WAT     H1 8004   0.913   1.397   2.554 -1.1113  2.3940 -1.6271
 1821WAT     H2 8005   0.792   1.343   2.589  0.7245 -0.2194  1.2389
 1821WAT    EPW 8006   0.851   1.393   2.601  0.2499  0.6554  0.1750
 1822WAT      O 8007   0.311   5.946   4.065 -0.5697  0.1161 -0.5528
 1822WAT     H1 8008   0.357   6.017   4.045 -0.5716  0.6122  1.0992
 1822WAT     H2 8009   0.358   5.881   4.032  1.1904  0.6349  0.8210
 1822WAT    EPW 8010   0.325   5.947   4.057 -0.3100  0.2660 -0.1058
 1823WAT      O 8011   2.147   2.899   6.923  0.0376 -0.3524  0.0605
 1823WAT     H1 8012   2.153   2.915   6.837 -2.1035  0.9801  0.0921
 1823WAT     H2 8013   2.116   2.817   6.926  1.2314 -0.8460 -0.3731
 1823WAT    EPW 8014   2.143   2.889   6.911 -0.1023 -0.2285  0.0011
 1824WAT      O 8015   4.244   0.698   4.295  0.3683  0.0246  0.0589
 1824WAT     H1 8016   4.265   0.728   4.374  1.1059  1.7149 -0.7054
 1824WAT     H2 8017   4.176   0.748   4.272  0.0642 -0.5559 -0.3069
 1824WAT    EPW 8018   4.237   0.710   4.303  0.4323  0.1885 -0.1081
 1825WAT      O 8019   6.276   1.833   1.426 -0.2856 -0.0898  0.3709
 1825WAT     H1 8020   6.261   1.801   1.506 -1.5603 -0.4023  0.0377
 1825WAT     H2 8021   6.310   1.912   1.441 -0.2796 -0.2515  1.2272
 1825WAT    EPW 8022   6.279   1.840   1.440 -0.4730 -0.1598  0.4482
 1826WAT      O 8023   5.526   0.307   5.602  0.1711 -0.4472  0.7124
 1826WAT     H1 8024   5.517   0.305   5.515 -0.0558 -0.6321  0.7421
 1826WAT     H2 8025   5.453   0.271   5.632  0.3670 -0.6287  0.9767
 1826WAT    EPW 8026   5.514   0.302   5.593  0.1665 -0.5014  0.7558
 1827WAT      O 8027   3.869   2.199   5.397 -0.2521 -0.2949  0.0119
 1827WAT     H1 8028   3.955   2.182   5.401 -0.0354  0.4207 -1.1089
 1827WAT     H2 8029   3.850   2.230   5.476  0.9504  1.3826 -0.3044
 1827WAT    EPW 8030   3.879   2.201   5.409 -0.0425  0.0586 -0.2004
 1828WAT      O 8031   3.481   1.876   4.654  0.5064 -0.1621  0.0827
 1828WAT     H1 8032   3.474   1.913   4.732  0.9224  1.0876 -0.4388
 1828WAT     H2 8033   3.462   1.792   4.668 -1.1523  0.3627  1.1946
 1828WAT    EPW 8034   3.477   1.869   4.667  0.3228  0.1001  0.1699
 1829WAT      O 8035   1.057   4.042   5.582 -0.1563 -0.1061  0.1243
 1829WAT     H1 8036   1.018   4.029   5.659 -1.1827 -0.5646 -0.4603
 1829WAT     H2 8037   1.122   3.984   5.583 -0.9044 -0.9741  0.1585
 1829WAT    EPW 8038   1.061   4.031   5.594 -0.4184 -0.3020  0.0430
 1830WAT      O 8039   1.609   6.566   4.723 -0.0086  0.1035  0.1345
 1830WAT     H1 8040   1.660   6.502   4.692 -0.5716  0.0562 -0.7194
 1830WAT     H2 8041   1.529   6.541   4.700 -0.1936  1.3507 -0.6317
 1830WAT    EPW 8042   1.605   6.553   4.715 -0.1191  0.2807 -0.1048
 1831WAT      O 8043   0.559   5.589   5.583  0.2434 -0.4308  0.1007
 1831WAT     H1 8044   0.496   5.564   5.639  0.7670  0.1528  0.9885
 1831WAT     H2 8045   0.626   5.608   5.636  0.3727  1.3070 -0.6117
 1831WAT    EPW 8046   0.559   5.588   5.599  0.3399 -0.0879  0.1266
 1832WAT      O 8047   0.425   2.274   2.700  0.1078  0.0289  0.3153
 1832WAT     H1 8048   0.357   2.255   2.650  1.2929 -2.3457 -0.5675
 1832WAT     H2 8049   0.399   2.343   2.746 -2.9200 -0.8554  0.1173
 1832WAT    EPW 8050   0.411   2.281   2.700 -0.1644 -0.4525  0.1556
 1833WAT      O 8051   1.922   3.917   3.580  0.1289  1.0064  0.2613
 1833WAT     H1 8052   1.913   3.964   3.652  0.1713 -0.5619  1.3504
 1833WAT     H2 8053   1.840   3.892   3.562  0.3883 -1.0138  1.5326
 1833WAT    EPW 8054   1.908   3.920   3.588  0.1735  0.4763  0.6100
 1834WAT      O 8055   3.351   6.038   1.486 -0.0191  0.1648 -0.3383
 1834WAT     H1 8056   3.431   6.004   1.496  0.7621  1.6432 -1.2624
 1834WAT     H2 8057   3.335   6.028   1.401 -1.3202 -1.0699 -0.0007
 1834WAT    EPW 8058   3.361   6.031   1.475 -0.0959  0.2008 -0.4250
 1835WAT      O 8059   4.355   6.825   0.246 -0.1545 -0.1975  0.0640
 1835WAT     H1 8060   4.415   6.809   0.307 -0.4499  0.2596  0.4825
 1835WAT     H2 8061   4.292   6.868   0.289 -0.7653 -0.6247 -0.3733
 1835WAT    EPW 8062   4.354   6.829   0.261 -0.2884 -0.1931  0.0612
 1836WAT      O 8063   6.458   4.487   4.245  0.0115  0.5870 -0.2694
 1836WAT     H1 8064   6.391   4.526   4.205 -0.9971 -0.4627  0.3251
 1836WAT     H2 8065   6.482   4.544   4.306  0.3938  1.4403 -1.2024
 1836WAT    EPW 8066   6.452   4.501   4.248 -0.0810  0.5580 -0.3194
 1837WAT      O 8067   6.681   5.020   3.090 -0.2091  0.6488  0.1609
 1837WAT     H1 8068   6.761   4.996   3.116 -0.3147  1.8336  1.7365
 1837WAT     H2 8069   6.696   5.066   3.018  0.4642  0.4082  0.1373
 1837WAT    EPW 8070   6.695   5.023   3.083 -0.1252  0.7883  0.3902
 1838WAT      O 8071   2.025   4.077   1.652 -0.8876  0.3863  0.2804
 1838WAT     H1 8072   2.008   4.111   1.731 -0.9436  0.8486  0.0751
 1838WAT     H2 8073   2.025   3.991   1.667 -1.1441  0.4559  0.7380
 1838WAT    EPW 8074   2.022   4.069   1.666 -0.9338  0.4649  0.3176
 1839WAT      O 8075   2.828   3.906   1.726 -0.3148  0.1824 -0.0603
 1839WAT     H1 8076   2.784   3.980   1.743 -1.1309 -0.4354  0.5777
 1839WAT     H2 8077   2.765   3.849   1.709  0.3341 -0.2488 -1.1048
 1839WAT    EPW 8078   2.812   3.909   1.726 -0.3395  0.0274 -0.1203
 1840WAT      O 8079   0.521   5.212   1.651  0.0198 -0.1121  0.7013
 1840WAT     H1 8080   0.604   5.236   1.657  0.4813 -1.4011 -0.2586
 1840WAT     H2 8081   0.499   5.233   1.569 -1.0892  1.5978  1.3730
 1840WAT    EPW 8082   0.530   5.219   1.640 -0.0759 -0.0499  0.6588
 1841WAT      O 8083   7.224   4.725   2.480  0.7223  0.8120  0.0573
 1841WAT     H1 8084   7.142   4.754   2.469  0.6172  0.4912 -0.0236
 1841WAT     H2 8085   7.226   4.651   2.434  0.8432  0.4528  0.6219
 1841WAT    EPW 8086   7.212   4.718   2.472  0.7247  0.7115  0.1288
 1842WAT      O 8087   5.806   5.121   6.276 -0.4975  0.4056  0.1095
 1842WAT     H1 8088   5.880   5.094   6.315 -0.8939 -0.7014  0.1265
 1842WAT     H2 8089   5.785   5.193   6.321 -0.6183 -0.4976  1.5708
 1842WAT    EPW 8090   5.814   5.128   6.288 -0.5739  0.1087  0.3279
 1843WAT      O 8091   0.612   4.693   2.496  0.1716  0.2417 -0.3231
 1843WAT     H1 8092   0.535   4.705   2.459  0.3486 -0.1681 -0.8384
 1843WAT     H2 8093   0.593   4.655   2.572 -0.3350  2.7890  0.9427
 1843WAT    EPW 8094   0.598   4.689   2.502  0.1229  0.5575 -0.2122
 1844WAT      O 8095   0.210   1.843   0.322 -0.0626  0.1447 -0.2495
 1844WAT     H1 8096   0.132   1.812   0.344 -0.5277  0.8615 -0.8021
 1844WAT     H2 8097   0.197   1.875   0.242  0.5874  1.0004 -0.0296
 1844WAT    EPW 8098   0.197   1.843   0.313 -0.0353  0.3770 -0.2986
 1845WAT      O 8099   4.130   5.792   1.747 -0.5099 -0.1094  0.5231
 1845WAT     H1 8100   4.170   5.722   1.780 -0.3807  0.5710  1.8852
 1845WAT     H2 8101   4.195   5.838   1.712 -0.8769 -1.7941 -2.6788
 1845WAT    EPW 8102   4.146   5.789   1.747 -0.5450 -0.2577  0.2513
 1846WAT      O 8103   4.225   0.672   6.912 -0.3697 -0.7376 -0.5581
 1846WAT     H1 8104   4.197   0.676   6.995  0.7767 -1.7691 -0.0936
 1846WAT     H2 8105   4.255   0.753   6.897 -2.7753  0.1796 -0.8250
 1846WAT    EPW 8106   4.225   0.685   6.922 -0.5557 -0.7545 -0.5289
 1847WAT      O 8107   1.707   3.699   6.738  0.5907  0.1334 -0.0322
 1847WAT     H1 8108   1.688   3.630   6.688 -1.5932  0.3835  0.3789
 1847WAT     H2 8109   1.785   3.678   6.773  0.8535 -1.2625 -1.3464
 1847WAT    EPW 8110   1.716   3.686   6.735  0.3069 -0.0359 -0.1656
 1848WAT      O 8111   3.072   5.828   0.674  0.2878  0.2373  0.2956
 1848WAT     H1 8112   3.121   5.759   0.695  1.0372  0.0222 -1.9346
 1848WAT     H2 8113   3.114   5.895   0.713  1.1081 -0.2173  0.2112
 1848WAT    EPW 8114   3.085   5.828   0.683  0.5196  0.1384 -0.0463
 1849WAT      O 8115   1.317   3.340   3.019  0.4824 -0.6831 -0.0033
 1849WAT     H1 8116   1.237   3.329   2.986  1.8122 -1.0855 -3.5040
 1849WAT     H2 8117   1.315   3.421   3.050 -0.8796 -0.1033 -1.4571
 1849WAT    EPW 8118   1.305   3.350   3.019  0.4776 -0.6569 -0.7352
 1850WAT      O 8119   1.956   0.892   6.879 -0.6367  0.6760 -0.2009
 1850WAT     H1 8120   1.906   0.821   6.871 -0.4053  0.6130 -1.2427
 1850WAT     H2 8121   1.912   0.942   6.935 -2.8699  1.4149 -2.3974
 1850WAT    EPW 8122   1.942   0.889   6.886 -0.9324  0.7758 -0.6793
 1851WAT      O 8123   7.126   7.117   0.394  0.5041 -0.2448  0.0064
 1851WAT     H1 8124   7.095   7.044   0.357 -0.8365 -1.1837  2.7387
 1851WAT     H2 8125   7.207   7.094   0.420  1.4909  0.4483 -2.2048
 1851WAT    EPW 8126   7.134   7.103   0.392  0.4518 -0.2811  0.0834
 1852WAT      O 8127   6.094   3.646   1.047 -0.3480  0.5269  0.3097
 1852WAT     H1 8128   6.084   3.731   1.027 -0.8367  0.1157 -1.3528
 1852WAT     H2 8129   6.178   3.630   1.028  0.1512  0.9322  1.9816
 1852WAT    EPW 8130   6.105   3.656   1.041 -0.3465  0.5260  0.3111
 1853WAT      O 8131   5.348   3.528   1.408  0.2364  0.3522  0.2750
 1853WAT     H1 8132   5.388   3.540   1.331  1.1459 -1.8486  0.3478
 1853WAT     H2 8133   5.393   3.579   1.462  0.6245  0.6737 -0.3396
 1853WAT    EPW 8134   5.360   3.538   1.405  0.4281  0.0746  0.1950
 1854WAT      O 8135   5.258   6.598   6.872 -0.5895  0.4191 -0.3287
 1854WAT     H1 8136   5.277   6.514   6.855 -0.1027  0.3346  0.5869
 1854WAT     H2 8137   5.337   6.634   6.884 -0.8704  0.1816  3.0360
 1854WAT    EPW 8138   5.273   6.591   6.871 -0.5591  0.3715  0.3036
 1855WAT      O 8139   1.623   5.416   3.117  0.4521  0.2516 -0.8671
 1855WAT     H1 8140   1.610   5.350   3.061  2.4634 -0.1240 -0.9809
 1855WAT     H2 8141   1.641   5.375   3.192  1.7927  0.6368 -0.9562
 1855WAT    EPW 8142   1.624   5.400   3.120  0.9472  0.2530 -0.8971
 1856WAT      O 8143   5.460   3.146   1.078 -0.2965  0.2078  0.3882
 1856WAT     H1 8144   5.404   3.166   1.014 -0.8781  1.1233  1.1583
 1856WAT     H2 8145   5.409   3.116   1.141  0.2584 -0.5325  0.4944
 1856WAT    EPW 8146   5.444   3.145   1.078 -0.3004  0.2337  0.5176
 1857WAT      O 8147   5.038   0.576   5.806  0.5360  0.0383 -0.4405
 1857WAT     H1 8148   5.075   0.497   5.808 -1.4095 -0.9152  0.9423
 1857WAT     H2 8149   4.953   0.559   5.803 -0.2557  1.8965  3.8423
 1857WAT    EPW 8150   5.031   0.562   5.806  0.1317  0.1720  0.3965
 1858WAT      O 8151   2.968   4.656   1.850  0.7130 -0.7093  0.1381
 1858WAT     H1 8152   2.962   4.585   1.800 -2.3642 -0.2158 -0.4060
 1858WAT     H2 8153   2.985   4.624   1.929  2.0820 -1.7876 -0.5530
 1858WAT    EPW 8154   2.970   4.641   1.854  0.4607 -0.7957 -0.0444
 1859WAT      O 8155   0.106   3.739   5.698  0.0027  0.2497  0.4682
 1859WAT     H1 8156   0.179   3.757   5.653  0.8758 -1.0586  1.3034
 1859WAT     H2 8157   0.086   3.816   5.735 -0.5653  1.2964 -1.7915
 1859WAT    EPW 8158   0.114   3.753   5.697  0.0477  0.2111  0.2578
 1860WAT      O 8159   7.100   0.607   5.881 -0.4172  0.6499 -1.0507
 1860WAT     H1 8160   7.116   0.527   5.850  1.3941  0.4383  0.2972
 1860WAT     H2 8161   7.169   0.654   5.854 -0.5581  1.3009 -0.3155
 1860WAT    EPW 8162   7.113   0.602   5.873 -0.1704  0.7148 -0.7429
 1861WAT      O 8163   5.745   5.275   5.407 -0.2009  0.1110  0.4291
 1861WAT     H1 8164   5.698   5.319   5.466 -0.8941  0.0318 -0.0503
 1861WAT     H2 8165   5.795   5.223   5.455  0.1972  0.9856  0.9852
 1861WAT    EPW 8166   5.746   5.274   5.423 -0.2445  0.2285  0.4405
 1862WAT      O 8167   3.519   5.881   7.243 -0.8560 -0.3570  0.0711
 1862WAT     H1 8168   3.568   5.834   7.188 -0.5655  0.3481 -0.2880
 1862WAT     H2 8169   3.560   5.958   7.247 -1.4139 -0.0682  0.5144
 1862WAT    EPW 8170   3.532   5.886   7.236 -0.8955 -0.2102  0.0835
 1863WAT      O 8171   2.481   2.570   0.818 -0.3376 -0.0607  0.1487
 1863WAT     H1 8172   2.506   2.642   0.862 -2.2653  1.2894 -0.8054
 1863WAT     H2 8173   2.413   2.598   0.771 -1.0060 -2.4942 -0.4513
 1863WAT    EPW 8174   2.475   2.585   0.818 -0.7211 -0.2207 -0.0809
 1864WAT      O 8175   6.747   3.850   3.029 -0.4916  0.0416 -0.0392
 1864WAT     H1 8176   6.682   3.858   3.088  1.3785  1.6560  1.9583
 1864WAT     H2 8177   6.726   3.909   2.969 -0.9674  0.4362  0.4961
 1864WAT    EPW 8178   6.734   3.860   3.029 -0.2856  0.3384  0.3349
 1865WAT      O 8179   6.935   0.092   1.654 -0.2706 -0.0161 -0.2139
 1865WAT     H1 8180   6.925   0.170   1.692  2.5212 -0.6153  2.1443
 1865WAT     H2 8181   6.871   0.044   1.689 -1.4206  0.9029 -0.9636
 1865WAT    EPW 8182   6.924   0.096   1.665 -0.0281  0.0311  0.0237
 1866WAT      O 8183   3.286   4.473   0.161  0.4283 -0.6223  0.0681
 1866WAT     H1 8184   3.307   4.505   0.082  0.5746 -1.3869 -0.2061
 1866WAT     H2 8185   3.363   4.451   0.196  0.4404  0.4214  0.7474
 1866WAT    EPW 8186   3.301   4.475   0.154  0.4517 -0.5811  0.1280
 1867WAT      O 8187   1.483   3.384   2.563 -0.3409 -0.6392  0.5798
 1867WAT     H1 8188   1.514   3.406   2.484 -0.6796 -0.7517  0.4158
 1867WAT     H2 8189   1.428   3.319   2.546 -1.2523  0.0632  0.7857
 1867WAT    EPW 8190   1.479   3.378   2.549 -0.5256 -0.5521  0.5860
 1868WAT      O 8191   7.245   3.183   6.284  0.9306  0.1396 -0.1951
 1868WAT     H1 8192   7.227   3.244   6.344  1.0099 -0.1158  0.0848
 1868WAT     H2 8193   7.170   3.177   6.239  0.5792 -0.3080  0.4343
 1868WAT    EPW 8194   7.231   3.191   6.286  0.8904  0.0357 -0.0608
 1869WAT      O 8195   5.223   1.890   4.988  0.0799  0.6807  0.2140
 1869WAT     H1 8196   5.269   1.816   4.984  1.4442  1.5308 -1.4484
 1869WAT     H2 8197   5.198   1.894   5.071  0.6408 -1.2253  0.5336
 1869WAT    EPW 8198   5.226   1.880   5.000  0.3643  0.5248  0.0156
 1870WAT      O 8199   6.748   5.122   6.676  0.4502 -0.0800 -0.7762
 1870WAT     H1 8200   6.817   5.085   6.716  0.4003 -1.0418 -1.5524
 1870WAT     H2 8201   6.781   5.149   6.600  0.1747  0.2805 -0.7671
 1870WAT    EPW 8202   6.763   5.120   6.671  0.4022 -0.1689 -0.8895
 1871WAT      O 8203   6.096   0.630   1.392 -0.1549 -0.4724  0.9671
 1871WAT     H1 8204   6.054   0.557   1.416  0.8866 -0.4027  3.2351
 1871WAT     H2 8205   6.180   0.608   1.395  0.1274  0.2836 -0.3760
 1871WAT    EPW 8206   6.102   0.616   1.396  0.0407 -0.3504  1.1038
 1872WAT      O 8207   4.543   1.834   5.595  0.3336  0.2878  0.0751
 1872WAT     H1 8208   4.525   1.893   5.657  1.7799  1.4394 -0.5411
 1872WAT     H2 8209   4.576   1.767   5.640 -2.0906 -0.5024  0.8759
 1872WAT    EPW 8210   4.545   1.833   5.611  0.1891  0.3412  0.1024
 1873WAT      O 8211   5.834   5.131   7.084 -0.7509 -0.0968  0.2829
 1873WAT     H1 8212   5.866   5.212   7.079  0.1595 -0.5060 -1.1542
 1873WAT     H2 8213   5.771   5.131   7.024  0.1924 -0.8123 -0.7614
 1873WAT    EPW 8214   5.830   5.143   7.074 -0.4771 -0.2630 -0.0836
 1874WAT      O 8215   1.929   4.469   1.109 -0.0007  0.2146  0.1160
 1874WAT     H1 8216   1.983   4.507   1.166  0.0206  0.1880  0.1132
 1874WAT     H2 8217   1.970   4.475   1.033 -0.3526  0.9100 -0.0298
 1874WAT    EPW 8218   1.943   4.476   1.106 -0.0495  0.3134  0.0940
 1875WAT      O 8219   6.358   6.920   2.359  0.3558 -0.4331  0.1727
 1875WAT     H1 8220   6.345   6.889   2.439 -3.6652  0.5512  0.1554
 1875WAT     H2 8221   6.340   6.852   2.307  0.1053 -0.3451  0.1404
 1875WAT    EPW 8222   6.353   6.905   2.363 -0.2752 -0.2747  0.1654
 1876WAT      O 8223   2.393   5.824   6.402  0.1007 -0.6287  0.6690
 1876WAT     H1 8224   2.338   5.763   6.375  1.7445 -2.4666  1.2489
 1876WAT     H2 8225   2.445   5.838   6.333  0.3793 -0.6721  0.8652
 1876WAT    EPW 8226   2.393   5.817   6.388  0.3847 -0.9066  0.7837
 1877WAT      O 8227   0.908   1.022   6.896  0.4656 -0.0426 -0.3230
 1877WAT     H1 8228   0.933   1.106   6.896 -1.3612  0.5644 -0.1667
 1877WAT     H2 8229   0.861   1.016   6.970  1.1346 -1.4076  0.0126
 1877WAT    EPW 8230   0.905   1.034   6.907  0.2946 -0.1546 -0.2503
 1878WAT      O 8231   3.799   5.291   3.687  0.3903  0.0345  0.8053
 1878WAT     H1 8232   3.874   5.330   3.664 -0.5119  1.0759 -0.5799
 1878WAT     H2 8233   3.741   5.357   3.686 -1.0454 -1.1504 -0.9012
 1878WAT    EPW 8234   3.802   5.307   3.683  0.0450  0.0133  0.3486
 1879WAT      O 8235   4.248   5.600   3.636  0.1584  0.0328  0.2275
 1879WAT     H1 8236   4.289   5.526   3.655  0.6096 -0.0957 -1.1128
 1879WAT     H2 8237   4.277   5.657   3.695 -1.7546 -1.3016  2.6165
 1879WAT    EPW 8238   4.258   5.597   3.647 -0.0576 -0.1833  0.3824
 1880WAT      O 8239   4.756   5.907   3.312 -0.1609  0.4739  0.0014
 1880WAT     H1 8240   4.830   5.924   3.268  0.2771  0.6796  0.7993
 1880WAT     H2 8241   4.697   5.956   3.271  0.3122  0.9355 -0.1526
 1880WAT    EPW 8242   4.758   5.917   3.300 -0.0263  0.5725  0.0965
 1881WAT      O 8243   2.366   0.040   3.399 -0.0214  0.1898 -0.0417
 1881WAT     H1 8244   2.375   0.008   3.318 -0.4646 -0.0892  0.0197
 1881WAT     H2 8245   2.444   0.027   3.434 -0.4535 -1.7488  0.3152
 1881WAT    EPW 8246   2.379   0.033   3.392 -0.1507 -0.1378  0.0201
 1882WAT      O 8247   4.137   5.897   4.898 -0.4964 -0.0193 -0.4560
 1882WAT     H1 8248   4.147   5.814   4.923  1.2767 -0.4818 -2.3720
 1882WAT     H2 8249   4.073   5.894   4.839 -0.2786 -0.0752 -0.6913
 1882WAT    EPW 8250   4.129   5.885   4.893 -0.2023 -0.0959 -0.7738
 1883WAT      O 8251   4.083   3.469   2.998 -0.1228 -0.2844 -0.4670
 1883WAT     H1 8252   4.110   3.550   3.017 -1.7283 -0.0759  1.1964
 1883WAT     H2 8253   4.134   3.446   2.931 -0.2334  2.4552 -1.6264
 1883WAT    EPW 8254   4.095   3.477   2.991 -0.3763  0.1511 -0.3926
 1884WAT      O 8255   3.945   5.584   2.212  0.4089  0.0701 -0.3303
 1884WAT     H1 8256   3.958   5.621   2.290 -0.6182 -0.3368  0.0459
 1884WAT     H2 8257   3.994   5.513   2.214  2.1544  1.1948 -0.9352
 1884WAT    EPW 8258   3.954   5.579   2.224  0.5150  0.1761 -0.3641
 1885WAT      O 8259   6.764   1.160   1.216  0.2920  0.2278 -0.2781
 1885WAT     H1 8260   6.820   1.094   1.221 -1.3781 -1.1756  2.8076
 1885WAT     H2 8261   6.732   1.154   1.135  1.9407 -1.1732 -0.8708
 1885WAT    EPW 8262   6.767   1.150   1.205  0.2888 -0.1864  0.0902
 1886WAT      O 8263   5.269   3.916   4.429 -0.2635  0.0360 -0.7556
 1886WAT     H1 8264   5.322   3.882   4.488  0.2568  2.0625  0.0304
 1886WAT     H2 8265   5.259   3.852   4.371  2.6338 -0.6299 -0.6769
 1886WAT    EPW 8266   5.275   3.902   4.429  0.2413  0.2370 -0.6279
 1887WAT      O 8267   5.912   4.096   5.812  0.4417  0.3206  0.1975
 1887WAT     H1 8268   5.876   4.111   5.733 -0.2326  0.3409  0.4971
 1887WAT     H2 8269   5.931   4.176   5.841  1.1047  0.2866 -0.1254
 1887WAT    EPW 8270   5.909   4.110   5.804  0.4400  0.3186  0.1941
 1888WAT      O 8271   1.711   4.166   3.446 -0.0847 -0.2406 -0.1022
 1888WAT     H1 8272   1.746   4.088   3.431 -0.1650 -0.3548  0.2849
 1888WAT     H2 8273   1.706   4.170   3.533 -0.6181 -0.0493 -0.1349
 1888WAT    EPW 8274   1.715   4.155   3.457 -0.1754 -0.2292 -0.0499
 1889WAT      O 8275   4.367   0.984   1.186 -0.2267 -0.1115 -0.2056
 1889WAT     H1 8276   4.448   0.980   1.218 -0.3033 -1.3652 -0.1170
 1889WAT     H2 8277   4.318   0.996   1.257 -0.1457  0.3280 -0.2229
 1889WAT    EPW 8278   4.372   0.985   1.202 -0.2261 -0.2318 -0.1950
 1890WAT      O 8279   1.374   4.493   3.081  0.0399 -0.2330 -0.1685
 1890WAT     H1 8280   1.380   4.521   3.163 -1.7000 -2.1723  0.7239
 1890WAT     H2 8281   1.302   4.532   3.051  1.3023  1.3922 -1.2427
 1890WAT    EPW 8282   1.364   4.503   3.088 -0.0307 -0.2794 -0.1954
 1891WAT      O 8283   6.847   3.951   1.476  0.3437 -0.8628 -0.5334
 1891WAT     H1 8284   6.815   4.005   1.536  1.5160 -0.0302 -0.6145
 1891WAT     H2 8285   6.886   3.888   1.523  0.6222 -0.6071 -0.4219
 1891WAT    EPW 8286   6.848   3.949   1.492  0.5580 -0.7021 -0.5289
 1892WAT      O 8287   1.844   4.311   7.296 -0.3011 -0.0234  0.1839
 1892WAT     H1 8288   1.794   4.362   7.346  1.1337  0.3736  1.2793
 1892WAT     H2 8289   1.887   4.368   7.246 -0.2920 -0.2915 -0.1099
 1892WAT    EPW 8290   1.843   4.327   7.296 -0.0878 -0.0044  0.3023
 1893WAT      O 8291   0.609   4.208   6.842  0.7588  0.2902 -0.7971
 1893WAT     H1 8292   0.564   4.239   6.774 -0.0440 -0.2511 -0.5228
 1893WAT     H2 8293   0.588   4.124   6.846 -1.0779  0.7476  1.4954
 1893WAT    EPW 8294   0.600   4.200   6.833  0.3689  0.2778 -0.4179
 1894WAT      O 8295   4.655   3.563   0.654 -0.1355  0.1561 -0.4425
 1894WAT     H1 8296   4.613   3.552   0.577  0.9539 -0.0869 -1.0216
 1894WAT     H2 8297   4.701   3.636   0.642  0.3811 -0.1231 -0.1752
 1894WAT    EPW 8298   4.655   3.572   0.641  0.1018  0.0790 -0.4886
 1895WAT      O 8299   5.572   7.167   0.090 -0.4471  0.2504 -0.4644
 1895WAT     H1 8300   5.495   7.147   0.054 -0.2635 -1.1853 -0.1202
 1895WAT     H2 8301   5.583   7.106   0.151  0.6207  0.8893  0.0201
 1895WAT    EPW 8302   5.562   7.155   0.094 -0.2623  0.1327 -0.3420
 1896WAT      O 8303   7.041   1.470   2.439  0.0046 -0.2706 -0.3162
 1896WAT     H1 8304   6.980   1.508   2.389  0.5943 -0.8354 -1.5057
 1896WAT     H2 8305   7.031   1.385   2.422  1.1080 -0.3766 -0.5182
 1896WAT    EPW 8306   7.030   1.463   2.429  0.2547 -0.3697 -0.5217
 1897WAT      O 8307   1.021   6.008   2.385 -0.7918  0.1278  0.1509
 1897WAT     H1 8308   0.952   6.048   2.420 -1.3191 -1.1694  0.6265
 1897WAT     H2 8309   0.987   5.950   2.330  0.0107  2.4208 -3.0433
 1897WAT    EPW 8310   1.006   6.006   2.382 -0.7511  0.2749 -0.2507
 1898WAT      O 8311   2.649   2.760   0.944  0.1475 -0.5789 -0.5547
 1898WAT     H1 8312   2.646   2.835   0.900 -0.9112 -0.3040 -0.0566
 1898WAT     H2 8313   2.701   2.709   0.896  1.3893  0.6788 -0.5771
 1898WAT    EPW 8314   2.656   2.763   0.930  0.1745 -0.3525 -0.4845
 1899WAT      O 8315   1.539   0.512   0.405 -0.3506  0.1150  0.3626
 1899WAT     H1 8316   1.473   0.465   0.372  0.6238  0.5451 -2.4276
 1899WAT     H2 8317   1.603   0.453   0.413 -0.5146  0.0566  1.4235
 1899WAT    EPW 8318   1.539   0.496   0.402 -0.2309  0.1699  0.1071
 1900WAT      O 8319   6.373   2.779   2.923  0.0052  0.0591 -0.2283
 1900WAT     H1 8320   6.425   2.849   2.914  1.6121 -1.0153  0.2517
 1900WAT     H2 8321   6.307   2.809   2.971  0.2402  1.4380 -0.7165
 1900WAT    EPW 8322   6.371   2.794   2.929  0.2773  0.1041 -0.2295
 1901WAT      O 8323   5.390   3.859   1.475 -0.6392  0.1328  0.1336
 1901WAT     H1 8324   5.400   3.799   1.537  0.4819  0.0840 -0.0784
 1901WAT     H2 8325   5.472   3.877   1.450 -0.9242  1.8159  0.2636
 1901WAT    EPW 8326   5.404   3.853   1.480 -0.5157  0.3742  0.1215
 1902WAT      O 8327   3.018   5.083   4.409 -0.4011  0.4080  0.2932
 1902WAT     H1 8328   3.005   4.999   4.392 -0.4883  0.6466 -0.8464
 1902WAT     H2 8329   3.006   5.122   4.332 -0.4552  1.4740  0.8269
 1902WAT    EPW 8330   3.014   5.076   4.395 -0.4219  0.6007  0.2037
 1903WAT      O 8331   6.570   1.870   0.550 -0.4190  0.4851  0.4332
 1903WAT     H1 8332   6.621   1.931   0.515 -2.4183  2.5151  0.8688
 1903WAT     H2 8333   6.500   1.868   0.499 -1.2502 -0.0434  1.5300
 1903WAT    EPW 8334   6.567   1.878   0.537 -0.8371  0.7069  0.6596
 1904WAT      O 8335   3.220   4.759   2.407  0.7102 -0.2311  0.0435
 1904WAT     H1 8336   3.221   4.779   2.492  0.8976 -1.0894  0.2501
 1904WAT     H2 8337   3.138   4.730   2.394  0.2814  1.0765 -0.3676
 1904WAT    EPW 8338   3.208   4.757   2.417  0.6745 -0.1647  0.0133
 1905WAT      O 8339   5.190   6.932   2.602  0.5605 -0.6440  0.3580
 1905WAT     H1 8340   5.150   7.008   2.586 -0.5028 -0.7701  2.0905
 1905WAT     H2 8341   5.207   6.937   2.688  0.8677 -2.1823  0.4050
 1905WAT    EPW 8342   5.186   6.944   2.613  0.4488 -0.8899  0.6208
 1906WAT      O 8343   2.346   7.154   0.654  0.0828  0.3157 -0.0474
 1906WAT     H1 8344   2.259   7.144   0.651  0.1377 -0.4707 -4.1219
 1906WAT     H2 8345   2.356   7.241   0.655 -0.7705  0.4319 -0.2103
 1906WAT    EPW 8346   2.334   7.166   0.654 -0.0352  0.2167 -0.6734
 1907WAT      O 8347   4.121   6.959   0.458  0.1825 -0.2235  0.1199
 1907WAT     H1 8348   4.131   7.041   0.487  1.7558 -0.6048  0.8068
 1907WAT     H2 8349   4.059   6.965   0.398 -0.0375  1.3997  0.4709
 1907WAT    EPW 8350   4.113   6.972   0.453  0.3824 -0.0401  0.2733
 1908WAT      O 8351   4.223   0.626   7.213  0.2600 -0.5011  0.2527
 1908WAT     H1 8352   4.191   0.557   7.255  0.5742 -0.1810  1.0311
 1908WAT     H2 8353   4.241   0.683   7.277  1.2530 -0.2060 -0.2648
 1908WAT    EPW 8354   4.221   0.624   7.228  0.4531 -0.4102  0.2912
 1909WAT      O 8355   3.601   3.451   3.585  0.0247 -0.0903  0.1142
 1909WAT     H1 8356   3.535   3.456   3.643 -1.0120  2.6591 -1.1321
 1909WAT     H2 8357   3.654   3.516   3.610  1.3766 -1.1052 -0.0083
 1909WAT    EPW 8358   3.599   3.461   3.598  0.0712  0.1659 -0.0880
 1910WAT      O 8359   5.294   5.303   5.183  0.1944  0.4259 -0.2271
 1910WAT     H1 8360   5.326   5.223   5.200  1.4516  0.8386 -0.5622
 1910WAT     H2 8361   5.316   5.349   5.254  0.3654  0.7151 -0.4665
 1910WAT    EPW 8362   5.302   5.298   5.196  0.4053  0.5296 -0.3120
 1911WAT      O 8363   4.764   5.399   3.343 -0.2344 -0.3863 -0.3486
 1911WAT     H1 8364   4.785   5.465   3.290 -1.3006  1.9138  1.8551
 1911WAT     H2 8365   4.840   5.373   3.375  0.1121  1.0325  0.0528
 1911WAT    EPW 8366   4.778   5.405   3.340 -0.3407  0.1630  0.0363
 1912WAT      O 8367   3.804   0.193   6.655  0.0732 -0.8116  0.0181
 1912WAT     H1 8368   3.784   0.170   6.736 -1.0710 -1.2288 -0.3636
 1912WAT     H2 8369   3.737   0.243   6.630  0.1743 -1.0749 -0.8276
 1912WAT    EPW 8370   3.791   0.197   6.663 -0.0809 -0.9121 -0.1632
 1913WAT      O 8371   1.646   0.349   6.922 -0.1934  0.0074  0.4075
 1913WAT     H1 8372   1.662   0.308   6.997 -0.3052 -0.3453  0.2433
 1913WAT     H2 8373   1.714   0.327   6.871  0.4087  1.0626  0.7208
 1913WAT    EPW 8374   1.658   0.340   6.926 -0.1210  0.1112  0.4295
 1914WAT      O 8375   0.830   0.337   0.517 -0.0559 -0.1051 -0.0775
 1914WAT     H1 8376   0.750   0.351   0.485  0.7552  0.8925 -1.7980
 1914WAT     H2 8377   0.875   0.306   0.449  1.6905  1.9006  0.0638
 1914WAT    EPW 8378   0.825   0.335   0.503  0.3219  0.3385 -0.3108
 1915WAT      O 8379   6.211   6.568   2.547 -0.1902  0.4957 -0.3668
 1915WAT     H1 8380   6.177   6.528   2.617  1.0532  2.3029  1.3648
 1915WAT     H2 8381   6.193   6.652   2.560 -0.5572  0.8520 -2.6482
 1915WAT    EPW 8382   6.203   6.574   2.559 -0.0608  0.8153 -0.4480
 1916WAT      O 8383   0.402   6.579   1.408 -1.2097  0.6792 -0.2795
 1916WAT     H1 8384   0.484   6.606   1.396 -1.2024  0.5228 -0.5644
 1916WAT     H2 8385   0.360   6.651   1.436 -0.6065  0.3951  1.5323
 1916WAT    EPW 8386   0.408   6.594   1.411 -1.1195  0.6141 -0.0539
 1917WAT      O 8387   0.386   0.493   7.215 -0.7334 -0.4725  0.2568
 1917WAT     H1 8388   0.375   0.407   7.226 -2.4938 -0.0427  3.0290
 1917WAT     H2 8389   0.325   0.515   7.158 -0.5345 -1.0045 -0.1643
 1917WAT    EPW 8390   0.375   0.483   7.208 -0.9641 -0.4876  0.6041
 1918WAT      O 8391   4.821   6.549   5.143 -0.0455 -0.1344 -0.1958
 1918WAT     H1 8392   4.790   6.593   5.211 -1.8537 -1.7392  0.0950
 1918WAT     H2 8393   4.770   6.478   5.139 -0.4013  0.1678 -3.5922
 1918WAT    EPW 8394   4.809   6.545   5.153 -0.3651 -0.3268 -0.6546
 1919WAT      O 8395   1.052   1.178   4.596 -0.1094 -0.3406 -0.3550
 1919WAT     H1 8396   1.135   1.151   4.591 -0.4831 -1.6887  0.2751
 1919WAT     H2 8397   1.016   1.146   4.524 -0.2486 -0.3459 -0.2823
 1919WAT    EPW 8398   1.059   1.169   4.585 -0.1851 -0.5405 -0.2512
 1920WAT      O 8399   0.597   5.473   5.133 -0.0151 -0.0717 -0.5980
 1920WAT     H1 8400   0.566   5.481   5.052  1.1873 -0.1018 -1.0826
 1920WAT     H2 8401   0.530   5.441   5.178 -0.9580  0.7339 -1.3953
 1920WAT    EPW 8402   0.583   5.470   5.128  0.0232  0.0429 -0.7873
 1921WAT      O 8403   2.794   5.484   0.986 -0.0145 -0.5224  0.6934
 1921WAT     H1 8404   2.826   5.564   0.996  0.3321 -0.4217 -0.9577
 1921WAT     H2 8405   2.853   5.433   1.024  1.4836 -0.2232 -1.0970
 1921WAT    EPW 8406   2.807   5.488   0.993  0.2580 -0.4633  0.1850
 1922WAT      O 8407   1.054   5.945   1.085 -0.3066  0.8799 -0.2163
 1922WAT     H1 8408   1.128   5.988   1.069  0.0945  0.9981  1.7395
 1922WAT     H2 8409   1.060   5.923   1.169 -1.3906 -1.2899 -0.6210
 1922WAT    EPW 8410   1.066   5.948   1.095 -0.4075  0.5768  0.0128
 1923WAT      O 8411   5.862   3.284   2.340 -0.2438 -0.0474 -0.1567
 1923WAT     H1 8412   5.800   3.224   2.356 -0.1623 -0.0326  0.2234
 1923WAT     H2 8413   5.914   3.244   2.282 -0.8901  0.1303 -0.8765
 1923WAT    EPW 8414   5.860   3.269   2.334 -0.3273 -0.0189 -0.2069
 1924WAT      O 8415   5.092   0.492   0.927 -0.2445  0.4630 -0.5241
 1924WAT     H1 8416   5.109   0.550   0.990 -2.4778  0.9095 -0.2308
 1924WAT     H2 8417   5.155   0.433   0.936  1.6406  2.4129 -0.3045
 1924WAT    EPW 8418   5.104   0.491   0.938 -0.2959  0.8170 -0.4483
 1925WAT      O 8419   3.040   2.934   5.307 -0.3575  0.2360 -0.3839
 1925WAT     H1 8420   3.116   2.948   5.348  0.8821  0.8803 -2.7522
 1925WAT     H2 8421   3.023   3.009   5.267 -2.8456  0.4570  0.8534
 1925WAT    EPW 8422   3.049   2.947   5.307 -0.5419  0.3638 -0.5509
 1926WAT      O 8423   0.970   6.502   1.298  0.5261  0.0533  0.0844
 1926WAT     H1 8424   0.920   6.545   1.355 -2.0619 -0.3772 -1.7163
 1926WAT     H2 8425   0.913   6.453   1.253  2.7219 -1.3044 -1.4086
 1926WAT    EPW 8426   0.954   6.501   1.300  0.4682 -0.2109 -0.4022
 1927WAT      O 8427   6.659   1.618   3.781 -0.2123 -0.6105  0.1633
 1927WAT     H1 8428   6.581   1.601   3.816 -1.7420 -2.6893 -3.6534
 1927WAT     H2 8429   6.706   1.547   3.801 -0.7461 -1.3125 -0.9692
 1927WAT    EPW 8430   6.654   1.605   3.789 -0.5171 -1.0213 -0.5678
 1928WAT      O 8431   1.386   6.951   3.029 -0.2364 -0.2729  0.4931
 1928WAT     H1 8432   1.451   6.894   3.022 -0.7024 -0.6969 -0.4449
 1928WAT     H2 8433   1.415   7.006   3.091  1.1258 -0.2956 -0.0854
 1928WAT    EPW 8434   1.400   6.951   3.037 -0.1040 -0.3389  0.2691
 1929WAT      O 8435   1.962   3.530   6.767 -0.1862 -0.1103 -0.3281
 1929WAT     H1 8436   1.958   3.443   6.757  0.2248 -0.2204  0.4020
 1929WAT     H2 8437   1.962   3.560   6.685 -1.7544 -0.7134 -0.5925
 1929WAT    EPW 8438   1.961   3.521   6.753 -0.3571 -0.2157 -0.2593
 1930WAT      O 8439   1.052   5.592   6.559 -0.5964  0.1788  0.5466
 1930WAT     H1 8440   1.116   5.572   6.504 -1.7943 -0.4032 -0.6751
 1930WAT     H2 8441   1.094   5.628   6.627  0.9900 -0.0230 -0.2899
 1930WAT    EPW 8442   1.067   5.595   6.561 -0.5390  0.0630  0.2426
 1931WAT      O 8443   2.603   3.652   0.672 -0.4561  0.2619 -0.1034
 1931WAT     H1 8444   2.600   3.739   0.672 -1.4902  0.2380  0.0131
 1931WAT     H2 8445   2.578   3.631   0.591 -0.3250  0.0662 -0.0940
 1931WAT    EPW 8446   2.599   3.662   0.660 -0.5895  0.2295 -0.0848
 1932WAT      O 8447   1.804   1.658   5.703  0.0095  0.0550  0.6266
 1932WAT     H1 8448   1.735   1.666   5.755 -0.4316  0.2275  0.0358
 1932WAT     H2 8449   1.804   1.733   5.658  1.8340  0.9936  2.0761
 1932WAT    EPW 8450   1.794   1.670   5.704  0.2139  0.2192  0.7534
 1933WAT      O 8451   5.707   5.908   0.105  0.1961  0.1072 -0.1236
 1933WAT     H1 8452   5.766   5.962   0.069 -1.2001  0.5130 -1.9816
 1933WAT     H2 8453   5.741   5.829   0.093  0.5190  0.3556 -0.8950
 1933WAT    EPW 8454   5.720   5.905   0.098  0.0376  0.2038 -0.5120
 1934WAT      O 8455   4.567   0.413   5.965 -0.3080 -0.6568 -0.5751
 1934WAT     H1 8456   4.581   0.330   5.990  0.6016 -0.2602  0.3083
 1934WAT     H2 8457   4.483   0.425   5.981 -0.0701 -0.8748  1.0490
 1934WAT    EPW 8458   4.557   0.403   5.971 -0.1385 -0.6304 -0.2047
 1935WAT      O 8459   1.373   4.542   0.944  0.1360  0.3917  0.0134
 1935WAT     H1 8460   1.306   4.527   0.891  0.7929 -1.8216 -0.2711
 1935WAT     H2 8461   1.350   4.501   1.018  1.6600 -1.5092 -0.5007
 1935WAT    EPW 8462   1.360   4.534   0.947  0.4581 -0.2160 -0.1046
 1936WAT      O 8463   5.923   3.979   6.348  0.6589  0.5685 -0.3046
 1936WAT     H1 8464   6.009   3.990   6.355  1.2582 -1.7665 -2.7144
 1936WAT     H2 8465   5.910   3.966   6.263 -1.6665 -1.7793  0.2716
 1936WAT    EPW 8466   5.934   3.979   6.337  0.4039 -0.1233 -0.5755
 1937WAT      O 8467   2.284   5.039   4.827 -0.3871  0.2248  0.1453
 1937WAT     H1 8468   2.280   5.123   4.851 -0.4801  0.1261  0.4792
 1937WAT     H2 8469   2.246   5.038   4.748  0.1786  0.5982 -0.1440
 1937WAT    EPW 8470   2.278   5.051   4.819 -0.3173  0.2654  0.1519
 1938WAT      O 8471   0.237   3.199   5.126 -0.0208  0.2564  0.7964
 1938WAT     H1 8472   0.265   3.191   5.208  1.7686 -0.8428  0.1463
 1938WAT     H2 8473   0.256   3.122   5.090 -0.9073  0.6516 -0.6142
 1938WAT    EPW 8474   0.244   3.187   5.133  0.1125  0.1524  0.4920
 1939WAT      O 8475   3.873   2.151   6.196  0.5711 -0.2575 -0.4376
 1939WAT     H1 8476   3.947   2.173   6.236 -0.6605 -1.4691  2.8474
 1939WAT     H2 8477   3.881   2.065   6.183 -0.0507 -0.3124 -0.4920
 1939WAT    EPW 8478   3.885   2.142   6.200  0.2973 -0.4446  0.0396
 1940WAT      O 8479   0.504   1.256   6.694 -0.2836 -0.1029 -0.1801
 1940WAT     H1 8480   0.475   1.259   6.776  1.1177  0.2994  0.3401
 1940WAT     H2 8481   0.539   1.176   6.688 -2.0096 -0.8517 -1.0230
 1940WAT    EPW 8482   0.505   1.245   6.705 -0.3316 -0.1541 -0.2278
 1941WAT      O 8483   3.662   0.638   5.279  0.6032 -0.5054  0.3650
 1941WAT     H1 8484   3.594   0.645   5.225  1.2690  1.1546 -0.3211
 1941WAT     H2 8485   3.631   0.667   5.355  0.5632  0.4075  0.0107
 1941WAT    EPW 8486   3.648   0.643   5.282  0.6957 -0.1253  0.2113
 1942WAT      O 8487   0.258   1.038   6.553  0.0452 -0.5596  0.1351
 1942WAT     H1 8488   0.274   1.019   6.636 -1.9092 -1.0481  0.4413
 1942WAT     H2 8489   0.222   1.117   6.556 -0.8035 -0.9242 -0.1414
 1942WAT    EPW 8490   0.255   1.047   6.566 -0.3689 -0.6856  0.1395
 1943WAT      O 8491   5.269   0.756   4.603 -0.2579  0.3585  0.0768
 1943WAT     H1 8492   5.242   0.744   4.685 -0.5463 -0.5747 -0.1425
 1943WAT     H2 8493   5.319   0.686   4.588 -0.1921  0.5347 -0.5349
 1943WAT    EPW 8494   5.272   0.744   4.613 -0.2908  0.2467 -0.0459
 1944WAT      O 8495   1.630   0.938   0.365 -0.1371 -0.0733 -0.0540
 1944WAT     H1 8496   1.629   0.882   0.432 -0.5394  1.1055  0.9654
 1944WAT     H2 8497   1.611   1.014   0.402  1.6940  1.0013 -1.1835
 1944WAT    EPW 8498   1.627   0.941   0.380  0.0740  0.2596 -0.0702
 1945WAT      O 8499   1.383   4.474   2.537 -0.1175 -0.8010 -0.4468
 1945WAT     H1 8500   1.366   4.393   2.509  1.0081 -1.1450 -0.1761
 1945WAT     H2 8501   1.443   4.463   2.599  0.4922  0.2716 -0.8057
 1945WAT    EPW 8502   1.389   4.460   2.542  0.1389 -0.6934 -0.4598
 1946WAT      O 8503   2.266   0.127   2.524 -0.2809  0.2379  0.2085
 1946WAT     H1 8504   2.195   0.083   2.498  0.9623 -0.1243 -3.0058
 1946WAT     H2 8505   2.330   0.068   2.515  0.7631  1.2796  0.6485
 1946WAT    EPW 8506   2.265   0.112   2.519  0.0570  0.3383 -0.2013
 1947WAT      O 8507   2.875   6.928   5.357 -0.5015 -0.0502 -0.9121
 1947WAT     H1 8508   2.891   6.948   5.440  0.2959 -0.0872 -1.0504
 1947WAT     H2 8509   2.871   7.005   5.317  1.4863 -0.0750 -1.2497
 1947WAT    EPW 8510   2.876   6.942   5.363 -0.0901 -0.0593 -0.9824
 1948WAT      O 8511   5.992   3.817   4.064  0.4153  0.5772 -0.1596
 1948WAT     H1 8512   5.998   3.751   4.007  0.6651  1.0024 -0.6344
 1948WAT     H2 8513   5.960   3.882   4.016 -0.8059  0.5267  0.5420
 1948WAT    EPW 8514   5.988   3.817   4.048  0.2718  0.6326 -0.1261
 1949WAT      O 8515   0.876   4.737   6.436  0.0482 -0.4757  0.1966
 1949WAT     H1 8516   0.940   4.748   6.378  0.0985 -2.2332 -0.1535
 1949WAT     H2 8517   0.871   4.650   6.444 -0.7318 -0.3119  1.9716
 1949WAT    EPW 8518   0.885   4.725   6.428 -0.0596 -0.7111  0.4071
 1950WAT      O 8519   3.928   2.482   3.153  0.1041 -0.2259  0.4541
 1950WAT     H1 8520   3.955   2.565   3.146  0.2145 -0.3888 -2.4797
 1950WAT     H2 8521   3.851   2.482   3.113 -1.3875 -1.0519  3.0651
 1950WAT    EPW 8522   3.921   2.494   3.146 -0.0999 -0.3720  0.4064
 1951WAT      O 8523   3.790   4.006   1.008  0.5706  0.4924  0.2449
 1951WAT     H1 8524   3.704   4.021   1.018  0.5678  0.8946 -0.3452
 1951WAT     H2 8525   3.811   4.052   0.937  1.6030  1.6286  1.2434
 1951WAT    EPW 8526   3.780   4.015   0.999  0.7227  0.7196  0.3052
 1952WAT      O 8527   1.948   6.836   4.911  0.1816 -0.6977 -0.2093
 1952WAT     H1 8528   2.000   6.769   4.891 -1.6428 -2.8049  1.5393
 1952WAT     H2 8529   1.962   6.849   4.996 -0.2054  0.5279 -0.3103
 1952WAT    EPW 8530   1.958   6.828   4.921 -0.1451 -0.8280  0.0341
 1953WAT      O 8531   3.237   2.785   6.767  0.6874 -0.2196  0.2276
 1953WAT     H1 8532   3.265   2.723   6.712  0.9015  0.7536 -0.8087
 1953WAT     H2 8533   3.310   2.827   6.789  0.6128 -0.6536  1.3510
 1953WAT    EPW 8534   3.252   2.782   6.762  0.7080 -0.1400  0.2405
 1954WAT      O 8535   2.792   4.041   1.133 -0.3835  0.1000  0.0956
 1954WAT     H1 8536   2.711   4.050   1.165 -1.1165 -3.2086 -0.4246
 1954WAT     H2 8537   2.840   4.025   1.204 -0.8271 -1.0060  0.1715
 1954WAT    EPW 8538   2.787   4.040   1.148 -0.5573 -0.5521  0.0300
 1955WAT      O 8539   6.758   6.881   5.579  0.1027 -0.3249 -0.6249
 1955WAT     H1 8540   6.817   6.834   5.624  0.7523  0.7524 -0.3077
 1955WAT     H2 8541   6.711   6.919   5.642  1.3553  1.6205 -0.7905
 1955WAT    EPW 8542   6.760   6.880   5.595  0.3837  0.1216 -0.6025
 1956WAT      O 8543   4.614   6.075   4.354  0.1758  0.2487 -0.4036
 1956WAT     H1 8544   4.595   6.013   4.412  0.7565  0.9951  0.6042
 1956WAT     H2 8545   4.551   6.135   4.366  1.4288  1.3726  0.9383
 1956WAT    EPW 8546   4.602   6.075   4.364  0.4467  0.5250 -0.0565
 1957WAT      O 8547   1.246   3.767   1.825 -0.2438 -0.8920  0.4065
 1957WAT     H1 8548   1.232   3.836   1.878 -0.2578 -0.0079 -0.7181
 1957WAT     H2 8549   1.225   3.699   1.875 -0.3201 -0.0830  1.5289
 1957WAT    EPW 8550   1.241   3.767   1.840 -0.2571 -0.6419  0.4062
 1958WAT      O 8551   0.649   5.791   6.108  0.3971  0.1703  0.0290
 1958WAT     H1 8552   0.724   5.769   6.070  0.6400 -0.1838  0.7022
 1958WAT     H2 8553   0.674   5.835   6.180 -0.0354  0.0269  0.2713
 1958WAT    EPW 8554   0.664   5.794   6.113  0.3691  0.0968  0.1642
 1959WAT      O 8555   0.608   7.045   2.768 -0.4055 -0.2967 -0.0177
 1959WAT     H1 8556   0.601   7.028   2.853 -0.7618 -2.6861 -0.4333
 1959WAT     H2 8557   0.525   7.056   2.742 -0.2070  2.1628  0.1679
 1959WAT    EPW 8558   0.595   7.044   2.776 -0.4288 -0.2864 -0.0517
 1960WAT      O 8559   2.254   2.103   4.764  0.3010  1.1701  0.1246
 1960WAT     H1 8560   2.230   2.045   4.704  1.0171  1.8916 -0.9030
 1960WAT     H2 8561   2.191   2.099   4.824 -0.8437  0.9706 -1.0611
 1960WAT    EPW 8562   2.241   2.094   4.764  0.2377  1.2472 -0.2024
 1961WAT      O 8563   3.720   1.003   5.851  0.2449 -0.4649  0.3794
 1961WAT     H1 8564   3.759   1.044   5.918 -1.0980  0.9249  0.3565
 1961WAT     H2 8565   3.692   1.068   5.800  1.7309 -1.4922 -1.8837
 1961WAT    EPW 8566   3.722   1.018   5.853  0.2660 -0.4113  0.0417
 1962WAT      O 8567   1.238   5.193   5.982 -0.5075 -0.1630  0.1007
 1962WAT     H1 8568   1.275   5.121   6.014  1.1123  0.3099 -0.6027
 1962WAT     H2 8569   1.272   5.199   5.902 -1.4740  0.8005 -0.2588
 1962WAT    EPW 8570   1.248   5.183   5.975 -0.4110  0.0491 -0.0563
 1963WAT      O 8571   2.484   3.882   7.046 -0.1093 -0.5062  0.4395
 1963WAT     H1 8572   2.568   3.878   7.067 -0.2430 -0.9134  0.9106
 1963WAT     H2 8573   2.466   3.802   7.017 -0.1043 -0.1500 -0.5776
 1963WAT    EPW 8574   2.494   3.870   7.045 -0.1283 -0.5138  0.3589
 1964WAT      O 8575   2.751   0.531   1.832  0.0186  0.6887 -0.3374
 1964WAT     H1 8576   2.784   0.612   1.834 -1.2886  1.2402  0.9350
 1964WAT     H2 8577   2.738   0.512   1.916  2.5926 -1.9012 -0.3490
 1964WAT    EPW 8578   2.754   0.540   1.845  0.2057  0.3876 -0.1512
 1965WAT      O 8579   0.207   5.109   1.025 -0.2387 -0.1221 -0.5675
 1965WAT     H1 8580   0.126   5.106   1.057 -0.3617 -1.2207 -0.9428
 1965WAT     H2 8581   0.235   5.027   1.034  0.5868  0.1007 -1.0643
 1965WAT    EPW 8582   0.199   5.096   1.031 -0.1349 -0.2515 -0.6963
 1966WAT      O 8583   0.771   0.319   5.701  0.1156  0.0008 -0.0212
 1966WAT     H1 8584   0.746   0.324   5.784 -1.0527  0.3634 -0.3674
 1966WAT     H2 8585   0.858   0.320   5.705  0.0859 -0.5186  1.2199
 1966WAT    EPW 8586   0.780   0.319   5.714 -0.0614 -0.0223  0.1110
 1967WAT      O 8587   4.154   2.158   7.158 -0.2820 -0.0733 -0.2939
 1967WAT     H1 8588   4.153   2.116   7.234 -2.2748  0.9129  0.3204
 1967WAT     H2 8589   4.069   2.161   7.136  0.0522  1.4167 -1.5346
 1967WAT    EPW 8590   4.141   2.152   7.166 -0.5270  0.2925 -0.3864
 1968WAT      O 8591   5.894   2.325   4.007  0.1658  0.2208 -0.0449
 1968WAT     H1 8592   5.870   2.248   4.041  0.0935 -0.0372 -0.6711
 1968WAT     H2 8593   5.914   2.305   3.924 -1.0265  1.0837 -0.5615
 1968WAT    EPW 8594   5.893   2.310   4.000 -0.0210  0.3102 -0.2137
 1969WAT      O 8595   1.537   1.403   6.622  0.4952  0.1548  0.0652
 1969WAT     H1 8596   1.452   1.415   6.605  0.0518 -1.0971  1.1661
 1969WAT     H2 8597   1.536   1.345   6.688  2.2503 -1.7157 -1.4396
 1969WAT    EPW 8598   1.524   1.396   6.630  0.6889 -0.3064  0.0056
 1970WAT      O 8599   1.186   3.669   2.078 -0.1671  0.1090 -0.1665
 1970WAT     H1 8600   1.105   3.701   2.082  0.1152  0.9414 -0.7149
 1970WAT     H2 8601   1.185   3.602   2.133 -1.4606 -0.4050 -0.7823
 1970WAT    EPW 8602   1.174   3.664   2.086 -0.3164  0.1560 -0.3385
 1971WAT      O 8603   0.308   1.592   4.287 -0.0769  0.3933  0.3863
 1971WAT     H1 8604   0.357   1.590   4.360  1.6785 -1.2347 -0.7421
 1971WAT     H2 8605   0.366   1.609   4.224 -1.0700 -0.8604 -0.9247
 1971WAT    EPW 8606   0.324   1.594   4.289  0.0357 -0.0324  0.0259
 1972WAT      O 8607   2.776   5.854   2.933 -0.1962  0.1265  0.1405
 1972WAT     H1 8608   2.815   5.928   2.910 -0.0189 -0.3026 -1.0149
 1972WAT     H2 8609   2.691   5.874   2.932 -0.3024 -0.1403 -2.1553
 1972WAT    EPW 8610   2.769   5.868   2.929 -0.1857  0.0237 -0.3694
 1973WAT      O 8611   0.852   5.266   5.044  0.2918  1.0676  0.6005
 1973WAT     H1 8612   0.872   5.183   5.064  0.4814  0.3258 -2.2041
 1973WAT     H2 8613   0.765   5.267   5.045  0.2612  0.5199 -0.3250
 1973WAT    EPW 8614   0.842   5.254   5.047  0.3153  0.8771  0.0495
 1974WAT      O 8615   1.687   3.457   5.908  0.4095  0.1859  0.1222
 1974WAT     H1 8616   1.760   3.505   5.916  0.2107  0.4119  0.6254
 1974WAT     H2 8617   1.669   3.434   5.990  1.1225 -1.7073 -0.1947
 1974WAT    EPW 8618   1.695   3.461   5.921  0.4854 -0.0604  0.1497
 1975WAT      O 8619   0.249   1.623   5.069  0.1237 -0.3447 -0.0587
 1975WAT     H1 8620   0.185   1.579   5.109 -0.5398 -0.3904 -1.1276
 1975WAT     H2 8621   0.300   1.561   5.036 -1.4205 -0.4191 -2.5364
 1975WAT    EPW 8622   0.247   1.608   5.070 -0.2024 -0.3624 -0.5826
 1976WAT      O 8623   0.424   0.046   5.196 -0.2619  0.0029  0.5242
 1976WAT     H1 8624   0.496   0.080   5.160  0.0490 -1.5314 -0.3883
 1976WAT     H2 8625   0.454  -0.023   5.241 -1.2152 -1.1468 -0.5294
 1976WAT    EPW 8626   0.439   0.041   5.198 -0.3568 -0.3936  0.2337
 1977WAT      O 8627   4.431   6.888   7.360 -0.2950  0.5484 -0.8352
 1977WAT     H1 8628   4.410   6.970   7.340 -1.1986 -0.1582 -3.0551
 1977WAT     H2 8629   4.401   6.879   7.442 -2.5377  1.6663 -1.4474
 1977WAT    EPW 8630   4.424   6.899   7.369 -0.7598  0.6092 -1.2536
 1978WAT      O 8631   5.131   4.577   3.166  0.2927 -0.5155 -0.0316
 1978WAT     H1 8632   5.139   4.492   3.183  0.4338 -0.4650  0.1584
 1978WAT     H2 8633   5.123   4.580   3.079 -3.8112 -1.0262  0.1260
 1978WAT    EPW 8634   5.131   4.565   3.156 -0.2927 -0.5835  0.0197
 1979WAT      O 8635   2.125   6.915   3.303 -0.1615 -0.2159  0.3328
 1979WAT     H1 8636   2.078   6.987   3.289 -1.6341 -1.4009 -1.3167
 1979WAT     H2 8637   2.111   6.898   3.388 -1.1576  0.5399  0.3391
 1979WAT    EPW 8638   2.116   6.923   3.313 -0.5262 -0.2793  0.0900
 1980WAT      O 8639   5.643   4.531   1.441  0.3418 -0.1990 -0.2522
 1980WAT     H1 8640   5.604   4.523   1.519 -0.7559 -0.9675 -0.8614
 1980WAT     H2 8641   5.602   4.472   1.391  1.0876  0.2206 -1.3927
 1980WAT    EPW 8642   5.631   4.521   1.445  0.2898 -0.2506 -0.5107
 1981WAT      O 8643   0.473   2.899   0.356 -0.1102 -0.3059  0.1304
 1981WAT     H1 8644   0.525   2.934   0.416 -0.7377  0.3901  0.2731
 1981WAT     H2 8645   0.416   2.962   0.338  1.1104  0.2130 -2.5420
 1981WAT    EPW 8646   0.472   2.913   0.362 -0.0226 -0.1265 -0.2433
 1982WAT      O 8647   1.415   4.894   2.051  0.0699  0.1352 -0.6748
 1982WAT     H1 8648   1.470   4.962   2.054 -0.4357  0.5239  0.1785
 1982WAT     H2 8649   1.348   4.923   2.005  0.2782 -0.1137 -1.1383
 1982WAT    EPW 8650   1.413   4.908   2.045  0.0260  0.1558 -0.6172
 1983WAT      O 8651   1.924   2.603   3.933 -0.0495 -0.7504 -0.5575
 1983WAT     H1 8652   1.915   2.620   4.018  0.9255 -2.2190 -0.1124
 1983WAT     H2 8653   1.990   2.546   3.931  0.8603  0.2809 -2.4331
 1983WAT    EPW 8654   1.933   2.597   3.945  0.2289 -0.8150 -0.7688
 1984WAT      O 8655   4.485   6.779   5.135 -0.3727 -0.8909 -0.0348
 1984WAT     H1 8656   4.413   6.755   5.093 -0.4050 -0.5825 -0.1575
 1984WAT     H2 8657   4.467   6.759   5.218 -0.7854 -0.3924  0.0014
 1984WAT    EPW 8658   4.472   6.773   5.141 -0.4384 -0.7717 -0.0476
 1985WAT      O 8659   6.965   5.193   3.178 -0.1233 -0.0333  0.1971
 1985WAT     H1 8660   7.035   5.198   3.229  1.3860  1.5589 -1.8595
 1985WAT     H2 8661   6.979   5.120   3.132 -0.6115 -0.5175  0.7882
 1985WAT    EPW 8662   6.977   5.183   3.179  0.0276  0.1304 -0.0194
 1986WAT      O 8663   3.687   4.931   1.404 -0.2772  0.3679 -0.2535
 1986WAT     H1 8664   3.752   4.878   1.380  1.1443  0.7868  2.3405
 1986WAT     H2 8665   3.703   5.004   1.358  1.5529  0.7006  0.8084
 1986WAT    EPW 8666   3.699   4.934   1.393  0.2031  0.4789  0.2865
 1987WAT      O 8667   6.158   0.113   1.886  0.0107 -0.0139  0.0561
 1987WAT     H1 8668   6.087   0.149   1.921 -0.5749 -0.7600 -0.3463
 1987WAT     H2 8669   6.132   0.034   1.862  1.2280 -0.6508  0.7370
 1987WAT    EPW 8670   6.144   0.107   1.887  0.1040 -0.2182  0.0973
 1988WAT      O 8671   0.125   2.241   4.304  0.0190 -0.0386 -0.0176
 1988WAT     H1 8672   0.195   2.224   4.256  0.8947 -0.7015  1.4149
 1988WAT     H2 8673   0.133   2.326   4.322 -0.8242  0.4523 -1.7467
 1988WAT    EPW 8674   0.137   2.251   4.300  0.0238 -0.0640 -0.0614
 1989WAT      O 8675   4.361   1.687   0.568 -0.6529  0.2887  0.2245
 1989WAT     H1 8676   4.400   1.653   0.498 -3.2663 -0.7156 -0.8807
 1989WAT     H2 8677   4.342   1.769   0.543 -1.4164 -0.0105 -0.2152
 1989WAT    EPW 8678   4.364   1.694   0.554 -1.1517  0.0961 -0.0037
 1990WAT      O 8679   4.815   5.695   7.337  0.0922 -0.5247  0.3317
 1990WAT     H1 8680   4.853   5.701   7.415  2.4211  1.0173 -0.8248
 1990WAT     H2 8681   4.755   5.758   7.338  0.4534 -0.1812  0.7109
 1990WAT    EPW 8682   4.812   5.705   7.349  0.4896 -0.2462  0.2168
 1991WAT      O 8683   6.563   3.241   6.832 -0.0319  0.3813  0.2359
 1991WAT     H1 8684   6.577   3.188   6.899  0.8002 -0.3691 -0.4954
 1991WAT     H2 8685   6.535   3.315   6.869  0.8686  0.1479  1.4497
 1991WAT    EPW 8686   6.561   3.244   6.847  0.2241  0.2360  0.3072
 1992WAT      O 8687   4.059   5.925   3.784  0.0381  0.4928 -0.2251
 1992WAT     H1 8688   4.058   5.932   3.871  0.7222 -0.7586 -0.1007
 1992WAT     H2 8689   4.139   5.896   3.766 -0.8145 -1.5168 -1.0571
 1992WAT    EPW 8690   4.071   5.922   3.794  0.0132  0.0111 -0.3296
 1993WAT      O 8691   7.185   2.159   4.128 -0.2336 -0.0248  0.5951
 1993WAT     H1 8692   7.210   2.077   4.141  0.9502  0.0466 -0.9594
 1993WAT     H2 8693   7.237   2.206   4.179 -0.1308 -0.1729  0.6258
 1993WAT    EPW 8694   7.196   2.154   4.137 -0.0435 -0.0362  0.3700
 1994WAT      O 8695   0.066   2.879   6.775  0.3042 -0.6884 -0.2718
 1994WAT     H1 8696  -0.017   2.885   6.749  0.0541 -0.6145  0.5241
 1994WAT     H2 8697   0.060   2.876   6.862  1.1312 -0.7768 -0.2120
 1994WAT    EPW 8698   0.053   2.879   6.784  0.3894 -0.6906 -0.1454
 1995WAT      O 8699   1.048   0.803   6.040 -0.4299  0.2078 -0.3271
 1995WAT     H1 8700   1.049   0.759   5.964 -3.0310  0.4688 -0.6281
 1995WAT     H2 8701   1.009   0.747   6.095 -0.6138  0.8504  0.2135
 1995WAT    EPW 8702   1.042   0.788   6.037 -0.8413  0.3413 -0.2917
 1996WAT      O 8703   3.385   2.531   4.353 -0.1811  1.0999  0.3947
 1996WAT     H1 8704   3.395   2.582   4.282  0.4140  1.7673  0.9413
 1996WAT     H2 8705   3.328   2.470   4.327 -0.5272  1.7605 -0.4353
 1996WAT    EPW 8706   3.378   2.530   4.339 -0.1443  1.2960  0.3528
 1997WAT      O 8707   4.261   3.192   7.275 -0.0746  0.2524 -0.2062
 1997WAT     H1 8708   4.312   3.125   7.252  2.7564  0.7032  3.7249
 1997WAT     H2 8709   4.196   3.155   7.319 -0.0389 -0.0650 -0.4194
 1997WAT    EPW 8710   4.259   3.177   7.278  0.3489  0.2721  0.3430
 1998WAT      O 8711   0.764   7.030   5.473 -0.2296 -0.2371  0.4350
 1998WAT     H1 8712   0.687   7.056   5.506 -0.6923  1.9921 -2.0609
 1998WAT     H2 8713   0.743   6.969   5.415 -0.0511 -0.0430  0.1642
 1998WAT    EPW 8714   0.750   7.025   5.469 -0.2716  0.1209  0.0263
 1999WAT      O 8715   4.345   3.961   1.954  0.1218  0.0388  0.0483
 1999WAT     H1 8716   4.407   4.009   1.916 -1.0260  1.1546 -0.4643
 1999WAT     H2 8717   4.292   3.939   1.888 -0.4815 -0.2031  0.6050
 1999WAT    EPW 8718   4.346   3.965   1.939 -0.1369  0.1679  0.0548
 2000WAT      O 8719   6.378   6.397   2.061 -0.5477  0.0983 -0.0961
 2000WAT     H1 8720   6.421   6.343   2.008 -0.7179 -0.6278  0.4865
 2000WAT     H2 8721   6.324   6.344   2.105 -2.4592  1.0245 -1.1895
 2000WAT    EPW 8722   6.376   6.381   2.060 -0.8552  0.1278 -0.1715
 2001WAT      O 8723   2.772   2.231   5.528  0.0982  0.4363  0.2602
 2001WAT     H1 8724   2.762   2.266   5.449  0.2445  0.9317  0.4529
 2001WAT     H2 8725   2.743   2.294   5.582  0.4892  0.3128  0.6211
 2001WAT    EPW 8726   2.766   2.245   5.525  0.1776  0.4912  0.3420
 2002WAT      O 8727   1.107   1.459   1.325 -0.2213  0.4898 -0.6014
 2002WAT     H1 8728   1.169   1.399   1.341 -2.0762 -1.7854 -1.4570
 2002WAT     H2 8729   1.101   1.461   1.238 -2.8176 -1.0871 -0.5675
 2002WAT    EPW 8730   1.115   1.450   1.315 -0.8789 -0.0792 -0.7228
 2003WAT      O 8731   1.927   4.430   4.297 -0.3886 -0.9789  0.2479
 2003WAT     H1 8732   1.841   4.442   4.291 -0.4672 -1.2175  0.8271
 2003WAT     H2 8733   1.935   4.346   4.319  0.0223 -1.1498 -0.5426
 2003WAT    EPW 8734   1.915   4.420   4.300 -0.3395 -1.0394  0.2167
 2004WAT      O 8735   6.947   0.361   0.051 -0.7582  0.1274 -0.0347
 2004WAT     H1 8736   6.898   0.331   0.117 -1.6695 -0.9023 -1.1244
 2004WAT     H2 8737   7.002   0.416   0.090 -1.6483  0.0065  1.4976
 2004WAT    EPW 8738   6.948   0.365   0.066 -1.0243 -0.0426  0.0307
 2005WAT      O 8739   2.945   6.376   7.236 -0.2788 -0.0290  0.1714
 2005WAT     H1 8740   3.009   6.316   7.237 -0.9670 -0.7895  0.0392
 2005WAT     H2 8741   2.904   6.363   7.311 -0.8656 -0.2027 -0.1744
 2005WAT    EPW 8742   2.949   6.365   7.247 -0.4672 -0.1670  0.1008
 2006WAT      O 8743   4.714   0.686   3.727 -0.5030  0.2514 -0.7042
 2006WAT     H1 8744   4.699   0.722   3.805 -0.3893 -0.9070 -0.1125
 2006WAT     H2 8745   4.782   0.731   3.696  0.8108 -0.5824  0.8063
 2006WAT    EPW 8746   4.722   0.698   3.734 -0.2922 -0.0429 -0.3937
 2007WAT      O 8747   5.278   2.930   2.540 -0.2310 -0.3682  0.4658
 2007WAT     H1 8748   5.199   2.962   2.525 -0.3465 -1.4533 -1.4275
 2007WAT     H2 8749   5.332   2.996   2.518 -0.5486  0.1489  1.1758
 2007WAT    EPW 8750   5.274   2.945   2.535 -0.2950 -0.4521  0.2910
 2008WAT      O 8751   1.848   2.489   5.658  0.3210 -0.1366  0.2383
 2008WAT     H1 8752   1.847   2.415   5.705 -0.2669 -0.2224  0.0877
 2008WAT     H2 8753   1.815   2.465   5.581 -1.6835  0.7013  0.7942
 2008WAT    EPW 8754   1.843   2.474   5.654 -0.0619 -0.0255  0.2982
 2009WAT      O 8755   0.990   2.906   1.988  0.2590 -0.1406  0.3146
 2009WAT     H1 8756   1.024   2.869   1.916  0.5333  0.7546 -0.0265
 2009WAT     H2 8757   1.022   2.857   2.053  2.6489  0.9700  0.0548
 2009WAT    EPW 8758   0.999   2.893   1.987  0.6526  0.1557  0.2258
 2010WAT      O 8759   2.563   1.597   2.938 -0.2487 -0.5265  0.3008
 2010WAT     H1 8760   2.538   1.523   2.899 -1.8906 -0.4291  1.0803
 2010WAT     H2 8761   2.501   1.610   2.998  1.2850  0.2268  1.7846
 2010WAT    EPW 8762   2.550   1.588   2.941 -0.2647 -0.4009  0.6351
 2011WAT      O 8763   2.266   3.026   7.306 -0.0103 -0.4821  0.4644
 2011WAT     H1 8764   2.327   3.032   7.368  0.0750  2.0232  0.2425
 2011WAT     H2 8765   2.277   3.099   7.259 -2.4917 -0.4520 -0.2233
 2011WAT    EPW 8766   2.277   3.038   7.308 -0.3643 -0.1076  0.3301
 2012WAT      O 8767   4.695   7.184   6.401 -0.4831 -0.0611  0.1028
 2012WAT     H1 8768   4.715   7.136   6.471  0.0390  0.6347  0.4452
 2012WAT     H2 8769   4.763   7.173   6.348 -0.8524 -0.5429 -0.2792
 2012WAT    EPW 8770   4.708   7.175   6.404 -0.4605 -0.0295  0.0970
 2013WAT      O 8771   0.887   6.351   3.656  0.1383  0.4020  0.0779
 2013WAT     H1 8772   0.832   6.326   3.592  1.2170 -1.1714 -0.3041
 2013WAT     H2 8773   0.873   6.292   3.719  0.5903  0.6676  0.4313
 2013WAT    EPW 8774   0.877   6.339   3.656  0.3645  0.2088  0.0737
 2014WAT      O 8775   4.632   5.067   3.695 -0.2152  0.7795 -0.8799
 2014WAT     H1 8776   4.697   5.010   3.681 -1.4163 -1.2113  0.9336
 2014WAT     H2 8777   4.670   5.131   3.741  0.6591  0.1574 -0.7151
 2014WAT    EPW 8778   4.648   5.068   3.700 -0.2635  0.3935 -0.5877
 2015WAT      O 8779   0.550   6.588   2.701 -0.5061 -0.1003 -0.1926
 2015WAT     H1 8780   0.498   6.576   2.632 -0.1609 -2.4465 -0.1183
 2015WAT     H2 8781   0.502   6.559   2.768  0.0246 -0.0114  0.2333
 2015WAT    EPW 8782   0.535   6.582   2.700 -0.3767 -0.4338 -0.1187
 2016WAT      O 8783   0.836   6.065   4.624 -0.1541  0.0188  0.0174
 2016WAT     H1 8784   0.867   5.993   4.585 -1.7169 -0.8439  0.2692
 2016WAT     H2 8785   0.874   6.064   4.702 -0.1223 -0.5225  0.0017
 2016WAT    EPW 8786   0.846   6.054   4.630 -0.3802 -0.1886  0.0522
 2017WAT      O 8787   3.162   1.537   4.504  0.6665 -0.0853  0.0564
 2017WAT     H1 8788   3.185   1.616   4.474  1.8941 -1.3776 -2.7756
 2017WAT     H2 8789   3.099   1.555   4.562  0.6310  2.9280 -0.7294
 2017WAT    EPW 8790   3.156   1.551   4.509  0.8426  0.1689 -0.4780
 2018WAT      O 8791   5.434   1.154   5.654  0.1076  0.3126  0.1408
 2018WAT     H1 8792   5.398   1.177   5.731 -0.1918  2.1074 -0.5036
 2018WAT     H2 8793   5.514   1.188   5.657  0.0513  0.4980 -0.4027
 2018WAT    EPW 8794   5.440   1.162   5.666  0.0550  0.6051 -0.0347
 2019WAT      O 8795   5.795   2.782   1.051  0.1146 -0.3160 -0.1473
 2019WAT     H1 8796   5.818   2.788   1.135  1.1539 -1.8811 -0.2826
 2019WAT     H2 8797   5.738   2.716   1.049  0.9726 -1.0649 -0.8019
 2019WAT    EPW 8798   5.790   2.773   1.063  0.3949 -0.6578 -0.2640
 2020WAT      O 8799   6.620   4.009   2.858  0.2655 -0.2481  0.1052
 2020WAT     H1 8800   6.557   3.960   2.823  2.1299 -2.3120 -0.5822
 2020WAT     H2 8801   6.663   4.040   2.789  2.5085 -2.3946  0.3753
 2020WAT    EPW 8802   6.617   4.006   2.843  0.8723 -0.8701  0.0436
 2021WAT      O 8803   5.898   6.930   2.587  0.0631  0.2020  0.7172
 2021WAT     H1 8804   5.961   6.891   2.541 -1.1366 -0.7802 -0.1538
 2021WAT     H2 8805   5.934   6.940   2.666  1.8066  0.9602 -0.0989
 2021WAT    EPW 8806   5.913   6.926   2.592  0.1434  0.1689  0.4680
 2022WAT      O 8807   1.227   0.614   3.570  0.3660 -0.1232 -0.2162
 2022WAT     H1 8808   1.223   0.685   3.519  0.0206 -2.1216 -3.2686
 2022WAT     H2 8809   1.310   0.612   3.596  0.0837  2.0055  1.0393
 2022WAT    EPW 8810   1.239   0.624   3.566  0.2733 -0.1040 -0.4816
 2023WAT      O 8811   1.377   5.140   6.905  0.0426  0.1287 -0.0506
 2023WAT     H1 8812   1.429   5.093   6.853 -0.0586  1.0462 -1.0335
 2023WAT     H2 8813   1.421   5.215   6.915 -0.5822  0.4964  0.0077
 2023WAT    EPW 8814   1.391   5.144   6.899 -0.0647  0.3185 -0.1872
 2024WAT      O 8815   5.192   6.919   7.205  0.3088  0.1192  0.1725
 2024WAT     H1 8816   5.213   6.846   7.247  2.5938  1.7612  2.1668
 2024WAT     H2 8817   5.243   6.917   7.134 -1.0575 -1.0380 -0.8423
 2024WAT    EPW 8818   5.203   6.908   7.200  0.4445  0.1908  0.3172
 2025WAT      O 8819   3.657   3.575   2.350  0.1521  0.3533  0.1176
 2025WAT     H1 8820   3.691   3.651   2.375  1.9172 -0.6015  0.8398
 2025WAT     H2 8821   3.682   3.520   2.414 -2.2769 -0.5864  0.3805
 2025WAT    EPW 8822   3.666   3.578   2.363  0.0540  0.0734  0.2631
 2026WAT      O 8823   6.339   0.373   4.800 -0.0428  0.0373 -0.3840
 2026WAT     H1 8824   6.263   0.383   4.759 -0.2338 -1.2593 -0.3902
 2026WAT     H2 8825   6.398   0.390   4.738 -0.3205  0.3092 -0.5764
 2026WAT    EPW 8826   6.337   0.377   4.785 -0.1121 -0.1141 -0.4133
 2027WAT      O 8827   2.112   1.900   3.735  0.1803  0.4701 -0.2539
 2027WAT     H1 8828   2.192   1.907   3.702  0.1935  2.2448  0.0472
 2027WAT     H2 8829   2.122   1.843   3.801  1.9280  2.8293  1.7214
 2027WAT    EPW 8830   2.125   1.892   3.740  0.4405  1.0808  0.0824
 2028WAT      O 8831   0.858   5.887   0.858  0.1236  0.1469 -0.1687
 2028WAT     H1 8832   0.781   5.848   0.872 -1.1581  1.8981 -1.9054
 2028WAT     H2 8833   0.888   5.900   0.939 -2.0104  0.5406  0.6290
 2028WAT    EPW 8834   0.851   5.883   0.872 -0.3810  0.4637 -0.3074
 2029WAT      O 8835   1.687   2.966   0.362  0.3829  0.0998  0.3663
 2029WAT     H1 8836   1.697   3.003   0.440  0.4113  2.2532 -0.5966
 2029WAT     H2 8837   1.765   2.930   0.346  1.2859  2.0274  0.2029
 2029WAT    EPW 8838   1.700   2.966   0.371  0.5205  0.7027  0.1999
 2030WAT      O 8839   5.859   4.128   2.735  0.3250  0.0372 -0.3538
 2030WAT     H1 8840   5.863   4.211   2.706 -0.7700  0.2998  0.1778
 2030WAT     H2 8841   5.775   4.120   2.760  0.4276 -1.2274 -0.3777
 2030WAT    EPW 8842   5.847   4.139   2.734  0.1784 -0.1108 -0.2788
 2031WAT      O 8843   4.798   1.492   7.364 -0.5875 -0.2908 -0.5847
 2031WAT     H1 8844   4.828   1.482   7.282 -1.0751 -1.2701 -0.6596
 2031WAT     H2 8845   4.865   1.529   7.406  0.6441 -2.0713 -0.8489
 2031WAT    EPW 8846   4.812   1.496   7.358 -0.4776 -0.6984 -0.6348
 2032WAT      O 8847   6.145   4.241   1.526  0.2468  0.1582  0.3264
 2032WAT     H1 8848   6.148   4.154   1.518  1.8662  0.2556 -0.5091
 2032WAT     H2 8849   6.106   4.267   1.452 -0.5526  0.1427  0.7316
 2032WAT    EPW 8850   6.139   4.232   1.514  0.3679  0.1703  0.2628
 2033WAT      O 8851   6.082   3.322   2.824  0.0173  0.3093 -0.1325
 2033WAT     H1 8852   6.079   3.398   2.781 -0.1938  0.2878 -0.1561
 2033WAT     H2 8853   6.095   3.346   2.907 -1.1107  0.4283  0.0262
 2033WAT    EPW 8854   6.084   3.337   2.830 -0.1805  0.3237 -0.1125
 2034WAT      O 8855   7.055   0.725   0.054 -0.4155 -0.0586  0.7175
 2034WAT     H1 8856   6.983   0.676   0.053 -0.9549  0.7142  0.8088
 2034WAT     H2 8857   7.073   0.733   0.139 -0.7416  0.4667  0.7477
 2034WAT    EPW 8858   7.047   0.719   0.067 -0.5433  0.1332  0.7355
 2035WAT      O 8859   3.790   6.303   0.123  0.3720 -0.1247  0.2412
 2035WAT     H1 8860   3.821   6.314   0.042 -0.7668 -0.7674 -0.2901
 2035WAT     H2 8861   3.751   6.225   0.121  0.6119 -0.3167  1.5165
 2035WAT    EPW 8862   3.789   6.293   0.111  0.2392 -0.2480  0.3511
 2036WAT      O 8863   2.362   3.496   6.562 -0.2596 -0.4288  0.3712
 2036WAT     H1 8864   2.422   3.433   6.564  0.3545  0.0415 -1.5077
 2036WAT     H2 8865   2.354   3.519   6.646 -0.0736 -2.5564  1.0445
 2036WAT    EPW 8866   2.369   3.490   6.575 -0.1414 -0.6736  0.1931
 2037WAT      O 8867   6.298   1.523   4.927  0.5066  0.0515  0.4145
 2037WAT     H1 8868   6.298   1.553   5.009 -1.0416 -1.6863  1.1123
 2037WAT     H2 8869   6.259   1.587   4.882 -0.3646  0.2360  1.3833
 2037WAT    EPW 8870   6.292   1.537   4.933  0.1492 -0.1779  0.6607
 2038WAT      O 8871   5.363   0.237   3.053 -0.1320 -0.0787 -0.4357
 2038WAT     H1 8872   5.287   0.242   3.010 -0.5656  1.1962  0.4250
 2038WAT     H2 8873   5.344   0.190   3.124 -0.5280  1.4654  0.5301
 2038WAT    EPW 8874   5.349   0.231   3.057 -0.2545  0.3377 -0.1659
 2039WAT      O 8875   2.726   1.408   6.577  0.1773  0.1381 -0.2253
 2039WAT     H1 8876   2.785   1.425   6.639 -0.9419  0.6853  0.7247
 2039WAT     H2 8877   2.760   1.340   6.535  0.5763 -0.8410  1.5573
 2039WAT    EPW 8878   2.739   1.400   6.580  0.0709  0.0743  0.1784
 2040WAT      O 8879   1.733   7.086   3.783 -0.3302 -0.0974 -0.0433
 2040WAT     H1 8880   1.677   7.151   3.770  1.2378  1.4556  0.4752
 2040WAT     H2 8881   1.769   7.074   3.704 -0.4632 -0.2023 -0.0894
 2040WAT    EPW 8882   1.730   7.094   3.769 -0.1182  0.1165  0.0265
 2041WAT      O 8883   6.488   5.321   0.595 -0.1230 -0.1145  0.0710
 2041WAT     H1 8884   6.481   5.314   0.508  1.1268 -0.3657 -0.0336
 2041WAT     H2 8885   6.574   5.322   0.608 -0.2951 -0.5820  1.3534
 2041WAT    EPW 8886   6.500   5.320   0.584  0.0362 -0.2206  0.2450
 2042WAT      O 8887   1.932   4.046   0.314 -0.9560 -0.5074  0.0143
 2042WAT     H1 8888   1.883   4.100   0.363  0.6855  0.8741  0.2217
 2042WAT     H2 8889   1.950   4.094   0.244  0.4205 -0.8133  0.1343
 2042WAT    EPW 8890   1.927   4.061   0.311 -0.5101 -0.3485  0.0627
 2043WAT      O 8891   1.888   0.840   5.304 -0.2531 -0.6480  0.3499
 2043WAT     H1 8892   1.896   0.898   5.369  1.0954  1.0196 -1.2174
 2043WAT     H2 8893   1.820   0.791   5.329 -1.3262  1.4424  1.8627
 2043WAT    EPW 8894   1.879   0.841   5.317 -0.2124 -0.0929  0.3418
 2044WAT      O 8895   3.525   3.145   6.543 -0.1830  0.4562  0.3315
 2044WAT     H1 8896   3.566   3.209   6.500  0.0054  0.6272  0.7711
 2044WAT     H2 8897   3.462   3.121   6.487  1.2328 -0.6159 -0.8708
 2044WAT    EPW 8898   3.521   3.151   6.528  0.0540  0.3231  0.2188
 2045WAT      O 8899   2.814   6.342   0.073 -0.1094 -0.0159  0.2454
 2045WAT     H1 8900   2.732   6.372   0.079  0.0627  0.8222 -1.1051
 2045WAT     H2 8901   2.859   6.397   0.123 -0.2385  0.1260  0.2079
 2045WAT    EPW 8902   2.809   6.355   0.081 -0.1031  0.1289  0.0404
 2046WAT      O 8903   2.855   5.905   7.158 -0.5202  0.0130 -0.2889
 2046WAT     H1 8904   2.930   5.883   7.120 -0.7977  0.5876 -1.1998
 2046WAT     H2 8905   2.862   5.991   7.170 -0.4508 -0.1474  0.9709
 2046WAT    EPW 8906   2.867   5.914   7.154 -0.5510  0.0742 -0.2374
 2047WAT      O 8907   1.015   2.526   5.907  0.1582  0.1297  0.0462
 2047WAT     H1 8908   0.954   2.490   5.957  0.0203 -0.0442 -0.2434
 2047WAT     H2 8909   1.032   2.602   5.946  0.6087 -0.3382  0.7887
 2047WAT    EPW 8910   1.009   2.531   5.920  0.2043  0.0349  0.1131
 2048WAT      O 8911   0.601   1.022   5.379 -0.0528 -0.4256  0.4457
 2048WAT     H1 8912   0.539   1.022   5.440 -1.9574  1.1508 -1.3697
 2048WAT     H2 8913   0.578   1.087   5.325  3.0898  0.1406 -0.4388
 2048WAT    EPW 8914   0.589   1.032   5.380  0.1301 -0.1091  0.0469
 2049WAT      O 8915   0.998   3.886   4.396 -0.2920 -0.1765  0.2660
 2049WAT     H1 8916   1.044   3.847   4.459 -0.4206 -1.2690 -0.2845
 2049WAT     H2 8917   1.041   3.961   4.382  0.6231 -0.6207  0.5975
 2049WAT    EPW 8918   1.011   3.891   4.403 -0.1758 -0.4035  0.2336
 2050WAT      O 8919   6.064   3.164   6.921  0.2776  1.0855  0.5979
 2050WAT     H1 8920   6.067   3.144   6.836 -1.4408  2.3688  0.1716
 2050WAT     H2 8921   6.029   3.244   6.921 -0.0687  0.9661  2.5386
 2050WAT    EPW 8922   6.059   3.173   6.908 -0.0274  1.2574  0.8216
 2051WAT      O 8923   4.876   3.711   6.742  0.1348 -0.1667  0.6505
 2051WAT     H1 8924   4.930   3.651   6.709  2.1328  1.0063  1.6366
 2051WAT     H2 8925   4.845   3.673   6.815  0.4236 -0.4723  0.6148
 2051WAT    EPW 8926   4.879   3.697   6.748  0.4726 -0.0385  0.7909
 2052WAT      O 8927   4.921   0.988   6.932  0.2192 -0.1894  0.2686
 2052WAT     H1 8928   4.861   0.997   6.994 -0.4097  0.0145 -0.3647
 2052WAT     H2 8929   4.957   0.910   6.950 -0.0289 -0.1785  0.8234
 2052WAT    EPW 8930   4.918   0.978   6.944  0.0897 -0.1577  0.2570
 2053WAT      O 8931   0.197   1.369   1.879 -0.2205  0.2741  0.3606
 2053WAT     H1 8932   0.220   1.381   1.796  0.3384  0.0510  0.4754
 2053WAT     H2 8933   0.164   1.446   1.903 -0.9616  0.1627 -0.2423
 2053WAT    EPW 8934   0.195   1.382   1.870 -0.2474  0.2247  0.2885
 2054WAT      O 8935   0.596   0.151   5.552  0.1725  0.0610 -0.1704
 2054WAT     H1 8936   0.620   0.157   5.468 -0.4715 -1.2318 -0.4774
 2054WAT     H2 8937   0.659   0.194   5.595 -0.2253  1.9476 -1.4021
 2054WAT    EPW 8938   0.609   0.158   5.546  0.0186  0.1487 -0.3977
 2055WAT      O 8939   0.377   2.615   1.795  0.3387  0.3656  0.1428
 2055WAT     H1 8940   0.450   2.650   1.763  0.6697  0.8419  1.3726
 2055WAT     H2 8941   0.356   2.668   1.860  0.4814 -1.3374  1.6540
 2055WAT    EPW 8942   0.385   2.628   1.800  0.4087  0.1844  0.5477
 2056WAT      O 8943   4.655   1.964   0.840 -0.3246 -0.8219  0.0617
 2056WAT     H1 8944   4.709   2.017   0.796 -1.0542  0.2712  0.4453
 2056WAT     H2 8945   4.618   2.017   0.899 -0.9470 -1.8047  0.5747
 2056WAT    EPW 8946   4.657   1.980   0.842 -0.5243 -0.8056  0.1941
 2057WAT      O 8947   6.979   3.000   7.048  0.1878 -0.1593 -0.1046
 2057WAT     H1 8948   6.975   3.087   7.049  2.3293  0.0054 -0.7435
 2057WAT     H2 8949   6.992   2.981   6.964  2.7651 -0.8198  0.3561
 2057WAT    EPW 8950   6.980   3.010   7.036  0.8849 -0.2325 -0.1309
 2058WAT      O 8951   1.629   4.617   3.426  0.1011  0.3229  0.0796
 2058WAT     H1 8952   1.644   4.620   3.512  0.5650  1.2665 -0.0128
 2058WAT     H2 8953   1.687   4.559   3.397  1.0196  1.1243  0.2309
 2058WAT    EPW 8954   1.640   4.609   3.434  0.3053  0.5806  0.0883
 2059WAT      O 8955   6.291   0.241   4.414  0.2461 -0.1484 -0.2652
 2059WAT     H1 8956   6.246   0.235   4.339  1.8147  0.5496 -1.3289
 2059WAT     H2 8957   6.247   0.300   4.460 -2.0284 -2.1865  0.4010
 2059WAT    EPW 8958   6.278   0.249   4.410  0.1418 -0.3464 -0.3239
 2060WAT      O 8959   1.189   6.515   1.477 -0.1544 -0.3394  0.1212
 2060WAT     H1 8960   1.187   6.431   1.502 -1.3173  0.3465  2.5847
 2060WAT     H2 8961   1.116   6.523   1.429  0.3834 -0.9013 -0.8163
 2060WAT    EPW 8962   1.178   6.503   1.473 -0.2467 -0.3211  0.3466
 2061WAT      O 8963   2.594   5.863   6.176 -0.0478 -0.4306  0.0197
 2061WAT     H1 8964   2.586   5.778   6.159  1.0167 -1.0078  2.0480
 2061WAT     H2 8965   2.680   5.875   6.185 -0.2373  0.6416  0.7035
 2061WAT    EPW 8966   2.606   5.852   6.175  0.0815 -0.3575  0.4203
 2062WAT      O 8967   2.017   2.900   1.015 -0.4884  0.0633 -0.2602
 2062WAT     H1 8968   2.038   2.974   0.973 -1.3256  1.7177  2.0497
 2062WAT     H2 8969   2.094   2.868   1.040 -0.1320  0.3182 -0.9995
 2062WAT    EPW 8970   2.031   2.906   1.012 -0.5594  0.3453 -0.0282
 2063WAT      O 8971   7.161   1.563   2.687 -0.6082  0.2329 -0.3821
 2063WAT     H1 8972   7.100   1.524   2.638 -1.4709  0.8091  0.2111
 2063WAT     H2 8973   7.156   1.647   2.662  0.4111  0.1752 -0.8066
 2063WAT    EPW 8974   7.151   1.570   2.676 -0.5851  0.3095 -0.3572
 2064WAT      O 8975   7.227   6.235   2.225  0.0811 -0.1418  0.4402
 2064WAT     H1 8976   7.306   6.247   2.259  0.5670  0.0891 -0.7331
 2064WAT     H2 8977   7.242   6.197   2.148 -0.9189  0.2966  0.0028
 2064WAT    EPW 8978   7.241   6.231   2.218  0.0051 -0.0429  0.2023
 2065WAT      O 8979   6.730   0.231   4.796 -0.0124  0.6057 -0.1779
 2065WAT     H1 8980   6.746   0.200   4.876 -1.8975 -0.7384 -0.2487
 2065WAT     H2 8981   6.746   0.162   4.744  0.6597  1.2952 -0.9068
 2065WAT    EPW 8982   6.735   0.216   4.800 -0.1916  0.5090 -0.2960
 2066WAT      O 8983   5.397   5.497   4.264  0.1866 -0.4868  0.2346
 2066WAT     H1 8984   5.462   5.552   4.281  1.5881 -2.0311  0.0976
 2066WAT     H2 8985   5.332   5.524   4.316  1.1804  0.6069  0.9423
 2066WAT    EPW 8986   5.397   5.509   4.274  0.5405 -0.5534  0.3189
 2067WAT      O 8987   6.177   6.245   0.770 -0.2796  0.1357 -0.3091
 2067WAT     H1 8988   6.244   6.222   0.720 -0.4300 -0.4390 -0.2616
 2067WAT     H2 8989   6.120   6.280   0.714 -0.1882  0.0675 -0.4444
 2067WAT    EPW 8990   6.178   6.247   0.754 -0.2883  0.0408 -0.3221
 2068WAT      O 8991   2.548   6.309   3.770  0.3727 -0.3384  0.4398
 2068WAT     H1 8992   2.593   6.244   3.807  1.1279  0.2766  0.6211
 2068WAT     H2 8993   2.470   6.304   3.810  0.3602 -1.2279  0.3329
 2068WAT    EPW 8994   2.543   6.299   3.782  0.4824 -0.3789  0.4508
 2069WAT      O 8995   0.045   4.163   7.189 -0.4586 -0.0994  0.6360
 2069WAT     H1 8996   0.019   4.187   7.109 -3.1137 -1.9074  0.8115
 2069WAT     H2 8997   0.003   4.088   7.202  2.1252 -1.3491  2.6669
 2069WAT    EPW 8998   0.035   4.156   7.179 -0.4692 -0.5510  0.9619
 2070WAT      O 8999   4.174   2.498   1.363 -0.5901 -0.1277  0.5777
 2070WAT     H1 9000   4.182   2.584   1.361  1.6454 -0.2360  1.4640
 2070WAT     H2 9001   4.237   2.470   1.309 -2.1027 -1.2197 -0.7146
 2070WAT    EPW 9002   4.185   2.506   1.354 -0.4833 -0.3050  0.5177
 2071WAT      O 9003   6.513   5.378   4.545 -0.1221 -0.2308 -0.0865
 2071WAT     H1 9004   6.529   5.298   4.514 -0.3410  0.4808 -2.2047
 2071WAT     H2 9005   6.576   5.389   4.605  0.3601 -1.7014 -0.2759
 2071WAT    EPW 9006   6.525   5.368   4.549 -0.0832 -0.3429 -0.4274
 2072WAT      O 9007   5.740   3.436   5.880  0.3122 -0.9080 -0.3660
 2072WAT     H1 9008   5.655   3.455   5.890  0.0629 -1.2792 -1.5587
 2072WAT     H2 9009   5.768   3.425   5.962 -0.2763  1.2693  0.2034
 2072WAT    EPW 9010   5.731   3.437   5.894  0.1885 -0.6412 -0.4581
 2073WAT      O 9011   0.886   2.644   3.635  0.4676  0.1172 -0.1403
 2073WAT     H1 9012   0.877   2.693   3.706 -2.1603 -2.3623  1.4176
 2073WAT     H2 9013   0.822   2.671   3.582 -0.3317 -0.8708  0.2933
 2073WAT    EPW 9014   0.875   2.655   3.637 -0.0387 -0.3950  0.1539
 2074WAT      O 9015   6.157   3.612   1.330  0.0707  0.6582  0.0399
 2074WAT     H1 9016   6.212   3.545   1.319  1.9300  2.1291 -0.3687
 2074WAT     H2 9017   6.125   3.625   1.250 -0.9651 -0.2337  0.2881
 2074WAT    EPW 9018   6.161   3.604   1.317  0.1924  0.7438  0.0162
 2075WAT      O 9019   1.116   1.934   4.515  0.1036 -0.4262  0.0932
 2075WAT     H1 9020   1.076   2.011   4.529 -0.7762 -0.6824 -0.8755
 2075WAT     H2 9021   1.061   1.892   4.462  0.9432 -1.4277 -0.0086
 2075WAT    EPW 9022   1.102   1.939   4.509  0.0977 -0.6120 -0.0649
 2076WAT      O 9023   2.138   6.366   6.117 -0.2744 -0.4186 -0.1762
 2076WAT     H1 9024   2.110   6.338   6.195 -0.1269  0.3730  0.1632
 2076WAT     H2 9025   2.225   6.356   6.121 -0.3226 -1.0053 -0.4927
 2076WAT    EPW 9026   2.147   6.360   6.129 -0.2597 -0.3884 -0.1728
 2077WAT      O 9027   1.141   2.976   3.905  0.7440  0.1552 -0.0508
 2077WAT     H1 9028   1.211   3.024   3.885  1.4908 -0.7499  0.2798
 2077WAT     H2 9029   1.105   3.019   3.972  0.7935  0.8038 -0.4330
 2077WAT    EPW 9030   1.146   2.989   3.912  0.8616  0.1173 -0.0584
 2078WAT      O 9031   0.870   5.244   1.850  0.2589 -0.0171 -0.1386
 2078WAT     H1 9032   0.951   5.278   1.858 -0.7151  2.1989  1.1365
 2078WAT     H2 9033   0.845   5.272   1.771  0.3978  0.0398 -0.1644
 2078WAT    EPW 9034   0.878   5.253   1.839  0.1355  0.3186  0.0460
 2079WAT      O 9035   4.839   1.876   2.748  0.1175  0.3664 -0.1995
 2079WAT     H1 9036   4.837   1.899   2.832  3.1639  0.3688 -0.0452
 2079WAT     H2 9037   4.887   1.804   2.746 -0.3210  0.0610 -1.9059
 2079WAT    EPW 9038   4.846   1.869   2.760  0.5028  0.3217 -0.4288
 2080WAT      O 9039   5.164   3.788   3.810 -0.0126  0.2242  0.0368
 2080WAT     H1 9040   5.098   3.763   3.860 -1.0502  1.5036 -0.6453
 2080WAT     H2 9041   5.127   3.837   3.749  1.4844  0.4358 -0.7611
 2080WAT    EPW 9042   5.149   3.792   3.808  0.0553  0.4445 -0.1818
 2081WAT      O 9043   3.715   3.228   2.096  0.0861 -0.5657  0.0206
 2081WAT     H1 9044   3.638   3.238   2.134 -0.1513 -3.2499  0.4566
 2081WAT     H2 9045   3.764   3.190   2.158  1.1933 -0.5239 -0.7924
 2081WAT    EPW 9046   3.711   3.224   2.110  0.2146 -0.9560 -0.0351
 2082WAT      O 9047   2.084   2.797   6.404 -0.7841  0.2927  0.2149
 2082WAT     H1 9048   2.157   2.775   6.362  1.3459  0.1860  3.6098
 2082WAT     H2 9049   2.045   2.853   6.350  1.8983  0.5187 -1.6793
 2082WAT    EPW 9050   2.089   2.802   6.390 -0.0732  0.3103  0.4366
 2083WAT      O 9051   6.853   3.422   6.953  0.2899  0.0331 -0.1847
 2083WAT     H1 9052   6.850   3.389   6.872 -0.8383  0.6653 -0.4263
 2083WAT     H2 9053   6.772   3.452   6.966  0.0496 -1.2658  1.7099
 2083WAT    EPW 9054   6.841   3.422   6.943  0.0878 -0.0654  0.0595
 2084WAT      O 9055   0.031   3.169   3.602  0.2402 -0.2213  0.0244
 2084WAT     H1 9056   0.047   3.095   3.558  0.0922 -0.0715 -0.2900
 2084WAT     H2 9057   0.044   3.147   3.685 -0.6515 -0.8405  0.0205
 2084WAT    EPW 9058   0.035   3.155   3.608  0.0866 -0.2907 -0.0226
 2085WAT      O 9059   3.763   0.486   4.426 -0.2330 -0.0012 -0.1215
 2085WAT     H1 9060   3.767   0.569   4.400  0.8331  1.0424  2.9000
 2085WAT     H2 9061   3.678   0.473   4.443 -0.2051  1.0743  0.9467
 2085WAT    EPW 9062   3.751   0.496   4.424 -0.0714  0.3118  0.4826
 2086WAT      O 9063   2.387   0.246   0.087 -0.0107  0.1832 -0.3716
 2086WAT     H1 9064   2.405   0.172   0.130  0.7243 -0.4367 -1.6856
 2086WAT     H2 9065   2.311   0.229   0.048  0.2933 -0.0176 -0.9017
 2086WAT    EPW 9066   2.379   0.233   0.088  0.1428  0.0619 -0.6440
 2087WAT      O 9067   3.351   7.219   3.806 -0.2519 -0.0794  0.1393
 2087WAT     H1 9068   3.341   7.133   3.798 -0.0460 -0.1275  0.3831
 2087WAT     H2 9069   3.343   7.248   3.724  0.2222 -0.3893 -0.0193
 2087WAT    EPW 9070   3.348   7.210   3.793 -0.1514 -0.1323  0.1519
 2088WAT      O 9071   6.612   0.239   0.641  0.1271  0.2199 -0.2253
 2088WAT     H1 9072   6.562   0.178   0.605  1.7753 -0.9813 -0.5857
 2088WAT     H2 9073   6.596   0.231   0.726  1.5624 -1.9585 -0.0871
 2088WAT    EPW 9074   6.602   0.229   0.648  0.5826 -0.2793 -0.2582
 2089WAT      O 9075   4.626   5.674   4.657 -0.5452 -0.0448  0.6992
 2089WAT     H1 9076   4.622   5.665   4.744  0.5325  1.7579  0.9823
 2089WAT     H2 9077   4.644   5.593   4.629 -2.4534 -0.9852  1.9852
 2089WAT    EPW 9078   4.628   5.661   4.666 -0.6679  0.0826  0.9310
 2090WAT      O 9079   0.209   6.530   7.305  0.2567  0.3268  0.0975
 2090WAT     H1 9080   0.209   6.485   7.231 -0.8369  2.0927 -1.0615
 2090WAT     H2 9081   0.267   6.488   7.355  1.2296 -0.7797 -1.8357
 2090WAT    EPW 9082   0.218   6.517   7.302  0.2389  0.4242 -0.3593
 2091WAT      O 9083   7.242   6.224   5.121  0.8185 -0.4341  0.2698
 2091WAT     H1 9084   7.205   6.223   5.043 -0.2534  0.8478  0.7250
 2091WAT     H2 9085   7.181   6.190   5.174 -0.1851  2.4635  1.1607
 2091WAT    EPW 9086   7.228   6.219   5.118  0.5119  0.1833  0.4687
 2092WAT      O 9087   4.030   0.059   7.385 -0.4554  0.4958  0.1518
 2092WAT     H1 9088   3.974  -0.007   7.374 -0.5203  0.6964 -0.7784
 2092WAT     H2 9089   3.981   0.121   7.423 -0.6604  0.3754  0.0852
 2092WAT    EPW 9090   4.014   0.059   7.389 -0.4953  0.5077  0.0046
 2093WAT      O 9091   2.772   6.404   0.796  0.6382 -0.4149  0.1334
 2093WAT     H1 9092   2.824   6.431   0.860  1.9124  0.9799 -1.3965
 2093WAT     H2 9093   2.693   6.433   0.818  1.3538  1.5136  0.2771
 2093WAT    EPW 9094   2.768   6.412   0.809  0.9321  0.0760 -0.0713
 2094WAT      O 9095   0.269   4.340   6.790  0.5868 -0.6848  0.2069
 2094WAT     H1 9096   0.232   4.415   6.812  0.3889 -0.7547  0.1135
 2094WAT     H2 9097   0.268   4.293   6.864 -0.8805 -1.2568 -0.1373
 2094WAT    EPW 9098   0.264   4.344   6.804  0.3409 -0.7796  0.1422
 2095WAT      O 9099   5.806   0.719   1.541  0.5606 -0.0595  0.3440
 2095WAT     H1 9100   5.762   0.703   1.615  0.6029  0.9168  0.5838
 2095WAT     H2 9101   5.825   0.639   1.512  1.3263 -0.4511  1.8499
 2095WAT    EPW 9102   5.802   0.705   1.547  0.6800  0.0269  0.6019
 2096WAT      O 9103   3.154   5.333   0.662  0.1263  0.1949  0.0821
 2096WAT     H1 9104   3.085   5.293   0.698  1.4886  0.3451  3.1696
 2096WAT     H2 9105   3.213   5.269   0.654 -0.0864  0.1853 -1.9855
 2096WAT    EPW 9106   3.153   5.318   0.666  0.2961  0.2157  0.2327
 2097WAT      O 9107   1.482   4.323   6.836  0.0182 -0.0056 -0.5473
 2097WAT     H1 9108   1.568   4.339   6.840  0.1653 -0.9535  0.5193
 2097WAT     H2 9109   1.475   4.240   6.862 -1.4426  0.8030  1.9681
 2097WAT    EPW 9110   1.494   4.313   6.841 -0.1758 -0.0262 -0.0182
 2098WAT      O 9111   3.149   3.340   1.299  0.7043 -0.1637 -0.1677
 2098WAT     H1 9112   3.202   3.405   1.322 -0.0598  0.3084  0.3005
 2098WAT     H2 9113   3.083   3.381   1.259 -0.0039 -0.5985  0.5386
 2098WAT    EPW 9114   3.147   3.356   1.296  0.4869 -0.1582  0.0058
 2099WAT      O 9115   4.772   1.300   3.620  0.3810  0.8589  0.6376
 2099WAT     H1 9116   4.696   1.324   3.656 -0.9330 -0.2212 -1.2569
 2099WAT     H2 9117   4.764   1.214   3.610  2.0433  0.6660  0.7742
 2099WAT    EPW 9118   4.760   1.291   3.624  0.4324  0.6708  0.3779
 2100WAT      O 9119   6.095   6.787   1.265 -0.6268 -0.0915  0.5203
 2100WAT     H1 9120   6.047   6.821   1.200 -1.2374 -0.6103  0.6980
 2100WAT     H2 9121   6.147   6.730   1.223 -0.5749  0.0363  0.4079
 2100WAT    EPW 9122   6.096   6.784   1.249 -0.7093 -0.1493  0.5299
 2101WAT      O 9123   3.364   3.551   0.730  0.0370 -0.0725 -0.3449
 2101WAT     H1 9124   3.368   3.602   0.660 -1.3007  0.0073 -0.3940
 2101WAT     H2 9125   3.297   3.584   0.776  2.1534  1.1806  2.0541
 2101WAT    EPW 9126   3.354   3.563   0.727  0.1520  0.1244  0.0023
 2102WAT      O 9127   2.678   1.988   4.659  0.1551 -0.4001 -0.1681
 2102WAT     H1 9128   2.639   2.065   4.649 -1.3975 -1.2274 -0.9115
 2102WAT     H2 9129   2.684   1.979   4.746  0.9034  0.7963 -0.0837
 2102WAT    EPW 9130   2.673   1.998   4.671  0.0363 -0.3456 -0.2654
 2103WAT      O 9131   1.623   0.440   4.575 -0.3812  0.0667 -0.0798
 2103WAT     H1 9132   1.676   0.381   4.610 -2.0476 -1.6727 -0.2946
 2103WAT     H2 9133   1.598   0.489   4.642 -1.1501 -1.2899  0.6687
 2103WAT    EPW 9134   1.627   0.439   4.590 -0.7410 -0.3906 -0.0010
 2104WAT      O 9135   0.637   0.846   4.771 -0.0063  0.8712  0.2923
 2104WAT     H1 9136   0.721   0.822   4.770 -0.6203 -1.6860  1.5742
 2104WAT     H2 9137   0.639   0.932   4.783  2.4253  0.8360  0.4398
 2104WAT    EPW 9138   0.649   0.855   4.772  0.2622  0.4882  0.5035
 2105WAT      O 9139   4.576   0.945   1.862 -0.1466 -0.1524  0.6052
 2105WAT     H1 9140   4.598   0.886   1.923  1.9981 -0.4745 -0.3690
 2105WAT     H2 9141   4.616   1.017   1.889  2.0841 -0.6567 -1.0514
 2105WAT    EPW 9142   4.585   0.947   1.875  0.4997 -0.2745  0.2166
 2106WAT      O 9143   3.250   1.318   0.595 -0.1937 -0.3111  0.0058
 2106WAT     H1 9144   3.192   1.254   0.603 -1.1674  0.6409  0.9054
 2106WAT     H2 9145   3.231   1.354   0.517  0.7451 -1.4493 -0.7779
 2106WAT    EPW 9146   3.239   1.314   0.585 -0.1988 -0.3386  0.0229
 2107WAT      O 9147   5.073   4.691   2.542  0.0195  0.6022 -0.1364
 2107WAT     H1 9148   5.026   4.641   2.488 -0.7796  0.1286  0.9591
 2107WAT     H2 9149   5.018   4.757   2.562  0.7939  1.5296 -0.9625
 2107WAT    EPW 9150   5.058   4.693   2.537  0.0158  0.6692 -0.0966
 2108WAT      O 9151   6.001   4.472   0.725 -0.4651  0.0231 -0.1076
 2108WAT     H1 9152   6.066   4.508   0.770  0.2541  0.1078 -1.1606
 2108WAT     H2 9153   5.929   4.495   0.769  0.2332 -0.3508  1.2566
 2108WAT    EPW 9154   6.000   4.481   0.738 -0.2557 -0.0197 -0.0616
 2109WAT      O 9155   5.084   2.871   2.921  0.1007 -0.6459  0.1500
 2109WAT     H1 9156   5.136   2.929   2.882  0.5935 -0.4978  1.0052
 2109WAT     H2 9157   5.049   2.827   2.854 -2.3754  2.3040 -0.7354
 2109WAT    EPW 9158   5.086   2.873   2.905 -0.1923 -0.1883  0.1455
 2110WAT      O 9159   3.579   0.340   6.614  0.8078  0.6730  0.5896
 2110WAT     H1 9160   3.520   0.307   6.669  0.6206  0.9033  0.5280
 2110WAT     H2 9161   3.587   0.423   6.640 -0.8554  1.4075 -1.0272
 2110WAT    EPW 9162   3.572   0.347   6.626  0.5345  0.8155  0.3416
 2111WAT      O 9163   1.358   0.962   4.353 -0.4660  0.1987 -0.3158
 2111WAT     H1 9164   1.369   1.008   4.426 -1.9735  1.1774 -0.6471
 2111WAT     H2 9165   1.294   1.005   4.311 -1.4394 -1.7701 -1.0004
 2111WAT    EPW 9166   1.350   0.975   4.358 -0.8325  0.0525 -0.4659
 2112WAT      O 9167   3.503   3.332   4.639  0.0246 -0.0636  0.7628
 2112WAT     H1 9168   3.456   3.337   4.566  0.4728 -0.4935  0.4314
 2112WAT     H2 9169   3.517   3.416   4.660 -0.3982  0.0627  0.5433
 2112WAT    EPW 9170   3.498   3.345   4.631  0.0283 -0.1084  0.6814
 2113WAT      O 9171   2.808   6.089   4.777  0.0109  0.2596 -0.2176
 2113WAT     H1 9172   2.727   6.120   4.766  0.3555  1.2252 -0.1002
 2113WAT     H2 9173   2.807   6.059   4.859 -0.3428 -0.1014 -0.3503
 2113WAT    EPW 9174   2.796   6.089   4.787  0.0096  0.3489 -0.2198
 2114WAT      O 9175   1.647   2.711   0.445 -0.5539  0.0725  0.1242
 2114WAT     H1 9176   1.661   2.794   0.420 -1.9874 -0.1492 -1.6455
 2114WAT     H2 9177   1.602   2.677   0.378 -1.1823 -1.7623  1.3982
 2114WAT    EPW 9178   1.642   2.719   0.431 -0.8585 -0.2313  0.0510
 2115WAT      O 9179   6.760   0.209   2.332 -0.4686 -0.0427 -0.0229
 2115WAT     H1 9180   6.713   0.282   2.320  0.1695  0.3770  0.0187
 2115WAT     H2 9181   6.814   0.209   2.264 -0.1369 -0.2206  0.2428
 2115WAT    EPW 9182   6.761   0.220   2.320 -0.3253 -0.0069  0.0225
 2116WAT      O 9183   0.175   1.747   4.785 -0.1345 -0.0466  0.2736
 2116WAT     H1 9184   0.122   1.806   4.750  0.2129 -0.0707 -0.2974
 2116WAT     H2 9185   0.180   1.772   4.869  2.2287  2.4786 -0.4482
 2116WAT    EPW 9186   0.168   1.760   4.793  0.2659  0.3228  0.0826
 2117WAT      O 9187   5.694   1.296   2.228  0.1447 -0.3049 -0.1997
 2117WAT     H1 9188   5.768   1.279   2.186 -0.1498  1.1181 -1.3798
 2117WAT     H2 9189   5.696   1.382   2.240  0.7134 -0.7256  3.7865
 2117WAT    EPW 9190   5.705   1.306   2.223  0.1852 -0.1569  0.2148
 2118WAT      O 9191   1.956   2.766   2.799 -0.2767 -0.0221  0.0721
 2118WAT     H1 9192   1.906   2.695   2.806 -1.0843  0.6557  1.5921
 2118WAT     H2 9193   1.920   2.822   2.855  2.4383  0.3532  1.6070
 2118WAT    EPW 9194   1.943   2.764   2.809  0.0051  0.1335  0.5234
 2119WAT      O 9195   5.072   4.105   5.425  0.0113  0.3129 -0.4436
 2119WAT     H1 9196   5.043   4.172   5.378  0.6438  0.2093 -0.9920
 2119WAT     H2 9197   5.033   4.035   5.389 -0.7432  0.3773  0.2030
 2119WAT    EPW 9198   5.062   4.104   5.413 -0.0067  0.3071 -0.4291
 2120WAT      O 9199   1.764   4.766   5.285  0.3561  0.2486 -0.1172
 2120WAT     H1 9200   1.715   4.733   5.349  0.0171  0.8461 -0.0585
 2120WAT     H2 9201   1.722   4.741   5.213 -0.9241  2.0053 -0.0552
 2120WAT    EPW 9202   1.751   4.758   5.284  0.1169  0.5964 -0.0994
 2121WAT      O 9203   0.466   0.287   2.167  0.1725 -0.0779  0.1497
 2121WAT     H1 9204   0.395   0.316   2.209  0.2269 -1.7419  1.5020
 2121WAT     H2 9205   0.532   0.319   2.214  0.3128  0.7000 -0.5641
 2121WAT    EPW 9206   0.465   0.296   2.180  0.2013 -0.2088  0.2440
 2122WAT      O 9207   3.454   4.064   4.488 -0.0853 -0.5158  0.1551
 2122WAT     H1 9208   3.419   4.102   4.558 -0.3265 -0.7827  0.1829
 2122WAT     H2 9209   3.490   4.130   4.444 -2.7768  0.2008 -1.1583
 2122WAT    EPW 9210   3.454   4.079   4.492 -0.5185 -0.4494 -0.0348
 2123WAT      O 9211   5.212   5.642   5.298 -0.6930  0.9631  0.0046
 2123WAT     H1 9212   5.235   5.578   5.353  1.3870  1.5118 -0.1391
 2123WAT     H2 9213   5.125   5.637   5.296 -0.7630  0.0484  2.2863
 2123WAT    EPW 9214   5.203   5.632   5.306 -0.3961  0.9090  0.3204
 2124WAT      O 9215   0.794   6.614   4.477 -0.2991 -0.4459 -0.5395
 2124WAT     H1 9216   0.724   6.563   4.476 -1.4991  1.1294 -1.7808
 2124WAT     H2 9217   0.786   6.660   4.551 -1.6134  0.9916 -1.5082
 2124WAT    EPW 9218   0.782   6.613   4.488 -0.6705 -0.0008 -0.8660
 2125WAT      O 9219   1.262   0.457   2.837 -0.2740  0.1448 -0.9818
 2125WAT     H1 9220   1.340   0.479   2.803 -0.2688  1.8008  0.0165
 2125WAT     H2 9221   1.205   0.488   2.779 -0.2204 -0.6671 -1.4857
 2125WAT    EPW 9222   1.265   0.465   2.823 -0.2653  0.2695 -0.9088
 2126WAT      O 9223   0.300   6.260   3.455  0.1652 -0.4492  0.9350
 2126WAT     H1 9224   0.224   6.245   3.417  0.8944 -1.3334 -0.2190
 2126WAT     H2 9225   0.359   6.225   3.401  1.5474  1.7061  0.9022
 2126WAT    EPW 9226   0.298   6.253   3.442  0.4771 -0.2615  0.7597
 2127WAT      O 9227   5.969   6.769   6.720  0.1664  0.2183 -0.7100
 2127WAT     H1 9228   5.976   6.682   6.714 -1.8573 -0.0843  0.3182
 2127WAT     H2 9229   5.887   6.784   6.695 -0.5596  1.4338  2.0487
 2127WAT    EPW 9230   5.958   6.758   6.716 -0.2398  0.3531 -0.1506
 2128WAT      O 9231   5.096   0.372   1.535 -0.2302  0.3088  0.0558
 2128WAT     H1 9232   5.136   0.327   1.598  1.0502  1.7043  0.2941
 2128WAT     H2 9233   5.132   0.451   1.540 -0.4418  0.6097 -2.1107
 2128WAT    EPW 9234   5.107   0.377   1.545 -0.0723  0.5594 -0.2290
 2129WAT      O 9235   2.515   6.363   0.081 -0.8224  0.2627  0.6534
 2129WAT     H1 9236   2.546   6.287   0.052 -1.6897  0.5285 -1.1488
 2129WAT     H2 9237   2.469   6.341   0.152  1.3651 -0.4406  1.9258
 2129WAT    EPW 9238   2.513   6.349   0.087 -0.6274  0.1981  0.5752
 2130WAT      O 9239   0.183   4.925   3.549 -0.1552 -0.1819 -0.2785
 2130WAT     H1 9240   0.184   4.870   3.482  3.0312 -0.7258  0.0822
 2130WAT     H2 9241   0.221   4.997   3.518 -0.5523  0.3425  0.4041
 2130WAT    EPW 9242   0.188   4.928   3.534  0.2568 -0.1847 -0.1243
 2131WAT      O 9243   0.449   3.515   6.309 -0.5661  0.8499 -0.0407
 2131WAT     H1 9244   0.495   3.513   6.235  0.0337 -1.5681  0.2930
 2131WAT     H2 9245   0.394   3.582   6.298  0.0376  1.0499 -2.3136
 2131WAT    EPW 9246   0.448   3.525   6.296 -0.3883  0.5222 -0.3272
 2132WAT      O 9247   0.482   4.114   3.303 -0.0722  0.7289 -0.0067
 2132WAT     H1 9248   0.415   4.170   3.297  0.3085  1.4240  1.6712
 2132WAT     H2 9249   0.446   4.045   3.343 -0.6711 -0.5399 -2.5328
 2132WAT    EPW 9250   0.467   4.112   3.308 -0.1044  0.6442 -0.1320
 2133WAT      O 9251   5.714   3.756   5.396  0.4460  0.2376 -0.0910
 2133WAT     H1 9252   5.778   3.732   5.342  1.4488  0.8153  0.7937
 2133WAT     H2 9253   5.674   3.682   5.415  1.1738 -0.2147 -0.2773
 2133WAT    EPW 9254   5.718   3.742   5.391  0.7016  0.2561  0.0121
 2134WAT      O 9255   5.791   6.338   2.404 -0.4681  0.6117  0.3962
 2134WAT     H1 9256   5.704   6.337   2.409 -0.4817  0.1924  0.1125
 2134WAT     H2 9257   5.809   6.279   2.343  0.1606 -1.7049  2.6497
 2134WAT    EPW 9258   5.781   6.329   2.395 -0.3773  0.2076  0.6872
 2135WAT      O 9259   5.383   6.660   2.836  0.3941  0.4237 -0.0251
 2135WAT     H1 9260   5.352   6.626   2.909  0.8351 -0.7439 -0.3611
 2135WAT     H2 9261   5.346   6.612   2.773  1.7482 -0.0712 -0.4746
 2135WAT    EPW 9262   5.373   6.648   2.837  0.6593  0.1781 -0.1411
 2136WAT      O 9263   1.677   0.792   1.267 -0.6896 -0.9236  0.1276
 2136WAT     H1 9264   1.731   0.861   1.272 -1.4667 -0.3741  1.3264
 2136WAT     H2 9265   1.727   0.726   1.294 -0.5227 -0.4594  1.0137
 2136WAT    EPW 9266   1.693   0.793   1.271 -0.7797 -0.7739  0.4356
 2137WAT      O 9267   6.738   5.017   0.774  0.1220 -0.4453 -0.0932
 2137WAT     H1 9268   6.767   4.936   0.787 -0.8667 -1.1384 -1.8527
 2137WAT     H2 9269   6.710   5.016   0.692 -3.7462  0.4861  1.0371
 2137WAT    EPW 9270   6.738   5.005   0.764 -0.5955 -0.4101 -0.1861
 2138WAT      O 9271   5.313   6.924   6.942  0.3673  0.0967  0.6741
 2138WAT     H1 9272   5.288   6.970   6.872  0.3453 -0.5940  0.2100
 2138WAT     H2 9273   5.391   6.892   6.918 -0.0180 -0.8381  0.6112
 2138WAT    EPW 9274   5.321   6.926   6.928  0.3071 -0.1434  0.5962
 2139WAT      O 9275   6.259   2.086   6.128 -0.2166  0.0173 -0.5042
 2139WAT     H1 9276   6.182   2.053   6.152 -0.0870 -0.2282 -0.4268
 2139WAT     H2 9277   6.294   2.024   6.079  0.0599  0.0077 -0.2941
 2139WAT    EPW 9278   6.253   2.072   6.125 -0.1566 -0.0204 -0.4617
 2140WAT      O 9279   2.569   6.823   5.655 -0.2020 -0.1952 -0.8122
 2140WAT     H1 9280   2.639   6.775   5.637 -1.7219 -2.1970 -1.7263
 2140WAT     H2 9281   2.530   6.780   5.721 -0.6069  0.8734 -0.3240
 2140WAT    EPW 9282   2.573   6.810   5.662 -0.4864 -0.3331 -0.8751
 2141WAT      O 9283   1.412   3.567   1.529 -0.1243  0.1632 -0.2136
 2141WAT     H1 9284   1.387   3.484   1.520  0.7676 -0.0906 -0.4171
 2141WAT     H2 9285   1.491   3.569   1.493  1.2417  0.3748  2.5552
 2141WAT    EPW 9286   1.420   3.555   1.523  0.2092  0.1569  0.1654
 2142WAT      O 9287   1.851   0.098   1.754  0.2027  0.0998  0.5163
 2142WAT     H1 9288   1.935   0.101   1.776  0.0239  2.2091  1.1083
 2142WAT     H2 9289   1.845   0.152   1.686 -0.3520 -1.6941 -0.9511
 2142WAT    EPW 9290   1.862   0.106   1.748  0.0944  0.1464  0.3870
 2143WAT      O 9291   6.689   6.115   6.367 -0.0424 -0.6210 -0.4559
 2143WAT     H1 9292   6.646   6.084   6.298 -0.8990 -0.7160  0.1099
 2143WAT     H2 9293   6.696   6.047   6.420 -0.6937 -0.1963  0.1856
 2143WAT    EPW 9294   6.684   6.100   6.364 -0.2652 -0.5723 -0.2775
 2144WAT      O 9295   4.806   1.653   6.419  0.1147  0.4350 -0.1625
 2144WAT     H1 9296   4.842   1.711   6.365  0.7283 -0.9372 -1.2713
 2144WAT     H2 9297   4.868   1.640   6.479 -0.3934  1.6094  0.6672
 2144WAT    EPW 9298   4.820   1.660   6.420  0.1303  0.4057 -0.2038
 2145WAT      O 9299   3.578   3.836   3.593  0.0658  0.3810 -0.4062
 2145WAT     H1 9300   3.532   3.794   3.533 -1.0652 -0.9836  1.2943
 2145WAT     H2 9301   3.526   3.903   3.615 -0.3898 -0.2030  0.3410
 2145WAT    EPW 9302   3.563   3.840   3.588 -0.1686  0.0931 -0.0446
 2146WAT      O 9303   6.984   4.768   2.315  0.1059 -0.3140 -0.0836
 2146WAT     H1 9304   6.946   4.707   2.266 -0.6532 -0.2259  0.3857
 2146WAT     H2 9305   7.016   4.824   2.256 -0.5815 -0.3366 -0.4872
 2146WAT    EPW 9306   6.983   4.767   2.299 -0.1078 -0.3043 -0.0739
 2147WAT      O 9307   0.208   1.435   3.269 -0.4739 -0.2972 -0.1530
 2147WAT     H1 9308   0.286   1.444   3.231  0.0455 -0.9347  0.7216
 2147WAT     H2 9309   0.168   1.512   3.254  0.0372 -0.2229 -1.2097
 2147WAT    EPW 9310   0.213   1.448   3.261 -0.3217 -0.3804 -0.1799
 2148WAT      O 9311   3.430   4.654   2.036 -0.1393 -0.2007  0.2743
 2148WAT     H1 9312   3.411   4.702   1.966  0.0322 -2.1242 -1.1665
 2148WAT     H2 9313   3.417   4.709   2.103  0.7529  2.0324 -1.2853
 2148WAT    EPW 9314   3.425   4.669   2.036  0.0179 -0.1550 -0.1689
 2149WAT      O 9315   1.581   1.899   5.820 -0.0392  0.0391  0.7151
 2149WAT     H1 9316   1.588   1.963   5.761  2.7306 -0.5200  0.3245
 2149WAT     H2 9317   1.634   1.924   5.884 -0.0131 -1.2041  1.2006
 2149WAT    EPW 9318   1.590   1.912   5.821  0.3738 -0.2271  0.7291
 2150WAT      O 9319   6.505   4.989   1.377  0.0677  0.3464 -0.3639
 2150WAT     H1 9320   6.582   4.948   1.377  0.6313  1.3521 -0.5566
 2150WAT     H2 9321   6.526   5.070   1.349 -0.6250  1.4571  2.0490
 2150WAT    EPW 9322   6.520   4.995   1.373  0.0486  0.6590 -0.0359
 2151WAT      O 9323   4.931   5.050   6.763 -0.2071 -0.4476  0.0147
 2151WAT     H1 9324   4.992   5.042   6.824 -0.5336 -0.5361  0.3347
 2151WAT     H2 9325   4.886   4.975   6.768 -0.9313  0.0001  0.4389
 2151WAT    EPW 9326   4.933   5.038   6.773 -0.3623 -0.3945  0.1246
 2152WAT      O 9327   5.374   1.575   1.159 -0.3073 -0.1233  0.6572
 2152WAT     H1 9328   5.349   1.512   1.214 -0.0888  0.5351  1.5247
 2152WAT     H2 9329   5.440   1.614   1.201  0.8702 -0.5386 -0.7015
 2152WAT    EPW 9330   5.380   1.571   1.173 -0.1011 -0.0874  0.5846
 2153WAT      O 9331   4.775   1.472   5.532  0.0270  0.1818  0.0947
 2153WAT     H1 9332   4.830   1.404   5.524 -0.4555 -0.2317  0.2176
 2153WAT     H2 9333   4.827   1.541   5.520  0.0885 -0.2252 -2.7962
 2153WAT    EPW 9334   4.791   1.472   5.529 -0.0352  0.0606 -0.3142
 2154WAT      O 9335   4.703   5.232   7.310 -0.6410  0.7059  0.0543
 2154WAT     H1 9336   4.742   5.205   7.383 -0.4339  1.0401  0.0654
 2154WAT     H2 9337   4.689   5.158   7.266  0.5084  0.6280 -0.2062
 2154WAT    EPW 9338   4.706   5.217   7.314 -0.4406  0.7437  0.0175
 2155WAT      O 9339   0.670   0.093   6.224  0.5144 -0.0540  0.4563
 2155WAT     H1 9340   0.590   0.064   6.245  1.2815 -1.4101  1.6691
 2155WAT     H2 9341   0.711   0.096   6.300  1.4224  1.4042 -0.0460
 2155WAT    EPW 9342   0.664   0.089   6.238  0.7619 -0.0389  0.5613
 2156WAT      O 9343   6.721   3.287   3.188  0.4227 -0.2849  0.7108
 2156WAT     H1 9344   6.804   3.275   3.213  0.9633 -1.1245 -1.2935
 2156WAT     H2 9345   6.686   3.208   3.191  0.2129 -0.2380 -0.0984
 2156WAT    EPW 9346   6.728   3.274   3.192  0.4716 -0.4020  0.2952
 2157WAT      O 9347   3.842   5.140   2.362  0.2311  0.1889 -0.4176
 2157WAT     H1 9348   3.783   5.105   2.416  0.8394  0.1815  0.2519
 2157WAT     H2 9349   3.848   5.223   2.388 -1.5165  1.0026 -2.2672
 2157WAT    EPW 9350   3.834   5.147   2.373  0.0628  0.3080 -0.5919
 2158WAT      O 9351   0.633   3.127   3.142 -0.1418 -0.0397 -0.2219
 2158WAT     H1 9352   0.573   3.094   3.196  1.5810 -2.4165  0.4057
 2158WAT     H2 9353   0.594   3.126   3.064 -1.6559  0.6610  0.4835
 2158WAT    EPW 9354   0.619   3.122   3.139 -0.1110 -0.2873 -0.0250
 2159WAT      O 9355   6.890   0.910   3.732  0.1021  0.0123  0.1774
 2159WAT     H1 9356   6.888   0.997   3.738  1.5449  0.0175  1.0676
 2159WAT     H2 9357   6.942   0.886   3.797 -1.8599 -1.7023  1.2213
 2159WAT    EPW 9358   6.897   0.919   3.742  0.0254 -0.2402  0.4631
 2160WAT      O 9359   6.671   4.332   0.523  0.0056 -0.3111  0.5034
 2160WAT     H1 9360   6.610   4.270   0.529  1.4994 -1.7752  1.4659
 2160WAT     H2 9361   6.665   4.374   0.599 -0.7006  0.4420  0.0383
 2160WAT    EPW 9362   6.661   4.329   0.535  0.1219 -0.4162  0.5769
 2161WAT      O 9363   3.177   5.691   3.966 -0.1672 -0.3583  0.4047
 2161WAT     H1 9364   3.164   5.700   4.051  0.8824 -1.3896  0.7038
 2161WAT     H2 9365   3.259   5.662   3.960 -0.4182 -0.9067 -0.9088
 2161WAT    EPW 9366   3.187   5.688   3.978 -0.0492 -0.5917  0.2548
 2162WAT      O 9367   1.878   3.829   0.070  0.3476 -0.6057  0.0506
 2162WAT     H1 9368   1.857   3.858   0.150 -0.6817  0.1528 -0.4764
 2162WAT     H2 9369   1.912   3.899   0.031  0.5024 -0.8760 -0.3008
 2162WAT    EPW 9370   1.880   3.844   0.076  0.2184 -0.5336 -0.0791
 2163WAT      O 9371   2.775   3.112   2.229 -0.0850 -0.3002 -0.9907
 2163WAT     H1 9372   2.819   3.127   2.303  0.3612 -2.7795 -0.6531
 2163WAT     H2 9373   2.798   3.178   2.178  0.4373  0.9156  0.7202
 2163WAT    EPW 9374   2.785   3.124   2.233  0.0581 -0.4868 -0.6881
 2164WAT      O 9375   6.183   2.191   2.242  0.4166 -0.1313  0.7393
 2164WAT     H1 9376   6.164   2.145   2.170  0.3009 -0.7673  1.1772
 2164WAT     H2 9377   6.207   2.131   2.300  0.1633  0.3482  1.3525
 2164WAT    EPW 9378   6.184   2.175   2.240  0.3621 -0.1545  0.8946
 2165WAT      O 9379   2.981   5.289   3.056 -0.4482 -0.1823 -0.2553
 2165WAT     H1 9380   2.917   5.261   3.109 -1.2483  2.4091  0.2894
 2165WAT     H2 9381   2.991   5.223   2.999 -2.5941 -1.2660  0.5083
 2165WAT    EPW 9382   2.973   5.275   3.056 -0.8834  0.0404 -0.0620
 2166WAT      O 9383   0.158   0.933   4.204  0.5803  0.9023 -0.5617
 2166WAT     H1 9384   0.203   0.913   4.277 -1.6205 -1.1403  0.4035
 2166WAT     H2 9385   0.195   0.882   4.143 -0.1674 -0.5461  0.1504
 2166WAT    EPW 9386   0.171   0.922   4.206  0.1447  0.3866 -0.3139
 2167WAT      O 9387   6.271   2.902   4.982 -0.2304  0.3683  0.2432
 2167WAT     H1 9388   6.274   2.816   4.969 -1.6621 -0.2977  3.3065
 2167WAT     H2 9389   6.354   2.923   4.999 -0.1914 -0.9529  1.9168
 2167WAT    EPW 9390   6.284   2.893   4.983 -0.4361  0.0747  0.9430
 2168WAT      O 9391   0.948   0.323   2.605  0.4394  0.1239 -0.6631
 2168WAT     H1 9392   1.032   0.339   2.585  0.9277 -0.1304  1.0010
 2168WAT     H2 9393   0.911   0.402   2.604  1.4727  0.7205  1.6952
 2168WAT    EPW 9394   0.955   0.337   2.602  0.6642  0.1744 -0.0689
 2169WAT      O 9395   6.777   3.715   4.229 -0.3362 -0.2279 -0.6008
 2169WAT     H1 9396   6.763   3.711   4.315  0.0032 -1.9146 -0.6033
 2169WAT     H2 9397   6.863   3.726   4.223 -0.1092 -1.9011 -0.7231
 2169WAT    EPW 9398   6.788   3.716   4.241 -0.2525 -0.7243 -0.6193
 2170WAT      O 9399   1.148   6.145   6.179 -0.3509  0.6825  0.4181
 2170WAT     H1 9400   1.151   6.180   6.099 -1.2592 -2.0935 -0.9623
 2170WAT     H2 9401   1.201   6.076   6.173 -1.3520 -0.2605  1.8037
 2170WAT    EPW 9402   1.156   6.140   6.166 -0.6330  0.1331  0.4188
 2171WAT      O 9403   3.220   0.493   4.246  0.8696  0.6680 -0.4325
 2171WAT     H1 9404   3.249   0.465   4.168  1.8720 -0.1935  0.2234
 2171WAT     H2 9405   3.268   0.563   4.263  0.4137  1.0573 -0.7389
 2171WAT    EPW 9406   3.231   0.499   4.237  0.9503  0.5982 -0.3809
 2172WAT      O 9407   4.259   7.227   2.082 -0.4202  0.0677 -0.1095
 2172WAT     H1 9408   4.266   7.258   2.001  0.9497  0.6395  0.2097
 2172WAT     H2 9409   4.204   7.282   2.121  0.5182  1.0233 -0.0891
 2172WAT    EPW 9410   4.252   7.239   2.076 -0.0792  0.2933 -0.0594
 2173WAT      O 9411   1.185   0.655   6.404  0.0428  0.7749 -0.5625
 2173WAT     H1 9412   1.125   0.628   6.347  0.2140  1.5339 -1.1170
 2173WAT     H2 9413   1.139   0.678   6.474 -0.4069  2.1232 -1.2758
 2173WAT    EPW 9414   1.169   0.654   6.406  0.0017  1.0862 -0.7498
 2174WAT      O 9415   2.698   6.971   6.949 -0.1430 -0.0942 -0.0993
 2174WAT     H1 9416   2.711   6.936   7.028 -0.1353  0.4279  0.1357
 2174WAT     H2 9417   2.667   7.050   6.967 -2.4128 -0.7994 -0.6150
 2174WAT    EPW 9418   2.695   6.977   6.964 -0.4772 -0.1212 -0.1408
 2175WAT      O 9419   4.308   2.670   3.077 -0.5315 -0.2834  0.6149
 2175WAT     H1 9420   4.339   2.674   2.995  0.5962 -0.2798  1.0219
 2175WAT     H2 9421   4.222   2.671   3.066 -0.4075  0.7446 -0.5356
 2175WAT    EPW 9422   4.300   2.671   3.063 -0.3466 -0.1310  0.5051
 2176WAT      O 9423   6.715   3.573   0.776  0.8576  0.0031 -0.5570
 2176WAT     H1 9424   6.669   3.500   0.761 -1.1695  0.8017  1.2062
 2176WAT     H2 9425   6.792   3.542   0.803 -0.0365 -1.5532  0.4431
 2176WAT    EPW 9426   6.720   3.557   0.778  0.4261 -0.1088 -0.1488
 2177WAT      O 9427   1.706   4.036   3.969  0.5947 -0.5639  0.4989
 2177WAT     H1 9428   1.762   4.030   4.036  0.7158  0.0259  0.4533
 2177WAT     H2 9429   1.673   3.955   3.963  0.6645 -0.6523  1.1959
 2177WAT    EPW 9430   1.709   4.023   3.978  0.6229 -0.4899  0.5952
 2178WAT      O 9431   5.010   6.710   2.836 -0.2520  0.2740 -0.0484
 2178WAT     H1 9432   4.987   6.626   2.830  2.3329 -0.5375  0.0423
 2178WAT     H2 9433   4.997   6.741   2.755 -1.3087 -0.1763 -0.0575
 2178WAT    EPW 9434   5.005   6.702   2.823 -0.0262  0.0876 -0.0363
 2179WAT      O 9435   2.083   4.443   0.862 -0.2325  0.1213  0.2750
 2179WAT     H1 9436   2.166   4.417   0.867 -0.5177 -1.0654 -0.6779
 2179WAT     H2 9437   2.089   4.527   0.840  0.7130  0.1606  0.6405
 2179WAT    EPW 9438   2.096   4.452   0.860 -0.1350 -0.0482  0.1882
 2180WAT      O 9439   6.254   2.867   2.682  0.0610 -0.2886  0.4331
 2180WAT     H1 9440   6.307   2.847   2.748  1.9690  0.7321 -0.6923
 2180WAT     H2 9441   6.264   2.801   2.626 -1.0743 -0.8445  0.8531
 2180WAT    EPW 9442   6.263   2.854   2.684  0.1751 -0.2200  0.3289
 2181WAT      O 9443   5.708   0.428   0.177 -0.1870  0.4232  0.1719
 2181WAT     H1 9444   5.729   0.351   0.212 -0.8380 -0.1265 -0.5969
 2181WAT     H2 9445   5.749   0.486   0.227  1.2571 -0.4759  0.0925
 2181WAT    EPW 9446   5.717   0.426   0.189 -0.0698  0.2092  0.0466
 2182WAT      O 9447   1.399   0.297   1.880  0.1416 -0.0207  0.1257
 2182WAT     H1 9448   1.463   0.326   1.931  0.8914 -0.3717 -0.5932
 2182WAT     H2 9449   1.385   0.363   1.824 -0.3724  0.1895  0.4905
 2182WAT    EPW 9450   1.406   0.311   1.879  0.1765 -0.0415  0.0734
 2183WAT      O 9451   2.708   0.835   6.365  0.1548  0.8527  0.8729
 2183WAT     H1 9452   2.638   0.886   6.355 -0.2196  0.4483  1.4233
 2183WAT     H2 9453   2.712   0.821   6.451 -0.4218 -0.9775  0.6434
 2183WAT    EPW 9454   2.698   0.840   6.376  0.0143  0.5226  0.9203
 2184WAT      O 9455   1.589   1.535   1.497  0.4179 -0.0344  0.2068
 2184WAT     H1 9456   1.598   1.583   1.425 -4.1688  1.1429  0.1109
 2184WAT     H2 9457   1.633   1.581   1.557  0.4600  1.5368 -0.9446
 2184WAT    EPW 9458   1.597   1.549   1.495 -0.2535  0.3716  0.0225
 2185WAT      O 9459   6.488   2.040   2.600  0.3173 -0.5238 -0.5906
 2185WAT     H1 9460   6.522   2.072   2.526 -1.2480  0.9667 -0.7270
 2185WAT     H2 9461   6.545   2.065   2.661  0.0516  1.0342 -0.9364
 2185WAT    EPW 9462   6.501   2.049   2.598  0.0468 -0.0735 -0.6618
 2186WAT      O 9463   4.137   3.993   3.716 -0.3584 -0.1622  0.0052
 2186WAT     H1 9464   4.055   4.022   3.711 -0.5619 -0.6717  0.2840
 2186WAT     H2 9465   4.147   3.948   3.642 -0.9055 -1.5089  0.7061
 2186WAT    EPW 9466   4.126   3.991   3.704 -0.4693 -0.4364  0.1500
 2187WAT      O 9467   6.220   2.902   2.229  0.4086 -0.5347 -0.9875
 2187WAT     H1 9468   6.179   2.978   2.224  1.3982  0.0233 -0.9317
 2187WAT     H2 9469   6.268   2.900   2.156  1.1721 -0.6198 -0.4945
 2187WAT    EPW 9470   6.221   2.913   2.218  0.6676 -0.4648 -0.9064
 2188WAT      O 9471   3.368   5.884   4.937 -0.2472 -0.0458  0.6882
 2188WAT     H1 9472   3.352   5.965   4.908 -1.4326 -0.4577  0.1087
 2188WAT     H2 9473   3.451   5.870   4.914 -0.9310 -0.1264 -2.1088
 2188WAT    EPW 9474   3.378   5.894   4.929 -0.5233 -0.1186  0.1894
 2189WAT      O 9475   7.089   3.832   3.772 -0.1673 -0.2543  0.6337
 2189WAT     H1 9476   7.125   3.767   3.729 -2.4048 -0.2592 -1.4328
 2189WAT     H2 9477   7.034   3.868   3.715 -0.9666  1.8019  2.4998
 2189WAT    EPW 9478   7.086   3.828   3.757 -0.6159  0.0487  0.6041
 2190WAT      O 9479   7.019   1.863   3.734 -0.6082  0.0147 -0.1324
 2190WAT     H1 9480   6.973   1.860   3.660  0.0086 -1.7927 -0.5086
 2190WAT     H2 9481   7.023   1.779   3.758  0.4671  0.4013  1.1545
 2190WAT    EPW 9482   7.012   1.850   3.727 -0.3582 -0.1952  0.0021
 2191WAT      O 9483   3.187   5.544   2.369 -0.3124 -0.0338 -0.0301
 2191WAT     H1 9484   3.165   5.563   2.451 -0.9791  2.2521 -0.6597
 2191WAT     H2 9485   3.158   5.462   2.358 -1.5482  0.1416  1.5631
 2191WAT    EPW 9486   3.179   5.535   2.379 -0.5934  0.3298  0.1122
 2192WAT      O 9487   5.312   0.974   6.377  0.2453  1.0560 -0.3778
 2192WAT     H1 9488   5.251   0.912   6.379  0.9548  0.3390 -0.2742
 2192WAT     H2 9489   5.280   1.033   6.321 -2.0776  2.3785  2.1285
 2192WAT    EPW 9490   5.298   0.974   6.369  0.0069  1.1454  0.0077
 2193WAT      O 9491   6.006   3.439   6.404  1.1271  0.4425 -0.1122
 2193WAT     H1 9492   5.974   3.519   6.392  1.8556  0.8734  0.7400
 2193WAT     H2 9493   6.036   3.440   6.486 -0.7831 -1.3924  0.6915
 2193WAT    EPW 9494   6.006   3.451   6.414  0.9525  0.2351  0.1324
 2194WAT      O 9495   3.352   4.342   5.913  0.1907 -0.2159  0.6892
 2194WAT     H1 9496   3.369   4.260   5.939 -4.8162 -2.4057 -1.6144
 2194WAT     H2 9497   3.317   4.379   5.983  2.3899  0.0678  1.7213
 2194WAT    EPW 9498   3.350   4.335   5.927 -0.2241 -0.4975  0.5014
 2195WAT      O 9499   5.345   7.145   1.613 -0.2094  0.4520 -0.5631
 2195WAT     H1 9500   5.420   7.181   1.639  0.0803 -1.3253  1.2920
 2195WAT     H2 9501   5.332   7.180   1.534  0.9196  3.2051  0.3319
 2195WAT    EPW 9502   5.354   7.156   1.605  0.0002  0.5961 -0.1569
 2196WAT      O 9503   5.368   3.243   5.769  0.3787 -0.9322  1.1000
 2196WAT     H1 9504   5.383   3.196   5.697  1.0506 -0.1425  0.6911
 2196WAT     H2 9505   5.293   3.285   5.751  0.9403 -0.1440  0.5095
 2196WAT    EPW 9506   5.359   3.243   5.755  0.5609 -0.6991  0.9524
 2197WAT      O 9507   2.786   2.458   0.395 -0.2870  0.1220  0.0703
 2197WAT     H1 9508   2.719   2.474   0.448 -1.2389 -1.7280 -0.4699
 2197WAT     H2 9509   2.820   2.384   0.427  0.3125  0.0330 -0.7444
 2197WAT    EPW 9510   2.781   2.449   0.407 -0.3391 -0.1644 -0.1299
 2198WAT      O 9511   0.550   1.060   1.057 -0.3447  0.0819  0.3319
 2198WAT     H1 9512   0.603   1.018   1.002 -1.0078 -0.6735  0.2418
 2198WAT     H2 9513   0.604   1.103   1.110  0.3482 -0.6551  0.2402
 2198WAT    EPW 9514   0.566   1.060   1.057 -0.3403 -0.1386  0.3050
 2199WAT      O 9515   0.029   6.514   6.477  0.0990 -0.0055  0.2090
 2199WAT     H1 9516   0.000   6.545   6.401  0.8056 -0.9635 -0.4686
 2199WAT     H2 9517  -0.034   6.460   6.503  1.0783 -1.9304 -1.1641
 2199WAT    EPW 9518   0.016   6.511   6.470  0.3481 -0.4314 -0.0939
 2200WAT      O 9519   2.234   5.829   4.547 -0.3880 -0.1091  0.2022
 2200WAT     H1 9520   2.187   5.770   4.504 -2.3432  2.0409 -0.8260
 2200WAT     H2 9521   2.240   5.795   4.628 -0.2602 -2.2716 -0.6503
 2200WAT    EPW 9522   2.228   5.815   4.553 -0.6580 -0.1109 -0.0756
 2201WAT      O 9523   6.759   6.998   6.346  0.3847  0.4016 -0.0962
 2201WAT     H1 9524   6.730   7.013   6.427 -0.8836 -0.0145 -0.4585
 2201WAT     H2 9525   6.815   6.932   6.356 -0.0623  0.0897  0.3832
 2201WAT    EPW 9526   6.763   6.991   6.359  0.1313  0.2940 -0.0789
 2202WAT      O 9527   2.957   0.728   1.222 -0.3579  0.3236 -0.4590
 2202WAT     H1 9528   2.935   0.801   1.265  0.0857 -0.2533  0.8027
 2202WAT     H2 9529   2.882   0.682   1.220 -0.1832 -0.0260  0.5118
 2202WAT    EPW 9530   2.942   0.732   1.228 -0.2666  0.1867 -0.1292
 2203WAT      O 9531   0.687   3.306   3.550 -0.5301 -0.3828 -0.1985
 2203WAT     H1 9532   0.744   3.253   3.512  1.8382  1.4657  0.5350
 2203WAT     H2 9533   0.730   3.338   3.619 -1.9217  2.0957 -0.3398
 2203WAT    EPW 9534   0.702   3.303   3.554 -0.3858  0.2564 -0.1110
 2204WAT      O 9535   5.570   1.208   4.067 -0.5043 -0.0609 -0.5232
 2204WAT     H1 9536   5.508   1.148   4.054 -0.5363  0.0531 -0.9152
 2204WAT     H2 9537   5.589   1.200   4.152 -1.6235  0.4421 -0.1992
 2204WAT    EPW 9538   5.564   1.198   4.078 -0.6743  0.0303 -0.5333
 2205WAT      O 9539   5.473   0.304   1.258  0.7643  0.1249  0.7885
 2205WAT     H1 9540   5.515   0.228   1.262  1.3192  0.3661 -0.1008
 2205WAT     H2 9541   5.534   0.359   1.229  0.8303  1.2652  2.8600
 2205WAT    EPW 9542   5.488   0.301   1.255  0.8560  0.3290  0.9631
 2206WAT      O 9543   5.488   1.121   2.191 -0.1010 -0.0801 -0.1568
 2206WAT     H1 9544   5.539   1.063   2.150  0.0381  0.3058 -0.5276
 2206WAT     H2 9545   5.545   1.176   2.227 -0.1616 -1.0768  1.5768
 2206WAT    EPW 9546   5.504   1.120   2.190 -0.0894 -0.1703  0.0445
 2207WAT      O 9547   2.814   7.131   4.529 -0.0687 -0.0498 -0.3219
 2207WAT     H1 9548   2.826   7.050   4.559  1.8703 -0.2778 -1.5436
 2207WAT     H2 9549   2.850   7.129   4.449  0.1411  2.0402 -0.3387
 2207WAT    EPW 9550   2.821   7.119   4.522  0.2487  0.2252 -0.5049
 2208WAT      O 9551   5.223   6.513   5.182 -0.1923  0.5072  0.2474
 2208WAT     H1 9552   5.202   6.579   5.129 -1.6985  0.6144  0.9300
 2208WAT     H2 9553   5.237   6.553   5.258 -2.6170 -0.0267  1.0612
 2208WAT    EPW 9554   5.222   6.529   5.185 -0.7730  0.4441  0.4685
 2209WAT      O 9555   6.269   4.773   0.249 -0.2288 -0.0185 -0.3819
 2209WAT     H1 9556   6.182   4.785   0.253 -0.6616 -2.3073 -1.4480
 2209WAT     H2 9557   6.296   4.839   0.199 -1.4291  0.4446 -0.4637
 2209WAT    EPW 9558   6.260   4.785   0.242 -0.4700 -0.2882 -0.5515
 2210WAT      O 9559   1.904   7.231   5.784  0.0894  0.3306  0.0303
 2210WAT     H1 9560   1.884   7.307   5.822  1.1393  1.8772 -2.2651
 2210WAT     H2 9561   1.856   7.230   5.712 -1.2853 -2.1484  0.8746
 2210WAT    EPW 9562   1.894   7.242   5.779  0.0414  0.1929 -0.1840
 2211WAT      O 9563   1.240   3.867   3.903  0.0061 -0.0192 -0.0846
 2211WAT     H1 9564   1.264   3.784   3.913 -1.1816 -0.2414  1.3207
 2211WAT     H2 9565   1.155   3.866   3.923  0.0653  1.5967  0.3885
 2211WAT    EPW 9566   1.231   3.855   3.907 -0.1606  0.1867  0.1929
 2212WAT      O 9567   3.727   5.646   4.646 -0.0156 -0.3629 -0.2203
 2212WAT     H1 9568   3.754   5.564   4.662 -0.6330 -0.6712 -0.6858
 2212WAT     H2 9569   3.697   5.642   4.564 -1.0754  0.0475  0.1201
 2212WAT    EPW 9570   3.726   5.633   4.637 -0.2634 -0.3478 -0.2388
 2213WAT      O 9571   1.074   5.399   0.270  0.1756 -0.2221 -0.5472
 2213WAT     H1 9572   1.096   5.388   0.354  1.9045  2.2178 -0.5743
 2213WAT     H2 9573   1.118   5.336   0.229  2.4875  0.9022  0.0575
 2213WAT    EPW 9574   1.084   5.388   0.276  0.7725  0.3044 -0.4619
 2214WAT      O 9575   5.100   5.663   3.366  0.0787  0.7462 -0.2418
 2214WAT     H1 9576   5.023   5.632   3.337  0.7714 -0.0904 -1.2548
 2214WAT     H2 9577   5.084   5.681   3.450 -1.0243 -0.1489 -0.2309
 2214WAT    EPW 9578   5.086   5.661   3.374  0.0181  0.4904 -0.3898
 2215WAT      O 9579   6.515   1.510   0.654 -0.1355 -0.1226 -0.1608
 2215WAT     H1 9580   6.576   1.550   0.606  0.1963  0.7595  0.9398
 2215WAT     H2 9581   6.464   1.576   0.679 -0.4238 -0.5921  0.5094
 2215WAT    EPW 9582   6.516   1.526   0.651 -0.1291 -0.0617  0.1008
 2216WAT      O 9583   0.616   6.442   0.203  0.6241 -0.0401  0.1684
 2216WAT     H1 9584   0.699   6.466   0.188  0.3383  0.9824  0.1454
 2216WAT     H2 9585   0.583   6.431   0.123  0.8141 -0.7313  0.1831
 2216WAT    EPW 9586   0.624   6.444   0.189  0.6100  0.0088  0.1672
 2217WAT      O 9587   2.564   1.938   4.901  0.0774 -0.1329 -0.3083
 2217WAT     H1 9588   2.478   1.925   4.898  0.1495 -0.4644 -1.1995
 2217WAT     H2 9589   2.577   1.965   4.983 -0.8378 -0.3059 -0.0867
 2217WAT    EPW 9590   2.553   1.940   4.913 -0.0472 -0.2074 -0.4072
 2218WAT      O 9591   6.625   0.870   0.278  0.5503 -0.2874  0.3361
 2218WAT     H1 9592   6.645   0.941   0.231 -1.2418 -0.7461 -1.2483
 2218WAT     H2 9593   6.689   0.814   0.258 -1.3363 -1.3983 -3.8787
 2218WAT    EPW 9594   6.637   0.872   0.268  0.0069 -0.5193 -0.5206
 2219WAT      O 9595   4.585   5.519   4.235 -0.2585 -0.1615 -0.3233
 2219WAT     H1 9596   4.592   5.501   4.320  1.4160  0.4211 -0.3009
 2219WAT     H2 9597   4.636   5.459   4.197  2.7509  2.2138 -0.4868
 2219WAT    EPW 9598   4.594   5.508   4.242  0.4334  0.2755 -0.3441
 2220WAT      O 9599   3.412   2.589   1.675  0.4950 -0.3388  0.1246
 2220WAT     H1 9600   3.485   2.574   1.720  0.1463  1.9921  1.6447
 2220WAT     H2 9601   3.429   2.555   1.596  3.2541  0.2130  0.3966
 2220WAT    EPW 9602   3.425   2.582   1.670  0.8510  0.0871  0.3893
 2221WAT      O 9603   4.157   2.249   1.552  0.1142  0.1617 -0.1936
 2221WAT     H1 9604   4.126   2.188   1.498 -1.0482 -0.4276  1.0701
 2221WAT     H2 9605   4.153   2.322   1.504  2.4861 -0.8067 -2.0761
 2221WAT    EPW 9606   4.152   2.251   1.537  0.2929 -0.0684 -0.2850
 2222WAT      O 9607   3.217   1.537   0.360  0.2249  0.3314 -0.0043
 2222WAT     H1 9608   3.160   1.481   0.325  0.3043  0.6179 -0.6016
 2222WAT     H2 9609   3.171   1.577   0.423  0.8427 -2.1880  2.2661
 2222WAT    EPW 9610   3.202   1.534   0.364  0.3279  0.0015  0.2429
 2223WAT      O 9611   6.146   0.606   1.802 -0.4370 -0.5061 -0.0507
 2223WAT     H1 9612   6.123   0.682   1.767  0.5218 -0.6965 -1.1507
 2223WAT     H2 9613   6.082   0.552   1.777 -0.5679 -0.2999 -0.1642
 2223WAT    EPW 9614   6.133   0.609   1.793 -0.3147 -0.5037 -0.2300
 2224WAT      O 9615   6.484   4.239   5.950  0.7079 -0.0742 -0.4016
 2224WAT     H1 9616   6.554   4.191   5.966  1.4733  0.7601 -1.1448
 2224WAT     H2 9617   6.441   4.194   5.889 -0.3278 -1.4373  1.2419
 2224WAT    EPW 9618   6.488   4.225   5.943  0.6679 -0.1523 -0.2686
 2225WAT      O 9619   5.235   5.457   5.993 -0.0767 -0.0131  0.3896
 2225WAT     H1 9620   5.235   5.544   5.987 -1.1729  0.0171  0.7057
 2225WAT     H2 9621   5.170   5.433   5.940  0.4732 -0.6747 -0.0040
 2225WAT    EPW 9622   5.225   5.466   5.984 -0.1574 -0.1064  0.3782
 2226WAT      O 9623   3.432   6.580   0.084 -0.1840 -0.4478  0.3311
 2226WAT     H1 9624   3.478   6.576   0.010 -0.2011 -0.8322  0.3360
 2226WAT     H2 9625   3.482   6.537   0.141  0.5106  1.0900  0.9194
 2226WAT    EPW 9626   3.446   6.573   0.082 -0.0839 -0.2774  0.4188
 2227WAT      O 9627   4.315   0.152   4.774 -0.2246 -0.2845  0.2938
 2227WAT     H1 9628   4.228   0.151   4.767 -0.2732  2.6279 -1.1112
 2227WAT     H2 9629   4.342   0.103   4.708 -0.7775 -1.1387  0.6908
 2227WAT    EPW 9630   4.306   0.145   4.763 -0.3134  0.0195  0.1449
 2228WAT      O 9631   2.567   2.084   1.913 -0.3400  0.4237 -0.2314
 2228WAT     H1 9632   2.567   2.063   1.998  0.8959 -0.4553 -0.4242
 2228WAT     H2 9633   2.650   2.073   1.889 -0.9658 -1.1260 -1.9711
 2228WAT    EPW 9634   2.579   2.079   1.922 -0.2499  0.0649 -0.5169
 2229WAT      O 9635   0.182   4.632   1.962  0.0269  0.1266  0.1373
 2229WAT     H1 9636   0.105   4.660   1.933  0.4758  0.9369 -0.3053
 2229WAT     H2 9637   0.197   4.560   1.915 -0.7093 -0.3452  0.6168
 2229WAT    EPW 9638   0.173   4.625   1.951 -0.0155  0.1766  0.1427
 2230WAT      O 9639   2.243   0.450   0.977  0.0334 -0.4192 -0.0468
 2230WAT     H1 9640   2.328   0.444   0.991  0.2136  2.3133  0.6066
 2230WAT     H2 9641   2.235   0.521   0.927 -1.7553 -1.6952 -1.7159
 2230WAT    EPW 9642   2.254   0.459   0.972 -0.2042 -0.2041 -0.1968
 2231WAT      O 9643   5.581   4.779   2.314  0.3517 -0.0223 -0.0548
 2231WAT     H1 9644   5.587   4.694   2.333 -0.6019 -1.1519 -3.9093
 2231WAT     H2 9645   5.663   4.808   2.325  0.8070 -1.5173  0.8232
 2231WAT    EPW 9646   5.594   4.771   2.319  0.2781 -0.4100 -0.4945
 2232WAT      O 9647   0.070   5.883   5.803 -0.1532  0.1830  0.0740
 2232WAT     H1 9648   0.147   5.923   5.802  0.1425 -0.2794  1.3420
 2232WAT     H2 9649   0.090   5.800   5.824 -0.9769  0.0372  0.3500
 2232WAT    EPW 9650   0.084   5.876   5.806 -0.2312  0.0931  0.3021
 2233WAT      O 9651   4.754   0.300   3.650 -0.3634 -0.4208  0.5982
 2233WAT     H1 9652   4.749   0.251   3.578  1.1708  0.8764 -0.4776
 2233WAT     H2 9653   4.714   0.374   3.627  1.9663  0.8100  0.2801
 2233WAT    EPW 9654   4.747   0.304   3.636  0.2074 -0.0474  0.3923
 2234WAT      O 9655   5.863   2.704   0.331 -0.1577  0.5787  0.3156
 2234WAT     H1 9656   5.885   2.623   0.308 -1.5867  0.6141 -1.3733
 2234WAT     H2 9657   5.821   2.694   0.407  1.1521 -0.0262  0.9919
 2234WAT    EPW 9658   5.860   2.691   0.339 -0.1753  0.4946  0.1660
 2235WAT      O 9659   0.421   3.258   6.395 -0.3890  0.5871  1.1894
 2235WAT     H1 9660   0.408   3.330   6.349 -0.3099 -0.3247 -0.3446
 2235WAT     H2 9661   0.366   3.200   6.360 -0.6514 -0.0421  2.5504
 2235WAT    EPW 9662   0.411   3.260   6.383 -0.4161  0.3595  1.1639
 2236WAT      O 9663   6.227   1.408   7.344 -0.9090  0.4129 -0.1925
 2236WAT     H1 9664   6.203   1.397   7.261 -0.9417  0.4706 -0.1900
 2236WAT     H2 9665   6.315   1.412   7.340 -0.3874 -4.3970  0.2128
 2236WAT    EPW 9666   6.237   1.407   7.331 -0.8367 -0.2891 -0.1323
 2237WAT      O 9667   0.758   6.916   0.920  0.0068  0.1441 -0.0679
 2237WAT     H1 9668   0.843   6.913   0.938 -0.0563  1.2204  0.4998
 2237WAT     H2 9669   0.729   6.836   0.939  0.8790 -0.2200 -0.2438
 2237WAT    EPW 9670   0.766   6.904   0.925  0.1264  0.2493 -0.0100
 2238WAT      O 9671   5.126   2.786   0.445 -0.3053 -0.0228 -0.3433
 2238WAT     H1 9672   5.177   2.834   0.497 -0.5215  0.0088 -0.1550
 2238WAT     H2 9673   5.173   2.777   0.372  0.1453 -0.3540 -0.0143
 2238WAT    EPW 9674   5.140   2.792   0.442 -0.2707 -0.0671 -0.2668
 2239WAT      O 9675   0.155   2.921   2.201 -0.0310 -0.1568  0.2120
 2239WAT     H1 9676   0.127   3.003   2.205  0.3602  0.2039 -2.4462
 2239WAT     H2 9677   0.223   2.919   2.256  1.1876  1.9014 -1.1042
 2239WAT    EPW 9678   0.161   2.933   2.210  0.2068  0.2005 -0.3751
 2240WAT      O 9679   5.746   0.233   3.574  0.4628  0.3027 -0.1948
 2240WAT     H1 9680   5.793   0.281   3.518  2.2270 -2.0286 -0.8880
 2240WAT     H2 9681   5.722   0.164   3.526  0.2011 -0.7443  1.3796
 2240WAT    EPW 9682   5.750   0.230   3.558  0.6848 -0.1963 -0.0646
 2241WAT      O 9683   6.322   3.947   4.803 -0.2248  0.0128 -0.5504
 2241WAT     H1 9684   6.289   4.016   4.845  1.6258  0.3966  0.3415
 2241WAT     H2 9685   6.317   3.970   4.719 -0.0722  1.0386 -0.2879
 2241WAT    EPW 9686   6.316   3.961   4.796  0.0711  0.2210 -0.3799
 2242WAT      O 9687   3.479   0.109   2.914  0.1409 -0.2639 -0.2591
 2242WAT     H1 9688   3.539   0.054   2.882 -0.9571 -1.8565  0.2959
 2242WAT     H2 9689   3.411   0.057   2.933  0.0474  0.8163  2.9669
 2242WAT    EPW 9690   3.477   0.093   2.912 -0.0351 -0.3396  0.2994
 2243WAT      O 9691   5.039   3.559   1.903  0.2004 -0.6826  0.1606
 2243WAT     H1 9692   5.028   3.592   1.983 -0.0295  1.0894 -0.5694
 2243WAT     H2 9693   4.967   3.582   1.861  0.9966 -0.2312 -1.0034
 2243WAT    EPW 9694   5.027   3.567   1.909  0.2840 -0.3541 -0.1192
 2244WAT      O 9695   3.026   2.083   6.121 -1.0477  0.0921  0.3920
 2244WAT     H1 9696   3.026   2.064   6.036 -0.4797  1.4366  0.0702
 2244WAT     H2 9697   3.073   2.018   6.157  0.0570  0.3441 -0.5428
 2244WAT    EPW 9698   3.033   2.070   6.114 -0.8006  0.3279  0.2064
 2245WAT      O 9699   4.207   7.227   0.199  0.5116 -0.1581  0.0132
 2245WAT     H1 9700   4.175   7.243   0.120 -1.1131  0.9146  0.8256
 2245WAT     H2 9701   4.136   7.220   0.249  1.4151 -2.5812  1.1237
 2245WAT    EPW 9702   4.192   7.228   0.195  0.4051 -0.3576  0.2973
 2246WAT      O 9703   3.399   6.236   0.115 -0.0897  0.1859  0.0637
 2246WAT     H1 9704   3.363   6.273   0.045  1.4899 -0.9821 -1.4919
 2246WAT     H2 9705   3.448   6.299   0.149 -0.3248  0.5752 -0.3165
 2246WAT    EPW 9706   3.401   6.251   0.110  0.1089  0.0709 -0.2222
 2247WAT      O 9707   6.660   6.457   2.891  0.4412 -0.1414 -0.1449
 2247WAT     H1 9708   6.745   6.468   2.909  0.7949 -0.1905 -1.6839
 2247WAT     H2 9709   6.621   6.521   2.937  0.9100 -1.9917  3.1644
 2247WAT    EPW 9710   6.667   6.468   2.900  0.5627 -0.4220  0.1166
 2248WAT      O 9711   1.482   2.191   4.372  0.1600 -0.2949  0.4330
 2248WAT     H1 9712   1.439   2.116   4.358 -1.6864  0.6651  0.5750
 2248WAT     H2 9713   1.478   2.201   4.459  0.8168 -0.2714  0.4595
 2248WAT    EPW 9714   1.475   2.182   4.383 -0.0157 -0.1496  0.4579
 2249WAT      O 9715   3.882   4.187   0.782  0.0819 -0.6136  0.0172
 2249WAT     H1 9716   3.814   4.242   0.790 -0.2532 -1.0784  0.3761
 2249WAT     H2 9717   3.859   4.135   0.716  0.8084  0.2474 -0.9580
 2249WAT    EPW 9718   3.868   4.188   0.774  0.1397 -0.5551 -0.0738
 2250WAT      O 9719   0.160   5.535   5.199  0.1087  0.0708 -0.3817
 2250WAT     H1 9720   0.110   5.477   5.157 -0.0079 -0.1124  0.0059
 2250WAT     H2 9721   0.179   5.594   5.137 -0.1236 -0.1534 -0.6713
 2250WAT    EPW 9722   0.155   5.535   5.183  0.0572  0.0106 -0.3672
 2251WAT      O 9723   4.104   1.373   4.290 -0.5374  0.0844  0.0892
 2251WAT     H1 9724   4.137   1.405   4.364 -1.9459 -2.3128  1.9035
 2251WAT     H2 9725   4.037   1.427   4.272  0.1155  0.9686  0.2495
 2251WAT    EPW 9726   4.099   1.386   4.299 -0.6490 -0.1391  0.3809
 2252WAT      O 9727   1.688   3.561   0.712  0.0580 -0.1276 -0.2094
 2252WAT     H1 9728   1.692   3.611   0.784 -0.2665  0.2343 -0.4398
 2252WAT     H2 9729   1.605   3.535   0.709  0.4661 -1.5906  0.5042
 2252WAT    EPW 9730   1.676   3.565   0.723  0.0704 -0.2903 -0.1380
 2253WAT      O 9731   6.639   0.829   3.907 -0.2488 -0.1401 -0.1539
 2253WAT     H1 9732   6.553   0.842   3.908 -0.6216 -2.0831 -1.5859
 2253WAT     H2 9733   6.657   0.800   3.987 -1.0008 -0.1381  0.0202
 2253WAT    EPW 9734   6.629   0.827   3.919 -0.4150 -0.4268 -0.3397
 2254WAT      O 9735   3.172   0.919   1.984  0.1723  0.0371  0.3821
 2254WAT     H1 9736   3.137   0.979   2.037 -0.4313  1.2963 -1.3570
 2254WAT     H2 9737   3.177   0.848   2.035 -0.1304  1.2246  2.1890
 2254WAT    EPW 9738   3.167   0.917   2.000  0.0384  0.3985  0.3921
 2255WAT      O 9739   0.381   5.383   6.359  0.0836 -0.8035  0.2056
 2255WAT     H1 9740   0.360   5.371   6.275  1.0122  0.0844 -0.1754
 2255WAT     H2 9741   0.464   5.356   6.363  0.3304 -0.0154  0.6307
 2255WAT    EPW 9742   0.390   5.377   6.347  0.2572 -0.5560  0.2121
 2256WAT      O 9743   1.896   3.659   2.035 -0.8059 -0.0314  0.6971
 2256WAT     H1 9744   1.868   3.688   2.113 -1.4205  0.7267  0.2089
 2256WAT     H2 9745   1.844   3.700   1.978  1.3710  1.5848 -0.2763
 2256WAT    EPW 9746   1.884   3.670   2.038 -0.5751  0.3193  0.4812
 2257WAT      O 9747   2.588   3.390   6.285  0.0664  0.6987  0.0665
 2257WAT     H1 9748   2.666   3.409   6.251  0.6397 -0.2455  0.8299
 2257WAT     H2 9749   2.597   3.411   6.369 -1.3782  3.1470 -0.2833
 2257WAT    EPW 9750   2.601   3.396   6.292 -0.0623  0.9209  0.1276
 2258WAT      O 9751   5.852   3.907   4.785 -0.2315  0.1640  0.0999
 2258WAT     H1 9752   5.905   3.914   4.716  1.1439 -1.2680  0.9638
 2258WAT     H2 9753   5.893   3.953   4.847 -0.9455  0.5720  0.2833
 2258WAT    EPW 9754   5.866   3.915   4.784 -0.1338  0.0127  0.2546
 2259WAT      O 9755   4.894   5.163   4.495  0.7578 -0.3064  0.0019
 2259WAT     H1 9756   4.974   5.172   4.529  0.4048 -1.4843  1.2460
 2259WAT     H2 9757   4.884   5.076   4.490 -1.0224 -0.2341  1.3424
 2259WAT    EPW 9758   4.904   5.151   4.499  0.4427 -0.4697  0.3837
 2260WAT      O 9759   0.241   0.492   4.729 -0.8289 -0.0261  0.7967
 2260WAT     H1 9760   0.294   0.437   4.687 -1.5563 -0.6984  0.7261
 2260WAT     H2 9761   0.295   0.547   4.770 -0.0546 -1.4760  1.7845
 2260WAT    EPW 9762   0.257   0.492   4.729 -0.8220 -0.3396  0.9322
 2261WAT      O 9763   6.090   0.867   4.716 -0.0992  0.2234  0.0503
 2261WAT     H1 9764   6.101   0.855   4.802  1.7319  0.8140 -0.0544
 2261WAT     H2 9765   6.136   0.802   4.680 -1.4949 -0.4832 -0.5067
 2261WAT    EPW 9766   6.099   0.856   4.724 -0.0349  0.2062 -0.0474
 2262WAT      O 9767   2.293   2.617   2.116  0.3097 -0.3277 -0.4764
 2262WAT     H1 9768   2.347   2.686   2.113 -0.0977  0.0048 -0.3206
 2262WAT     H2 9769   2.314   2.579   2.192 -1.2536  1.1446  0.7942
 2262WAT    EPW 9770   2.304   2.622   2.127  0.0186 -0.0611 -0.2657
 2263WAT      O 9771   3.417   4.807   1.341  0.1129  0.1841 -0.4599
 2263WAT     H1 9772   3.417   4.795   1.255 -1.4794 -1.5945 -0.2859
 2263WAT     H2 9773   3.499   4.829   1.359  0.4105  0.8594 -2.4460
 2263WAT    EPW 9774   3.429   4.808   1.331 -0.0784  0.0211 -0.7276
 2264WAT      O 9775   1.537   2.503   4.147 -0.2269 -0.2250 -0.0074
 2264WAT     H1 9776   1.575   2.511   4.226 -1.4023  0.1084  0.5503
 2264WAT     H2 9777   1.605   2.494   4.093  0.7339  1.6027  0.7830
 2264WAT    EPW 9778   1.553   2.503   4.151 -0.2586  0.0943  0.1918
 2265WAT      O 9779   6.627   6.229   2.191  0.4465 -0.1314  0.0401
 2265WAT     H1 9780   6.602   6.305   2.227 -0.3947 -0.2207 -0.3203
 2265WAT     H2 9781   6.647   6.250   2.109  0.9636 -0.1711  0.1544
 2265WAT    EPW 9782   6.626   6.243   2.184  0.3986 -0.1504  0.0038
 2266WAT      O 9783   6.209   4.347   6.287  0.3096  0.2419 -0.5384
 2266WAT     H1 9784   6.288   4.378   6.263  1.2246 -0.3577  1.4606
 2266WAT     H2 9785   6.164   4.419   6.306 -0.4315  0.7432 -3.6484
 2266WAT    EPW 9786   6.214   4.362   6.286  0.3353  0.2274 -0.7025
 2267WAT      O 9787   5.480   6.828   5.173 -0.2607  0.4525 -0.0985
 2267WAT     H1 9788   5.419   6.875   5.215 -0.4382 -0.2736  0.4867
 2267WAT     H2 9789   5.509   6.773   5.235  0.4648  0.2930 -0.5740
 2267WAT    EPW 9790   5.475   6.826   5.189 -0.1797  0.3217 -0.0823
 2268WAT      O 9791   4.459   0.700   1.039  0.3518  0.2295  0.4418
 2268WAT     H1 9792   4.487   0.617   1.033 -0.9927 -0.2047 -0.1758
 2268WAT     H2 9793   4.412   0.700   1.112 -1.5340 -0.1742 -0.7153
 2268WAT    EPW 9794   4.456   0.688   1.049 -0.1254  0.1057  0.1796
 2269WAT      O 9795   2.329   1.334   2.292  0.2735  0.0959 -0.0599
 2269WAT     H1 9796   2.325   1.346   2.206  1.5919  0.7840 -0.0442
 2269WAT     H2 9797   2.245   1.331   2.316 -0.1105 -0.0348 -1.3505
 2269WAT    EPW 9798   2.316   1.336   2.283  0.4116  0.1782 -0.2482
 2270WAT      O 9799   4.708   5.456   0.257  0.2437  0.1548  0.4125
 2270WAT     H1 9800   4.645   5.491   0.306 -0.4501 -1.2740  0.5856
 2270WAT     H2 9801   4.709   5.507   0.186 -0.2339  0.9416  0.9567
 2270WAT    EPW 9802   4.699   5.468   0.254  0.0707  0.0600  0.5185
 2271WAT      O 9803   5.662   4.642   6.744 -0.5749  0.1091 -0.1707
 2271WAT     H1 9804   5.717   4.688   6.794 -0.8120  1.1026 -0.7823
 2271WAT     H2 9805   5.584   4.677   6.763 -0.8435 -0.4740 -0.1877
 2271WAT    EPW 9806   5.659   4.654   6.754 -0.6496  0.1697 -0.2635
 2272WAT      O 9807   6.267   1.549   1.867  0.2724  0.2324 -0.4929
 2272WAT     H1 9808   6.251   1.473   1.828  2.0493 -0.0794 -0.7189
 2272WAT     H2 9809   6.195   1.564   1.914  0.5467 -2.5470  1.0611
 2272WAT    EPW 9810   6.254   1.540   1.868  0.5754 -0.2242 -0.2967
 2273WAT      O 9811   4.593   6.522   0.218  0.7725 -0.1853 -0.0194
 2273WAT     H1 9812   4.551   6.488   0.149 -0.8102 -0.9359  1.2383
 2273WAT     H2 9813   4.606   6.453   0.270  0.9355  0.5314  0.9181
 2273WAT    EPW 9814   4.589   6.507   0.216  0.5628 -0.1903  0.3049
 2274WAT      O 9815   0.551   2.793   4.146 -0.7509  0.0470  0.0967
 2274WAT     H1 9816   0.509   2.741   4.203  0.8581 -0.5178  0.8289
 2274WAT     H2 9817   0.502   2.788   4.074 -1.9133 -0.6049  0.9072
 2274WAT    EPW 9818   0.538   2.784   4.144 -0.6849 -0.1327  0.3246
 2275WAT      O 9819   4.042   0.306   6.731 -0.1225 -0.2609 -0.0692
 2275WAT     H1 9820   3.963   0.273   6.712 -0.2425 -0.0757  0.0959
 2275WAT     H2 9821   4.087   0.296   6.657 -1.0658  1.8953 -1.0225
 2275WAT    EPW 9822   4.037   0.300   6.717 -0.2795  0.0850 -0.1856
 2276WAT      O 9823   2.632   0.406   7.383  0.0245 -0.1851 -0.0829
 2276WAT     H1 9824   2.614   0.443   7.306  0.9362 -0.9398 -0.6923
 2276WAT     H2 9825   2.553   0.386   7.415 -0.4761  1.9042  0.1207
 2276WAT    EPW 9826   2.618   0.408   7.376  0.0852  0.0121 -0.1429
 2277WAT      O 9827   2.094   5.646   1.601 -0.7421  0.4055  0.0770
 2277WAT     H1 9828   2.161   5.688   1.637  1.4522 -2.4821 -0.2473
 2277WAT     H2 9829   2.073   5.695   1.532  0.5165  1.7495  0.5993
 2277WAT    EPW 9830   2.101   5.659   1.596 -0.2321  0.1775  0.1062
 2278WAT      O 9831   2.561   4.324   4.905 -0.5973  0.6094  0.0260
 2278WAT     H1 9832   2.643   4.332   4.934 -0.1195  1.0846 -1.3774
 2278WAT     H2 9833   2.513   4.359   4.969  0.1184 -1.1529  1.6187
 2278WAT    EPW 9834   2.566   4.330   4.918 -0.4210  0.4192  0.0539
 2279WAT      O 9835   4.240   4.558   0.789 -0.1506 -0.1180  0.6019
 2279WAT     H1 9836   4.167   4.606   0.788  0.2527  0.4981  0.5297
 2279WAT     H2 9837   4.210   4.477   0.805 -0.7029  0.3907  2.3278
 2279WAT    EPW 9838   4.225   4.553   0.791 -0.1726  0.0482  0.8462
 2280WAT      O 9839   5.079   2.619   5.720 -0.3888 -0.1091  0.2064
 2280WAT     H1 9840   5.106   2.652   5.796  0.4286 -1.9520  0.7540
 2280WAT     H2 9841   5.009   2.572   5.741 -0.1719 -0.6159 -0.1706
 2280WAT    EPW 9842   5.073   2.617   5.734 -0.2360 -0.4562  0.2316
 2281WAT      O 9843   5.106   3.536   5.147 -0.6487 -0.4151 -0.4715
 2281WAT     H1 9844   5.157   3.606   5.159  2.0917 -2.1849 -0.7318
 2281WAT     H2 9845   5.151   3.488   5.090 -2.4187 -2.3825 -0.3266
 2281WAT    EPW 9846   5.120   3.539   5.140 -0.5053 -0.9672 -0.4885
 2282WAT      O 9847   5.084   0.876   2.298  0.3373  0.5691 -0.3641
 2282WAT     H1 9848   5.062   0.912   2.221 -1.3676  0.2123 -0.0965
 2282WAT     H2 9849   5.040   0.925   2.356  0.1477 -0.2898  0.2293
 2282WAT    EPW 9850   5.074   0.889   2.295  0.0575  0.3895 -0.2369
 2283WAT      O 9851   6.130   3.707   7.279  0.0869  0.1080  0.2441
 2283WAT     H1 9852   6.215   3.687   7.278  0.1582  0.4391 -0.6776
 2283WAT     H2 9853   6.129   3.794   7.275 -0.2763  0.2214  1.9962
 2283WAT    EPW 9854   6.143   3.717   7.278  0.0438  0.1737  0.3667
 2284WAT      O 9855   5.916   4.315   4.721 -0.3556 -0.0335  0.0293
 2284WAT     H1 9856   5.988   4.357   4.695  0.3291 -1.0746  0.2129
 2284WAT     H2 9857   5.934   4.231   4.708 -2.5780 -0.2529 -2.5136
 2284WAT    EPW 9858   5.929   4.309   4.715 -0.5827 -0.2197 -0.3192
 2285WAT      O 9859   0.027   6.183   6.331  0.1343  0.0595  0.9252
 2285WAT     H1 9860   0.075   6.240   6.287  1.5629 -0.5349  1.6366
 2285WAT     H2 9861  -0.025   6.148   6.271 -0.8288  2.1076  0.4841
 2285WAT    EPW 9862   0.026   6.186   6.316  0.2031  0.2743  0.9651
 2286WAT      O 9863   1.810   5.674   6.158  0.0107  0.3316  0.2731
 2286WAT     H1 9864   1.830   5.759   6.161  3.2672 -0.3611  2.4413
 2286WAT     H2 9865   1.851   5.646   6.086  0.2897  0.2901  0.4502
 2286WAT    EPW 9866   1.819   5.683   6.148  0.5329  0.2232  0.6195
 2287WAT      O 9867   7.043   2.722   6.090  0.1622 -0.3442 -0.4633
 2287WAT     H1 9868   6.965   2.723   6.050 -0.0612 -0.1010 -0.0315
 2287WAT     H2 9869   7.097   2.693   6.029 -0.3330 -0.8961 -0.6578
 2287WAT    EPW 9870   7.039   2.718   6.075  0.0560 -0.3898 -0.4283
 2288WAT      O 9871   3.845   2.268   0.157  0.5375  0.0994  0.3936
 2288WAT     H1 9872   3.787   2.319   0.116 -0.1372 -0.6862  0.3534
 2288WAT     H2 9873   3.921   2.304   0.137  0.0903  0.9242  0.1223
 2288WAT    EPW 9874   3.847   2.281   0.148  0.3718  0.1052  0.3476
 2289WAT      O 9875   5.097   2.991   3.503  0.1501  0.2889 -0.6219
 2289WAT     H1 9876   5.090   3.071   3.469 -2.2616  0.4284  0.0002
 2289WAT     H2 9877   5.059   2.940   3.442 -2.0036  0.2242  0.6868
 2289WAT    EPW 9878   5.090   2.995   3.489 -0.5243  0.2999 -0.3367
 2290WAT      O 9879   5.981   0.171   4.760  0.1851  0.2239 -0.2717
 2290WAT     H1 9880   6.050   0.118   4.763 -0.2974 -0.4033 -0.0237
 2290WAT     H2 9881   5.933   0.141   4.694  0.6685  1.3424 -1.1726
 2290WAT    EPW 9882   5.984   0.159   4.751  0.1852  0.2965 -0.3681
 2291WAT      O 9883   5.006   5.076   6.499  0.0698  0.1999 -0.8328
 2291WAT     H1 9884   4.977   5.000   6.468 -0.4801  0.0964 -0.0831
 2291WAT     H2 9885   4.968   5.083   6.577  1.6282  0.3159 -0.0345
 2291WAT    EPW 9886   4.996   5.066   6.506  0.2188  0.2017 -0.6041
 2292WAT      O 9887   0.697   2.769   3.463 -0.0564 -0.0210  0.3526
 2292WAT     H1 9888   0.623   2.738   3.428 -0.0844 -0.5554  0.8658
 2292WAT     H2 9889   0.745   2.791   3.393 -0.3369 -0.5377 -0.0094
 2292WAT    EPW 9890   0.693   2.768   3.447 -0.1020 -0.1763  0.3749
 2293WAT      O 9891   0.778   4.462   2.848 -0.3475 -0.1202 -0.0388
 2293WAT     H1 9892   0.714   4.403   2.848  0.2634 -0.8204  1.0696
 2293WAT     H2 9893   0.823   4.443   2.776 -0.8371 -0.2221 -0.3247
 2293WAT    EPW 9894   0.775   4.450   2.837 -0.3296 -0.2387  0.0827
 2294WAT      O 9895   6.721   1.767   2.957 -0.0321 -0.2707  0.1793
 2294WAT     H1 9896   6.748   1.754   3.039 -0.6251 -0.4646  0.3483
 2294WAT     H2 9897   6.641   1.733   2.956 -0.4793  0.7548 -0.1720
 2294WAT    EPW 9898   6.713   1.760   2.969 -0.1857 -0.1479  0.1524
 2295WAT      O 9899   0.106   0.547   4.343  0.3808 -0.3479  0.2786
 2295WAT     H1 9900   0.180   0.511   4.315  1.5389  0.5220  1.9518
 2295WAT     H2 9901   0.134   0.617   4.388 -1.5753  1.0090 -0.4587
 2295WAT    EPW 9902   0.121   0.552   4.346  0.2630 -0.0190  0.4168
 2296WAT      O 9903   4.393   5.524   3.213  0.2771 -0.1614 -0.1401
 2296WAT     H1 9904   4.339   5.477   3.164  1.5555 -1.5373 -0.3142
 2296WAT     H2 9905   4.341   5.582   3.251 -1.1154 -0.6243 -1.2421
 2296WAT    EPW 9906   4.378   5.525   3.211  0.2602 -0.4330 -0.3286
 2297WAT      O 9907   3.316   3.901   1.748 -0.1315  0.0999  0.3816
 2297WAT     H1 9908   3.243   3.874   1.708  0.4672 -0.0796 -0.6391
 2297WAT     H2 9909   3.359   3.827   1.763  0.2039  0.2629  0.2281
 2297WAT    EPW 9910   3.311   3.886   1.744  0.0065  0.0975  0.2081
 2298WAT      O 9911   1.755   5.691   4.958  0.2868 -0.4011  0.0692
 2298WAT     H1 9912   1.678   5.667   4.924 -0.0650  1.9658 -1.0189
 2298WAT     H2 9913   1.747   5.778   4.967  1.9704 -0.3978  2.2484
 2298WAT    EPW 9914   1.742   5.701   4.954  0.4835 -0.0509  0.2304
 2299WAT      O 9915   6.697   1.154   3.882 -0.0066 -0.2452 -0.9719
 2299WAT     H1 9916   6.637   1.125   3.826  0.5729 -0.3950 -1.5213
 2299WAT     H2 9917   6.719   1.082   3.927 -1.2041  0.0577  0.1761
 2299WAT    EPW 9918   6.691   1.139   3.880 -0.0979 -0.2226 -0.8835
 2300WAT      O 9919   4.898   5.099   1.318  0.7027  0.1873  0.5416
 2300WAT     H1 9920   4.961   5.079   1.261 -0.9465 -1.4414 -0.8121
 2300WAT     H2 9921   4.896   5.030   1.371 -1.4129 -0.9136 -0.8489
 2300WAT    EPW 9922   4.907   5.086   1.318  0.1466 -0.2160  0.1362
 2301WAT      O 9923   6.959   2.695   4.460 -0.0118 -0.4917 -0.1079
 2301WAT     H1 9924   6.980   2.766   4.506  0.3620 -0.7405  0.1127
 2301WAT     H2 9925   6.899   2.724   4.404  0.6523  0.1522 -0.4948
 2301WAT    EPW 9926   6.953   2.710   4.459  0.1415 -0.4334 -0.1324
 2302WAT      O 9927   1.329   1.541   1.608  0.4345 -0.4091  0.1882
 2302WAT     H1 9928   1.414   1.534   1.592  0.5800  0.0024  0.7554
 2302WAT     H2 9929   1.322   1.524   1.693 -0.3525 -2.7481 -0.2884
 2302WAT    EPW 9930   1.340   1.538   1.618  0.3397 -0.6938  0.2016
 2303WAT      O 9931   2.739   3.736   1.385 -0.1203 -0.0727  0.0852
 2303WAT     H1 9932   2.670   3.742   1.331  0.9515  0.9415 -1.2117
 2303WAT     H2 9933   2.783   3.668   1.354  0.7682  0.8247 -0.6619
 2303WAT    EPW 9934   2.735   3.726   1.373  0.1693  0.2096 -0.2167
 2304WAT      O 9935   5.856   6.765   4.889  0.3384 -0.4930 -0.0345
 2304WAT     H1 9936   5.887   6.796   4.964  2.9175 -0.6791 -0.9032
 2304WAT     H2 9937   5.784   6.722   4.912 -0.5671  1.8379  1.8961
 2304WAT    EPW 9938   5.850   6.763   4.903  0.5856 -0.1761  0.1224
 2305WAT      O 9939   3.799   2.799   2.962  0.2638  0.1549  0.0553
 2305WAT     H1 9940   3.754   2.835   2.897  0.3560 -1.1320 -0.7584
 2305WAT     H2 9941   3.738   2.779   3.021 -0.2338 -1.2468 -0.8819
 2305WAT    EPW 9942   3.783   2.802   2.961  0.2039 -0.2422 -0.2034
 2306WAT      O 9943   5.938   4.415   2.664  0.5082  0.0070  0.4366
 2306WAT     H1 9944   5.867   4.457   2.692  1.5269  1.4883  0.9706
 2306WAT     H2 9945   5.956   4.455   2.588  0.3491 -0.8876 -0.0845
 2306WAT    EPW 9946   5.930   4.427   2.657  0.6352  0.0937  0.4385
 2307WAT      O 9947   0.313   3.335   6.629  0.4292  0.1457  0.5198
 2307WAT     H1 9948   0.245   3.280   6.625  1.2078 -0.8059 -0.2382
 2307WAT     H2 9949   0.359   3.316   6.557  0.3631  2.3222 -0.1556
 2307WAT    EPW 9950   0.310   3.324   6.618  0.5345  0.3266  0.3081
 2308WAT      O 9951   2.920   3.891   1.984 -0.6700  0.1605  0.1136
 2308WAT     H1 9952   2.902   3.889   1.899 -1.3845  1.3197  0.2163
 2308WAT     H2 9953   2.867   3.830   2.017  1.5715 -2.3423 -0.5337
 2308WAT    EPW 9954   2.909   3.881   1.977 -0.4444 -0.0380  0.0332
 2309WAT      O 9955   3.721   2.612   1.528  0.0107  0.1041 -0.6686
 2309WAT     H1 9956   3.654   2.561   1.505  0.5008 -1.2276  0.6459
 2309WAT     H2 9957   3.687   2.665   1.589  0.4121 -1.6240  1.1724
 2309WAT    EPW 9958   3.706   2.612   1.534  0.1424 -0.3479 -0.2024
 2310WAT      O 9959   4.638   3.854   4.075  0.5633  0.5325  0.2163
 2310WAT     H1 9960   4.609   3.899   4.144 -0.9347 -0.1828  0.0990
 2310WAT     H2 9961   4.724   3.866   4.077  0.7244 -0.4168  2.9300
 2310WAT    EPW 9962   4.646   3.862   4.086  0.3658  0.2866  0.5999
 2311WAT      O 9963   2.845   4.106   3.518  0.5300  0.4373  0.1009
 2311WAT     H1 9964   2.873   4.187   3.510 -1.2512  1.0746 -0.1515
 2311WAT     H2 9965   2.918   4.059   3.528  1.5839  2.0382  0.1639
 2311WAT    EPW 9966   2.860   4.111   3.518  0.4226  0.7679  0.0729
 2312WAT      O 9967   4.244   6.756   6.381  0.8205 -0.4451  0.0622
 2312WAT     H1 9968   4.312   6.701   6.382 -0.0666 -1.6071 -0.8915
 2312WAT     H2 9969   4.175   6.703   6.387 -0.0872  0.5224 -1.2298
 2312WAT    EPW 9970   4.244   6.740   6.382  0.5553 -0.4738 -0.2695
 2313WAT      O 9971   0.410   2.381   3.535 -0.4823  0.1627 -0.3057
 2313WAT     H1 9972   0.460   2.311   3.522 -0.6811  0.1612 -1.1354
 2313WAT     H2 9973   0.452   2.426   3.597  0.5641  0.1771 -1.0170
 2313WAT    EPW 9974   0.423   2.377   3.542 -0.3571  0.1646 -0.5334
 2314WAT      O 9975   1.110   2.657   3.397 -0.3170 -0.2777 -0.2620
 2314WAT     H1 9976   1.088   2.682   3.477 -0.0571 -4.0078  1.2052
 2314WAT     H2 9977   1.188   2.694   3.383  0.4261 -0.8544  2.0006
 2314WAT    EPW 9978   1.119   2.666   3.407 -0.1688 -0.9139  0.2889
 2315WAT      O 9979   2.255   0.500   0.466 -0.4482  0.1134  0.0204
 2315WAT     H1 9980   2.315   0.466   0.520  0.3386  0.9804 -0.2906
 2315WAT     H2 9981   2.203   0.545   0.519 -1.2829 -1.2151  0.3901
 2315WAT    EPW 9982   2.256   0.501   0.482 -0.4553  0.0453  0.0291
 2316WAT      O 9983   2.545   5.084   2.133 -0.4204 -0.7680  0.4976
 2316WAT     H1 9984   2.474   5.127   2.159 -1.4861 -1.2082 -1.4967
 2316WAT     H2 9985   2.523   5.000   2.142 -1.5370 -1.0306 -3.1175
 2316WAT    EPW 9986   2.531   5.078   2.138 -0.7428 -0.8718 -0.3310
 2317WAT      O 9987   3.259   5.224   1.209  0.3352 -0.0923  0.1854
 2317WAT     H1 9988   3.224   5.222   1.289 -1.5526 -1.2719 -0.6045
 2317WAT     H2 9989   3.206   5.173   1.162  1.2528  0.7622 -1.8952
 2317WAT    EPW 9990   3.246   5.216   1.214  0.1919 -0.1403 -0.2386
 2318WAT      O 9991   0.761   3.345   7.285  0.3691 -0.4097 -0.1522
 2318WAT     H1 9992   0.820   3.316   7.227 -0.1527 -1.2943 -0.2683
 2318WAT     H2 9993   0.709   3.396   7.237  0.4526 -0.4358 -0.2717
 2318WAT    EPW 9994   0.762   3.348   7.269  0.3043 -0.5442 -0.1870
 2319WAT      O 9995   2.797   6.796   3.105  0.3667  0.1296  0.3018
 2319WAT     H1 9996   2.756   6.819   3.032  2.5272 -0.3777 -1.1542
 2319WAT     H2 9997   2.734   6.797   3.165 -1.8028 -0.7679 -1.8005
 2319WAT    EPW 9998   2.782   6.799   3.103  0.3654 -0.0779 -0.2238
 2320WAT      O 9999   1.580   0.010   6.803 -0.4792  0.3179  0.5531
 2320WAT     H110000   1.547   0.074   6.754  0.0504 -0.0457 -0.3148
 2320WAT     H210001   1.511  -0.041   6.819 -0.1523 -1.4989 -2.9032
 2320WAT    EPW10002   1.565   0.012   6.798 -0.3527 -0.0042 -0.0857
 2321WAT      O10003   6.582   3.814   2.311  0.4508 -0.7402  0.3252
 2321WAT     H110004   6.511   3.803   2.359 -0.7770  1.2546 -0.8924
 2321WAT     H210005   6.583   3.744   2.259 -2.1346  0.3156 -1.3557
 2321WAT    EPW10006   6.572   3.802   2.310 -0.1125 -0.2896 -0.1030
 2322WAT      O10007   3.294   5.589   4.386  0.2349  0.9287 -0.1554
 2322WAT     H110008   3.361   5.573   4.332  0.7730 -0.1475  0.8004
 2322WAT     H210009   3.310   5.538   4.455 -1.7834  0.3250 -0.0578
 2322WAT    EPW10010   3.306   5.579   4.388  0.0162  0.6805  0.0002
 2323WAT      O10011   0.084   1.292   3.918 -0.2397 -0.2502  0.1655
 2323WAT     H110012   0.166   1.314   3.900  0.3773 -2.8566 -0.7252
 2323WAT     H210013   0.084   1.280   4.004 -0.3035  1.8267  0.4917
 2323WAT    EPW10014   0.096   1.293   3.928 -0.1580 -0.3284  0.0821
 2324WAT      O10015   2.714   0.786   6.644  0.2671 -0.0796  0.2026
 2324WAT     H110016   2.797   0.811   6.646 -0.4487  2.6435 -0.0152
 2324WAT     H210017   2.718   0.699   6.640  3.0772  0.0031 -0.3366
 2324WAT    EPW10018   2.727   0.777   6.644  0.5764  0.3349  0.0908
 2325WAT      O10019   3.813   5.837   5.043  0.3202 -0.2658 -0.4530
 2325WAT     H110020   3.885   5.866   5.004  1.2299 -0.7876  0.7691
 2325WAT     H210021   3.839   5.819   5.124 -1.2207 -0.3567  0.0580
 2325WAT    EPW10022   3.828   5.838   5.049  0.2269 -0.3563 -0.1970
 2326WAT      O10023   1.779   4.544   6.377  0.2548  0.2986  0.5703
 2326WAT     H110024   1.696   4.521   6.371  0.3917  0.2084 -3.1888
 2326WAT     H210025   1.780   4.627   6.350  1.2066  0.9095  2.3294
 2326WAT    EPW10026   1.767   4.553   6.372  0.4156  0.3755  0.2748
 2327WAT      O10027   4.290   3.501   0.683 -0.0889  0.0258  0.7329
 2327WAT     H110028   4.306   3.562   0.742  1.6747  0.1500  0.1921
 2327WAT     H210029   4.273   3.546   0.610 -2.3049 -0.1241  1.0869
 2327WAT    EPW10030   4.290   3.516   0.681 -0.1557  0.0220  0.7053
 2328WAT      O10031   1.763   4.321   6.786 -0.1566 -0.0368 -0.2390
 2328WAT     H110032   1.783   4.305   6.869 -0.2393 -0.0025 -0.2120
 2328WAT     H210033   1.809   4.393   6.767  1.4101 -1.1259 -0.8125
 2328WAT    EPW10034   1.773   4.329   6.796  0.0626 -0.1926 -0.3197
 2329WAT      O10035   2.793   3.448   5.143 -0.0475 -0.2019  0.3611
 2329WAT     H110036   2.767   3.525   5.174 -1.4387 -0.2025 -0.6739
 2329WAT     H210037   2.759   3.391   5.200  0.3079 -0.0931  0.6882
 2329WAT    EPW10038   2.784   3.451   5.156 -0.2005 -0.1859  0.2565
 2330WAT      O10039   1.438   2.503   6.771 -0.1938 -0.8211  0.1307
 2330WAT     H110040   1.469   2.434   6.814  1.8753 -1.2859 -1.9054
 2330WAT     H210041   1.498   2.518   6.710 -0.8082  2.5226  0.1574
 2330WAT    EPW10042   1.451   2.495   6.768  0.0211 -0.3958 -0.1662
 2331WAT      O10043   1.687   1.360   5.814  0.0252 -0.6968  0.3408
 2331WAT     H110044   1.654   1.421   5.867 -0.1517 -1.1215  0.7181
 2331WAT     H210045   1.683   1.287   5.861  0.9566 -0.8659  0.1726
 2331WAT    EPW10046   1.682   1.358   5.829  0.1366 -0.7845  0.3717
 2332WAT      O10047   4.928   3.542   7.331 -0.0483  0.3339 -0.2530
 2332WAT     H110048   4.854   3.542   7.286  0.8374 -0.1571 -1.7810
 2332WAT     H210049   4.986   3.509   7.275  1.5110  1.5127  0.5821
 2332WAT    EPW10050   4.926   3.537   7.316  0.3129  0.4355 -0.3554
 2333WAT      O10051   5.972   0.961   5.140 -0.3389 -0.0069 -0.3090
 2333WAT     H110052   6.021   0.934   5.072 -0.1632  1.1756 -0.6743
 2333WAT     H210053   6.028   0.958   5.207  0.1937  1.1046 -0.6798
 2333WAT    EPW10054   5.988   0.957   5.140 -0.2343  0.3320 -0.4177
 2334WAT      O10055   2.153   3.646   4.940  0.3568 -0.1854 -0.5172
 2334WAT     H110056   2.126   3.572   4.977 -0.9355 -0.0617 -1.1751
 2334WAT     H210057   2.232   3.659   4.976 -1.4225  0.8482  3.5731
 2334WAT    EPW10058   2.161   3.637   4.951 -0.0970 -0.0145 -0.0101
 2335WAT      O10059   7.189   3.066   7.248 -0.0784 -0.1177 -0.2908
 2335WAT     H110060   7.120   3.109   7.216  0.0228 -0.7550 -1.4321
 2335WAT     H210061   7.163   3.042   7.328 -0.0528  2.2165  0.4931
 2335WAT    EPW10062   7.175   3.069   7.255 -0.0597  0.1330 -0.3436
 2336WAT      O10063   6.760   1.085   0.213  0.6244  0.1979 -0.1215
 2336WAT     H110064   6.815   1.047   0.157 -1.7748  0.4377 -2.9004
 2336WAT     H210065   6.738   1.160   0.172 -3.1897 -0.7995 -0.2953
 2336WAT    EPW10066   6.765   1.091   0.198 -0.2935  0.0860 -0.5577
 2337WAT      O10067   4.304   2.955   2.822  0.4989  0.4478  0.4391
 2337WAT     H110068   4.310   3.033   2.783 -0.1596  0.7077  0.8416
 2337WAT     H210069   4.300   2.975   2.907  1.1833 -0.0775  0.5987
 2337WAT    EPW10070   4.304   2.970   2.829  0.5027  0.4086  0.5222
 2338WAT      O10071   5.147   2.098   1.208  0.1420  0.5474 -0.2562
 2338WAT     H110072   5.145   2.117   1.123 -4.8689  2.0370 -0.1086
 2338WAT     H210073   5.168   2.013   1.209 -2.0236 -0.1943 -3.2894
 2338WAT    EPW10074   5.150   2.088   1.196 -0.9182  0.6579 -0.6825
 2339WAT      O10075   2.845   1.112   3.951 -0.1323  0.2452 -0.0714
 2339WAT     H110076   2.816   1.155   4.022 -1.2410 -0.6232  0.0395
 2339WAT     H210077   2.775   1.066   3.926  1.2195 -2.2391  0.3803
 2339WAT    EPW10078   2.830   1.111   3.958 -0.0964 -0.2501  0.0117
 2340WAT      O10079   2.505   6.364   1.729  0.2298 -0.1129  0.2455
 2340WAT     H110080   2.543   6.440   1.709 -0.2938  0.4224  1.2044
 2340WAT     H210081   2.437   6.361   1.675 -1.0134  1.1910  1.6150
 2340WAT    EPW10082   2.500   6.375   1.718 -0.0312  0.1588  0.5894
 2341WAT      O10083   1.458   0.448   5.689  0.4976  0.0589  0.3241
 2341WAT     H110084   1.538   0.462   5.722  0.6840 -0.8191  0.2845
 2341WAT     H210085   1.412   0.518   5.714  0.8210 -0.2420  1.8296
 2341WAT    EPW10086   1.463   0.460   5.697  0.5729 -0.1152  0.5407
 2342WAT      O10087   4.989   1.624   6.634  0.0154 -0.2734  0.3756
 2342WAT     H110088   5.069   1.631   6.600 -0.0395  2.3579  0.5500
 2342WAT     H210089   4.967   1.707   6.651 -2.0773 -1.0496  1.9115
 2342WAT    EPW10090   4.997   1.637   6.632 -0.3018  0.0006  0.6283
 2343WAT      O10091   6.106   0.281   3.138  0.8712  0.3093 -0.3953
 2343WAT     H110092   6.045   0.328   3.178  0.7618  1.8403 -2.1990
 2343WAT     H210093   6.162   0.342   3.108  0.9783 -0.7025 -2.4166
 2343WAT    EPW10094   6.106   0.297   3.140  0.8708  0.3860 -0.9603
 2344WAT      O10095   0.803   2.671   1.446 -0.1929  0.6388  0.3318
 2344WAT     H110096   0.884   2.644   1.429 -0.7510 -1.4978  0.6897
 2344WAT     H210097   0.787   2.731   1.385  0.2383 -1.8505 -2.4629
 2344WAT    EPW10098   0.812   2.676   1.434 -0.2117 -0.0445 -0.0282
 2345WAT      O10099   6.960   0.915   1.201  0.4352  0.3727 -0.2011
 2345WAT     H110100   6.965   0.924   1.115 -2.8140 -1.0400 -0.6768
 2345WAT     H210101   6.905   0.848   1.212  0.1076  0.9948  2.9806
 2345WAT    EPW10102   6.953   0.906   1.190 -0.0932  0.2559  0.1986
 2346WAT      O10103   4.644   5.922   5.710  0.6200  0.1937  0.3367
 2346WAT     H110104   4.601   5.997   5.700 -1.0971 -0.8165 -0.2409
 2346WAT     H210105   4.708   5.927   5.651 -1.8561 -0.3899 -2.6796
 2346WAT    EPW10106   4.647   5.934   5.700  0.0006 -0.0417 -0.1942
 2347WAT      O10107   1.938   1.802   6.869 -0.3377  0.7085  0.0417
 2347WAT     H110108   1.924   1.874   6.917 -0.7377  2.0537 -1.9459
 2347WAT     H210109   2.024   1.788   6.878 -0.0912  1.9310 -0.1087
 2347WAT    EPW10110   1.949   1.811   6.877 -0.3604  1.0878 -0.2741
 2348WAT      O10111   3.402   5.206   6.610  1.0131  0.0401  0.1597
 2348WAT     H110112   3.366   5.269   6.659 -0.0042  2.3466 -3.1702
 2348WAT     H210113   3.470   5.246   6.573  1.0129 -1.1535 -1.1927
 2348WAT    EPW10114   3.407   5.221   6.612  0.8628  0.2045 -0.5320
 2349WAT      O10115   5.425   0.460   1.729  0.3730 -0.2045 -0.0714
 2349WAT     H110116   5.480   0.484   1.666  0.2996  0.2708  0.0422
 2349WAT     H210117   5.361   0.519   1.724  0.4715 -0.0356  0.5855
 2349WAT    EPW10118   5.424   0.472   1.719  0.3767 -0.1093  0.0424
 2350WAT      O10119   4.472   3.491   4.764 -0.2471 -0.3999 -0.2074
 2350WAT     H110120   4.464   3.557   4.821 -1.2050 -1.9016  1.5138
 2350WAT     H210121   4.389   3.477   4.738  0.1038 -0.1374 -1.5531
 2350WAT    EPW10122   4.458   3.499   4.768 -0.3367 -0.5830 -0.1519
 2351WAT      O10123   2.834   0.501   6.599 -0.2444  0.2707  0.3361
 2351WAT     H110124   2.899   0.459   6.638 -0.5295 -0.4529  0.0524
 2351WAT     H210125   2.872   0.537   6.529 -0.2422 -0.5728 -0.1046
 2351WAT    EPW10126   2.849   0.501   6.594 -0.2862  0.0392  0.2291
 2352WAT      O10127   3.217   3.919   6.719  0.0378 -0.3221  0.2692
 2352WAT     H110128   3.284   3.866   6.735  1.4655  0.9572 -1.0148
 2352WAT     H210129   3.216   3.924   6.632 -2.3973 -1.0593  0.1956
 2352WAT    EPW10130   3.227   3.912   6.708 -0.1110 -0.2420  0.0686
 2353WAT      O10131   3.298   6.763   6.347 -0.3599  0.3874 -0.6480
 2353WAT     H110132   3.314   6.802   6.271 -0.7416  1.8622 -0.0217
 2353WAT     H210133   3.211   6.757   6.349 -0.3536  0.3831 -0.3251
 2353WAT    EPW10134   3.287   6.768   6.336 -0.4154  0.6047 -0.5078
 2354WAT      O10135   0.065   2.546   1.093  0.4249 -0.3609 -0.3831
 2354WAT     H110136   0.029   2.467   1.087 -0.6920  0.1585 -0.7552
 2354WAT     H210137   0.139   2.538   1.048 -0.9453 -0.5017 -2.7623
 2354WAT    EPW10138   0.071   2.533   1.085  0.0575 -0.3050 -0.7895
 2355WAT      O10139   2.756   2.260   2.764  0.5575 -0.0772 -0.0856
 2355WAT     H110140   2.686   2.309   2.746  1.0024  0.1330 -1.3313
 2355WAT     H210141   2.820   2.318   2.776  0.6167 -0.2820  0.5995
 2355WAT    EPW10142   2.755   2.276   2.763  0.6320 -0.0764 -0.1684
 2356WAT      O10143   3.658   1.031   6.318 -0.2668 -0.7014 -0.2553
 2356WAT     H110144   3.619   1.091   6.369  1.2006  0.8083 -0.8260
 2356WAT     H210145   3.715   0.992   6.372  0.7907  0.4151 -0.5266
 2356WAT    EPW10146   3.660   1.034   6.334  0.1062 -0.3135 -0.3797
 2357WAT      O10147   3.521   0.425   4.500 -0.0217 -0.0988  0.0115
 2357WAT     H110148   3.526   0.356   4.554  0.9516  0.5326  0.7488
 2357WAT     H210149   3.480   0.485   4.548  0.3364  0.2778 -0.1534
 2357WAT    EPW10150   3.515   0.424   4.515  0.1750  0.0501  0.0960
 2358WAT      O10151   2.687   3.155   6.455 -0.0661 -0.4556 -0.6559
 2358WAT     H110152   2.687   3.071   6.480 -0.2941 -0.6295 -1.2229
 2358WAT     H210153   2.735   3.155   6.383  0.7788  0.0847 -0.1032
 2358WAT    EPW10154   2.694   3.143   6.448  0.0251 -0.4015 -0.6580
 2359WAT      O10155   2.500   0.675   0.944 -0.4082  0.1310  0.0607
 2359WAT     H110156   2.488   0.619   1.010 -0.2553 -0.2989 -0.2705
 2359WAT     H210157   2.465   0.749   0.973 -1.0355 -0.2581  0.3253
 2359WAT    EPW10158   2.493   0.677   0.958 -0.4783  0.0100  0.0509
 2360WAT      O10159   0.975   5.180   1.432  0.0201  0.1818  0.0093
 2360WAT     H110160   1.012   5.224   1.366 -1.2167  0.5648 -0.4566
 2360WAT     H210161   0.953   5.104   1.396  1.5073 -0.5847  0.6326
 2360WAT    EPW10162   0.977   5.175   1.417  0.0571  0.1252  0.0325
 2361WAT      O10163   6.199   2.123   1.143 -0.4412  0.3151  0.1536
 2361WAT     H110164   6.283   2.106   1.156  0.0261  2.2963 -0.0099
 2361WAT     H210165   6.198   2.161   1.064 -0.9431  3.3521  1.4691
 2361WAT    EPW10166   6.211   2.126   1.133 -0.4463  1.0564  0.3237
 2362WAT      O10167   3.883   2.590   1.811 -0.5599  0.5933 -0.5141
 2362WAT     H110168   3.905   2.611   1.893  0.9212 -2.9959  0.2034
 2362WAT     H210169   3.797   2.576   1.816 -0.2967 -0.7617  0.7893
 2362WAT    EPW10170   3.874   2.591   1.824 -0.3022 -0.1371 -0.2156
 2363WAT      O10171   4.617   6.186   2.924 -0.5136  0.0079  0.6396
 2363WAT     H110172   4.695   6.194   2.887 -0.3234 -0.4617  0.9338
 2363WAT     H210173   4.561   6.195   2.857 -0.1869 -0.4756  0.2995
 2363WAT    EPW10174   4.620   6.188   2.908 -0.4372 -0.1329  0.6328
 2364WAT      O10175   3.075   5.712   5.708  0.0639 -0.4544 -0.2477
 2364WAT     H110176   2.988   5.720   5.701  0.2159  1.8727 -0.2993
 2364WAT     H210177   3.097   5.666   5.637 -0.9798  0.3181 -1.1099
 2364WAT    EPW10178   3.065   5.706   5.696 -0.0678  0.0034 -0.3827
 2365WAT      O10179   5.390   6.759   1.181 -0.6758 -0.4111  0.2782
 2365WAT     H110180   5.377   6.744   1.266  0.4798 -1.4536  0.2913
 2365WAT     H210181   5.391   6.680   1.145  4.0596 -0.5260  0.1144
 2365WAT    EPW10182   5.388   6.745   1.188  0.1945 -0.5821  0.2560
 2366WAT      O10183   5.593   3.522   3.859  0.3804 -0.3401  0.0283
 2366WAT     H110184   5.524   3.546   3.812  1.3892  1.3433 -0.6946
 2366WAT     H210185   5.608   3.439   3.833 -0.7285 -0.3749 -0.5578
 2366WAT    EPW10186   5.585   3.513   3.848  0.3656 -0.0966 -0.1651
 2367WAT      O10187   3.768   6.313   5.771  0.0671  0.5917 -0.6171
 2367WAT     H110188   3.757   6.397   5.751  0.1403  0.6639 -0.3601
 2367WAT     H210189   3.795   6.277   5.696 -0.2272  0.7432 -0.7995
 2367WAT    EPW10190   3.770   6.320   5.757  0.0344  0.6247 -0.6061
 2368WAT      O10191   5.774   2.804   1.584  0.5051  0.4431  0.0463
 2368WAT     H110192   5.810   2.808   1.505  0.8569 -1.1290  0.0970
 2368WAT     H210193   5.768   2.719   1.600 -1.2789  0.6973  0.9573
 2368WAT    EPW10194   5.779   2.792   1.575  0.2936  0.2484  0.1884
 2369WAT      O10195   0.944   2.607   0.630 -0.2481 -0.2265  0.0463
 2369WAT     H110196   0.928   2.688   0.603  0.3828  0.1185  0.6706
 2369WAT     H210197   0.885   2.594   0.693  1.0815  0.5979  1.5104
 2369WAT    EPW10198   0.933   2.617   0.635  0.0415 -0.0537  0.3548
 2370WAT      O10199   1.221   0.046   2.426 -0.3978 -0.3757 -0.0785
 2370WAT     H110200   1.253  -0.033   2.445 -0.8108 -0.4640  0.2741
 2370WAT     H210201   1.291   0.093   2.405  0.0594 -0.3297  1.4774
 2370WAT    EPW10202   1.236   0.041   2.425 -0.3913 -0.3820  0.2034
 2371WAT      O10203   4.127   6.540   1.818 -0.1364  0.1147 -0.2330
 2371WAT     H110204   4.101   6.466   1.782 -1.2287  0.7594 -0.8064
 2371WAT     H210205   4.145   6.518   1.901  3.1345 -1.5576 -1.2245
 2371WAT    EPW10206   4.126   6.526   1.825  0.1854 -0.0371 -0.4642
 2372WAT      O10207   4.880   0.451   0.675  0.4310 -0.1084 -0.7798
 2372WAT     H110208   4.806   0.416   0.705  0.3364  0.7851  0.0603
 2372WAT     H210209   4.873   0.536   0.695  1.2926  0.1494 -1.4810
 2372WAT    EPW10210   4.868   0.459   0.682  0.5443  0.0617 -0.7592
 2373WAT      O10211   1.347   6.977   5.303  0.5584  0.0473  0.6113
 2373WAT     H110212   1.297   7.037   5.262  0.7216  0.9014  1.6306
 2373WAT     H210213   1.334   6.905   5.255 -0.4035  0.6435 -0.0860
 2373WAT    EPW10214   1.338   6.975   5.290  0.4404  0.2615  0.6589
 2374WAT      O10215   5.865   6.453   3.022  0.2431 -0.2105  0.4046
 2374WAT     H110216   5.944   6.470   3.056  1.1038 -1.7692 -0.7039
 2374WAT     H210217   5.826   6.531   3.021  1.7503  0.5957  0.9983
 2374WAT    EPW10218   5.871   6.467   3.027  0.5929 -0.3216  0.3285
 2375WAT      O10219   1.955   3.560   3.410  0.0160 -0.1696 -0.0766
 2375WAT     H110220   1.952   3.473   3.415  1.0098 -0.1700  0.6636
 2375WAT     H210221   2.028   3.581   3.453 -0.6271  1.0884  0.4512
 2375WAT    EPW10222   1.965   3.551   3.417  0.0678  0.0161  0.1107
 2376WAT      O10223   7.258   3.274   5.966 -0.6576 -0.1077 -0.7409
 2376WAT     H110224   7.282   3.207   6.016  1.3687  0.0771 -1.3441
 2376WAT     H210225   7.303   3.261   5.892 -1.4965  1.0401 -1.4896
 2376WAT    EPW10226   7.268   3.263   5.962 -0.4822  0.0891 -0.9406
 2377WAT      O10227   5.114   1.495   5.138 -0.6418  0.2667 -0.3338
 2377WAT     H110228   5.111   1.574   5.174 -1.0758  0.0346  0.1625
 2377WAT     H210229   5.145   1.509   5.058 -0.9057  0.9642 -0.3178
 2377WAT    EPW10230   5.118   1.509   5.132 -0.7449  0.3354 -0.2581
 2378WAT      O10231   3.207   2.628   2.783  0.1502  0.6061 -0.0800
 2378WAT     H110232   3.257   2.557   2.778 -2.0183 -1.0529  0.3075
 2378WAT     H210233   3.172   2.624   2.862 -0.4163  1.8448 -0.2320
 2378WAT    EPW10234   3.209   2.617   2.794 -0.2538  0.5440 -0.0452
 2379WAT      O10235   1.319   6.608   1.740  0.3308 -0.0107  0.4003
 2379WAT     H110236   1.250   6.577   1.697  2.1530 -1.4195 -1.7146
 2379WAT     H210237   1.320   6.562   1.814  0.2906 -1.6436 -0.5825
 2379WAT    EPW10238   1.309   6.597   1.745  0.5940 -0.4600 -0.0573
 2380WAT      O10239   1.794   2.268   1.824  0.4976  0.1196  0.2519
 2380WAT     H110240   1.784   2.187   1.793 -0.5672  0.6443 -0.8457
 2380WAT     H210241   1.879   2.284   1.813  0.4965 -0.4162 -0.6446
 2380WAT    EPW10242   1.805   2.259   1.818  0.3401  0.1180 -0.0427
 2381WAT      O10243   0.173   5.878   6.329  0.6946 -0.4479 -0.1147
 2381WAT     H110244   0.155   5.930   6.263  1.1798 -0.2218 -0.0760
 2381WAT     H210245   0.260   5.879   6.333  0.6818 -0.6369  0.3792
 2381WAT    EPW10246   0.183   5.886   6.320  0.7644 -0.4424 -0.0360
 2382WAT      O10247   5.693   4.717   7.388 -0.0548  0.4097  0.2029
 2382WAT     H110248   5.690   4.779   7.449  0.6808  0.2075  0.4505
 2382WAT     H210249   5.765   4.672   7.407  0.4195  0.5933 -1.0780
 2382WAT    EPW10250   5.703   4.719   7.400  0.1239  0.4070  0.0503
 2383WAT      O10251   3.812   2.412   4.695 -0.0666 -0.5086  0.1859
 2383WAT     H110252   3.898   2.422   4.698  0.1113 -1.7026 -0.5376
 2383WAT     H210253   3.786   2.472   4.637 -0.0818  1.7058  2.3236
 2383WAT    EPW10254   3.821   2.423   4.687 -0.0426 -0.3579  0.3948
 2384WAT      O10255   3.939   6.213   4.966  0.0274  0.3309  0.4056
 2384WAT     H110256   3.968   6.264   4.902 -0.5781  1.4817  1.0158
 2384WAT     H210257   4.012   6.189   5.007  0.3501  0.3522 -0.1485
 2384WAT    EPW10258   3.954   6.217   4.963 -0.0144  0.5041  0.4139
 2385WAT      O10259   7.135   5.945   5.413  0.0922 -0.1956 -0.3944
 2385WAT     H110260   7.110   6.027   5.397 -0.4617 -0.3997 -0.6030
 2385WAT     H210261   7.120   5.935   5.499  1.3163  0.3055 -0.1057
 2385WAT    EPW10262   7.129   5.955   5.423  0.1912 -0.1518 -0.3826
 2386WAT      O10263   3.288   4.859   3.735 -0.2950  0.1075 -0.0011
 2386WAT     H110264   3.365   4.889   3.707  0.1760  0.1075  1.2568
 2386WAT     H210265   3.233   4.881   3.671  0.7129  0.2487 -0.8452
 2386WAT    EPW10266   3.291   4.867   3.721 -0.0765  0.1284  0.0600
 2387WAT      O10267   5.270   3.776   5.204 -0.2302 -0.5243  0.0260
 2387WAT     H110268   5.272   3.846   5.151  0.7954  0.5625  1.4129
 2387WAT     H210269   5.347   3.738   5.189 -0.3750 -0.8094 -0.0028
 2387WAT    EPW10270   5.282   3.781   5.194 -0.1001 -0.4059  0.2266
 2388WAT      O10271   4.172   1.464   3.533  0.2632 -0.1125  0.0129
 2388WAT     H110272   4.168   1.450   3.447  0.0688  0.8010 -0.1391
 2388WAT     H210273   4.246   1.510   3.544 -0.7303  1.5835  0.0321
 2388WAT    EPW10274   4.182   1.469   3.522  0.0878  0.2730 -0.0067
 2389WAT      O10275   6.782   2.702   5.978 -0.0478  0.2303  0.3321
 2389WAT     H110276   6.783   2.688   5.892 -0.9827  2.2584 -0.0836
 2389WAT     H210277   6.711   2.659   6.006 -0.6209  0.8171 -0.1962
 2389WAT    EPW10278   6.772   2.694   5.970 -0.2705  0.6166  0.1926
 2390WAT      O10279   3.614   3.180   0.179 -0.3503  0.6793  0.6311
 2390WAT     H110280   3.564   3.149   0.114 -0.0205 -2.5456  1.7572
 2390WAT     H210281   3.655   3.248   0.142 -1.2338 -0.1319 -2.0832
 2390WAT    EPW10282   3.612   3.186   0.164 -0.4321  0.0831  0.3965
 2391WAT      O10283   6.924   3.300   4.416  0.4251  0.3668  0.1912
 2391WAT     H110284   6.917   3.348   4.343 -1.6012  0.5064  0.4200
 2391WAT     H210285   6.870   3.233   4.402 -1.3765  1.2937  2.1999
 2391WAT    EPW10286   6.915   3.297   4.403 -0.1403  0.5243  0.5217
 2392WAT      O10287   0.983   2.374   2.166  0.1493  0.1320 -0.1337
 2392WAT     H110288   1.033   2.426   2.215 -1.5134  0.6565  1.1121
 2392WAT     H210289   1.011   2.294   2.185  0.3448  0.4003  0.7361
 2392WAT    EPW10290   0.995   2.370   2.176 -0.0674  0.2491  0.1788
 2393WAT      O10291   3.038   1.991   1.424  0.1221  0.0886 -0.1818
 2393WAT     H110292   2.981   2.058   1.420 -0.0253 -0.0702 -0.9650
 2393WAT     H210293   2.986   1.921   1.428  0.2314 -0.0718 -1.1342
 2393WAT    EPW10294   3.022   1.991   1.424  0.1165  0.0414 -0.4382
 2394WAT      O10295   1.795   1.923   6.625 -0.1097  0.0862  0.5806
 2394WAT     H110296   1.832   1.901   6.702  1.4590 -0.3163 -0.2495
 2394WAT     H210297   1.863   1.930   6.571 -1.2952 -1.3193 -1.1965
 2394WAT    EPW10298   1.811   1.921   6.629 -0.0531 -0.1809  0.1955
 2395WAT      O10299   2.883   1.415   4.632 -0.0919  0.5846 -0.1982
 2395WAT     H110300   2.932   1.462   4.685 -0.2664  0.9789 -0.3838
 2395WAT     H210301   2.834   1.474   4.591  0.1634  0.3091 -0.9246
 2395WAT    EPW10302   2.883   1.431   4.633 -0.0800  0.6022 -0.3329
 2396WAT      O10303   3.947   0.077   6.444  0.4289 -0.3282 -0.4335
 2396WAT     H110304   3.894   0.109   6.505 -0.8675 -1.2488 -1.0280
 2396WAT     H210305   3.947  -0.009   6.460 -0.1358 -0.6122 -1.8674
 2396WAT    EPW10306   3.939   0.069   6.456  0.1540 -0.5061 -0.7331
 2397WAT      O10307   2.197   1.989   1.390 -0.4225  0.1652  0.0405
 2397WAT     H110308   2.175   1.904   1.394  0.1929 -0.0739 -1.0891
 2397WAT     H210309   2.173   2.012   1.309 -0.5674  1.0771  0.3326
 2397WAT    EPW10310   2.190   1.980   1.378 -0.3530  0.2646 -0.0832
 2398WAT      O10311   5.497   4.997   5.488 -0.0386  0.9119 -0.1055
 2398WAT     H110312   5.478   5.008   5.404 -1.0377  3.2391  0.3438
 2398WAT     H210313   5.476   5.074   5.524  1.0645  0.2421  2.1487
 2398WAT    EPW10314   5.491   5.010   5.481 -0.0232  1.1567  0.2938
 2399WAT      O10315   4.801   3.119   1.531  0.0297  0.1869  0.2039
 2399WAT     H110316   4.873   3.157   1.562  0.3974 -0.6590  0.4386
 2399WAT     H210317   4.759   3.183   1.491  0.8637  0.7213  0.1550
 2399WAT    EPW10318   4.805   3.134   1.530  0.2072  0.1409  0.2313
 2400WAT      O10319   7.165   5.086   5.041 -0.1736 -0.1471  0.4106
 2400WAT     H110320   7.203   5.062   4.966 -0.8310 -0.5227  0.1895
 2400WAT     H210321   7.156   5.011   5.085  2.2380  0.3040  1.8684
 2400WAT    EPW10322   7.169   5.072   5.037  0.0855 -0.1359  0.5933
 2401WAT      O10323   4.792   4.066   1.806  0.0301  0.7593 -0.2540
 2401WAT     H110324   4.782   3.985   1.837  0.5932  1.2347  1.2613
 2401WAT     H210325   4.711   4.090   1.785 -0.3611  0.3314  0.6802
 2401WAT    EPW10326   4.779   4.057   1.807  0.0555  0.7663  0.1079
 2402WAT      O10327   4.860   0.409   1.053 -0.3584 -0.0152 -0.0078
 2402WAT     H110328   4.876   0.433   1.135 -1.7654  1.3880 -0.1007
 2402WAT     H210329   4.936   0.424   1.011  0.7885 -1.9500  1.2162
 2402WAT    EPW10330   4.874   0.415   1.059 -0.3968 -0.0937  0.1593
 2403WAT      O10331   6.856   4.095   5.067  1.2154 -0.0129 -0.1065
 2403WAT     H110332   6.826   4.174   5.089  1.1977 -0.0476 -0.0063
 2403WAT     H210333   6.876   4.104   4.982  0.0776 -0.2525 -0.4098
 2403WAT    EPW10334   6.854   4.108   5.057  1.0447 -0.0534 -0.1365
 2404WAT      O10335   3.540   3.457   2.753 -0.3502  0.1638 -0.0522
 2404WAT     H110336   3.510   3.533   2.724 -1.3533 -0.5654 -0.9930
 2404WAT     H210337   3.583   3.423   2.685 -0.1034 -0.2132  0.2829
 2404WAT    EPW10338   3.542   3.463   2.739 -0.4619  0.0004 -0.1417
 2405WAT      O10339   5.065   5.814   3.934  0.3822  0.2304 -0.0471
 2405WAT     H110340   5.003   5.876   3.932  1.5776  1.4617 -1.0156
 2405WAT     H210341   5.127   5.848   3.985  0.0033 -1.3113  1.5403
 2405WAT    EPW10342   5.065   5.828   3.941  0.5028  0.1846  0.0443
 2406WAT      O10343   5.936   5.614   6.634 -0.2509 -0.5022 -0.3381
 2406WAT     H110344   6.011   5.619   6.590 -0.3036 -1.5737 -0.5773
 2406WAT     H210345   5.920   5.697   6.657  0.6414 -0.1649 -0.8806
 2406WAT    EPW10346   5.945   5.627   6.631 -0.1269 -0.6106 -0.4535
 2407WAT      O10347   1.563   6.868   4.235 -0.1188 -0.1107 -0.2632
 2407WAT     H110348   1.497   6.880   4.290  0.7103 -2.1211  1.3242
 2407WAT     H210349   1.618   6.934   4.253 -0.2025 -0.3207  0.8333
 2407WAT    EPW10350   1.562   6.879   4.246 -0.0087 -0.4387  0.1333
 2408WAT      O10351   5.297   5.097   0.826 -0.2046 -0.1778  0.3859
 2408WAT     H110352   5.367   5.053   0.854  1.3186 -1.2183 -4.1654
 2408WAT     H210353   5.250   5.038   0.784 -2.7793  0.9743  1.4515
 2408WAT    EPW10354   5.301   5.082   0.824 -0.3599 -0.1613 -0.1290
 2409WAT      O10355   3.058   5.563   3.483  0.4699  0.1496 -0.4244
 2409WAT     H110356   2.973   5.543   3.487 -0.0484  1.9744 -1.4010
 2409WAT     H210357   3.088   5.508   3.421 -0.1138 -0.1157 -0.4829
 2409WAT    EPW10358   3.050   5.552   3.474  0.3071  0.3799 -0.5773
 2410WAT      O10359   6.749   2.088   0.464  0.0406  0.2411 -0.1609
 2410WAT     H110360   6.819   2.056   0.506  0.6520  1.6752 -0.0262
 2410WAT     H210361   6.781   2.115   0.388 -0.5204  0.2621 -0.3955
 2410WAT    EPW10362   6.764   2.087   0.459  0.0480  0.4560 -0.1757
 2411WAT      O10363   3.335   6.942   5.666 -0.5128  0.2944 -0.1835
 2411WAT     H110364   3.258   6.904   5.684 -0.6741  1.3929  1.6937
 2411WAT     H210365   3.360   6.976   5.742  0.9036  1.6468 -1.1795
 2411WAT    EPW10366   3.327   6.941   5.680 -0.3274  0.6564 -0.0533
 2412WAT      O10367   2.266   3.019   6.191  0.2583 -0.3227 -0.1659
 2412WAT     H110368   2.256   3.101   6.219 -1.8888 -0.8472  0.8374
 2412WAT     H210369   2.327   2.987   6.243  2.6307  1.1163 -1.8624
 2412WAT    EPW10370   2.273   3.026   6.203  0.2916 -0.1876 -0.2683
 2413WAT      O10371   3.877   6.448   1.115 -0.0090 -0.2141 -0.0948
 2413WAT     H110372   3.911   6.440   1.035  2.3117  3.1252  0.3527
 2413WAT     H210373   3.937   6.492   1.159 -2.1743  0.0987  2.8926
 2413WAT    EPW10374   3.891   6.453   1.109  0.0140  0.3254  0.4126
 2414WAT      O10375   0.423   6.468   0.395 -0.0488 -0.3563  0.2877
 2414WAT     H110376   0.480   6.489   0.332 -1.8620  0.5923 -1.1206
 2414WAT     H210377   0.403   6.385   0.376 -0.4362 -0.1384 -0.2837
 2414WAT    EPW10378   0.429   6.459   0.383 -0.3739 -0.1840 -0.0047
 2415WAT      O10379   6.006   1.380   3.987  0.0767 -0.5311 -0.1318
 2415WAT     H110380   6.066   1.349   3.932 -0.5487 -0.5796 -0.8109
 2415WAT     H210381   5.946   1.317   3.989 -0.0556 -0.3922  0.3638
 2415WAT    EPW10382   6.006   1.366   3.979 -0.0353 -0.5178 -0.1589
 2416WAT      O10383   1.421   3.714   0.179 -0.1127  0.5146  0.1178
 2416WAT     H110384   1.392   3.634   0.161 -0.9352  0.7411  0.3630
 2416WAT     H210385   1.499   3.717   0.141 -1.2001  0.5308 -2.3495
 2416WAT    EPW10386   1.428   3.703   0.170 -0.3949  0.5505 -0.2105
 2417WAT      O10387   5.899   1.948   0.926  0.2023  0.1582 -0.2430
 2417WAT     H110388   5.978   1.938   0.962 -0.2861 -0.6275  0.6603
 2417WAT     H210389   5.872   2.025   0.958  0.0579 -0.2129  0.5810
 2417WAT    EPW10390   5.906   1.958   0.936  0.1088 -0.0127  0.0122
 2418WAT      O10391   4.675   2.195   2.552  0.1796  0.0721  0.2894
 2418WAT     H110392   4.682   2.187   2.638 -1.0721  0.3451  0.4357
 2418WAT     H210393   4.724   2.130   2.521 -0.8249 -1.1884  1.2478
 2418WAT    EPW10394   4.684   2.184   2.560 -0.1537 -0.0738  0.4526
 2419WAT      O10395   3.440   3.763   3.164 -0.1285  0.6872  0.3446
 2419WAT     H110396   3.432   3.682   3.132  0.3215  1.1491 -0.9968
 2419WAT     H210397   3.453   3.750   3.249  1.8456 -0.7651 -0.1074
 2419WAT    EPW10398   3.441   3.749   3.172  0.2296  0.5409  0.0797
 2420WAT      O10399   7.286   0.481   6.473  0.1465  0.0984 -0.4517
 2420WAT     H110400   7.357   0.470   6.425  0.9126 -0.0127  0.6608
 2420WAT     H210401   7.313   0.463   6.554 -1.0584  0.3957  0.0445
 2420WAT    EPW10402   7.300   0.477   6.478  0.0817  0.1259 -0.2140
 2421WAT      O10403   2.351   1.583   7.031  0.7038  0.1287  0.2228
 2421WAT     H110404   2.414   1.565   6.974  0.9109  1.2969  0.0548
 2421WAT     H210405   2.310   1.651   6.996  0.4980  0.5322  1.1936
 2421WAT    EPW10406   2.354   1.591   7.018  0.7040  0.3609  0.3414
 2422WAT      O10407   2.046   2.019   0.122 -0.6358  0.0900  0.1324
 2422WAT     H110408   2.000   1.978   0.183 -3.3358 -0.6964 -2.1819
 2422WAT     H210409   2.075   1.954   0.072 -1.4325  0.7690 -1.2807
 2422WAT    EPW10410   2.044   2.003   0.123 -1.1524  0.0741 -0.4182
 2423WAT      O10411   2.654   6.848   0.231 -0.2238  0.1197  0.8306
 2423WAT     H110412   2.671   6.808   0.306  0.9299  0.1128  0.5962
 2423WAT     H210413   2.733   6.856   0.194 -0.5776  1.3876  0.2645
 2423WAT    EPW10414   2.668   6.844   0.237 -0.1056  0.3059  0.7123
 2424WAT      O10415   0.522   3.639   0.227  0.3211 -0.8811  0.0574
 2424WAT     H110416   0.570   3.571   0.200 -0.4096 -0.9473 -1.1561
 2424WAT     H210417   0.482   3.666   0.154 -2.4461 -1.6211  1.1426
 2424WAT    EPW10418   0.523   3.633   0.212 -0.1956 -1.0002  0.0384
 2425WAT      O10419   2.534   5.384   1.039 -0.0608  0.1504  0.0983
 2425WAT     H110420   2.536   5.412   1.122 -0.2998  1.7523 -0.3956
 2425WAT     H210421   2.605   5.420   1.003 -1.9044  2.7643 -1.3007
 2425WAT    EPW10422   2.545   5.394   1.046 -0.3685  0.7732 -0.1813
 2426WAT      O10423   4.334   6.079   2.075 -0.5901 -0.3944  0.1004
 2426WAT     H110424   4.338   6.025   2.144 -0.8740  0.1742  0.5723
 2426WAT     H210425   4.385   6.146   2.098  0.4151 -0.8114 -0.8186
 2426WAT    EPW10426   4.342   6.081   2.089 -0.4835 -0.3720  0.0343
 2427WAT      O10427   2.176   0.714   5.956  0.0044 -0.1986 -0.1391
 2427WAT     H110428   2.161   0.670   5.882  0.4231 -0.1774 -0.2368
 2427WAT     H210429   2.238   0.668   5.995  1.5118  1.0678 -0.9211
 2427WAT    EPW10430   2.183   0.701   5.951  0.2890 -0.0084 -0.2691
 2428WAT      O10431   1.341   5.396   3.180  0.4869 -0.3457  0.3205
 2428WAT     H110432   1.419   5.388   3.140  0.1899 -0.9791 -0.1388
 2428WAT     H210433   1.320   5.315   3.202  0.6490 -0.0110  1.8170
 2428WAT    EPW10434   1.350   5.383   3.177  0.4670 -0.3898  0.4737
 2429WAT      O10435   2.099   1.111   3.181  0.2559 -0.1642  0.2194
 2429WAT     H110436   2.022   1.122   3.219  0.2698  0.3609  0.1101
 2429WAT     H210437   2.096   1.029   3.150  1.3951 -1.8507  3.9749
 2429WAT    EPW10438   2.087   1.101   3.182  0.4262 -0.3358  0.7580
 2430WAT      O10439   2.357   4.433   0.879  0.6328 -0.4277  0.2848
 2430WAT     H110440   2.377   4.517   0.870 -1.6168  0.2030  0.4793
 2430WAT     H210441   2.345   4.424   0.965 -1.1844 -0.3353  0.1001
 2430WAT    EPW10442   2.358   4.444   0.891  0.0320 -0.3209  0.2863
 2431WAT      O10443   3.261   0.809   6.818 -0.3121  0.0962 -0.1173
 2431WAT     H110444   3.323   0.869   6.831  0.2430 -0.3878 -0.4459
 2431WAT     H210445   3.281   0.746   6.875 -0.5554 -0.0255 -0.1643
 2431WAT    EPW10446   3.273   0.808   6.829 -0.2661  0.0067 -0.1728
 2432WAT      O10447   4.973   2.482   1.357  0.3109 -0.1297 -0.3577
 2432WAT     H110448   4.988   2.556   1.313  1.7953 -0.0931  0.1745
 2432WAT     H210449   4.898   2.453   1.322  0.3989  0.9272 -1.4999
 2432WAT    EPW10450   4.964   2.489   1.345  0.5432  0.0318 -0.4478
 2433WAT      O10451   6.556   6.188   4.318  0.3305 -0.3433  0.3820
 2433WAT     H110452   6.569   6.127   4.379  1.3084  0.7051  1.2690
 2433WAT     H210453   6.549   6.262   4.364  1.7962  0.5753 -0.7833
 2433WAT    EPW10454   6.557   6.189   4.334  0.6915 -0.0527  0.3409
 2434WAT      O10455   6.041   3.619   3.862  0.2502  0.1386  0.0322
 2434WAT     H110456   6.121   3.615   3.828  0.1314 -1.1028 -0.1316
 2434WAT     H210457   5.991   3.579   3.803 -0.3661  0.2122  0.4902
 2434WAT    EPW10458   6.045   3.612   3.848  0.1416 -0.0339  0.0756
 2435WAT      O10459   5.696   3.067   5.794  0.0680 -0.1656  0.2806
 2435WAT     H110460   5.729   3.014   5.733  0.7458 -0.0210  0.5212
 2435WAT     H210461   5.699   3.146   5.757  0.5969 -0.0589  0.5430
 2435WAT    EPW10462   5.701   3.071   5.780  0.2462 -0.1285  0.3549
 2436WAT      O10463   6.654   0.856   1.761  0.0165 -1.0564  0.1244
 2436WAT     H110464   6.650   0.773   1.738 -1.3346 -0.7323 -0.9236
 2436WAT     H210465   6.733   0.881   1.735  0.2357 -1.8765 -0.0149
 2436WAT    EPW10466   6.665   0.848   1.754 -0.1507 -1.1297 -0.0510
 2437WAT      O10467   6.196   2.414   3.540  0.0389 -0.1327  0.2859
 2437WAT     H110468   6.184   2.328   3.531 -0.1040 -0.2084  1.1609
 2437WAT     H210469   6.280   2.420   3.564  0.0815 -0.0113  0.1130
 2437WAT    EPW10470   6.207   2.402   3.542  0.0241 -0.1260  0.3896
 2438WAT      O10471   0.850   2.422   6.097 -0.3912 -0.1555 -0.5746
 2438WAT     H110472   0.769   2.390   6.098  0.4807 -2.5634 -0.1038
 2438WAT     H210473   0.848   2.484   6.158 -1.4819 -1.3229  0.6579
 2438WAT    EPW10474   0.838   2.427   6.106 -0.4235 -0.6836 -0.3230
 2439WAT      O10475   2.886   2.813   6.237 -0.4137 -0.7471  0.2837
 2439WAT     H110476   2.812   2.779   6.268 -0.7908 -2.5966 -2.2941
 2439WAT     H210477   2.944   2.748   6.247  0.4361  0.0617  0.7422
 2439WAT    EPW10478   2.884   2.798   6.243 -0.3438 -0.9008 -0.0294
 2440WAT      O10479   0.973   3.886   3.936  0.2139 -0.7452 -0.5749
 2440WAT     H110480   0.927   3.834   3.882 -1.5127  0.0909  0.0162
 2440WAT     H210481   0.911   3.927   3.981  1.5644  0.8833 -0.1408
 2440WAT    EPW10482   0.957   3.884   3.934  0.1583 -0.3811 -0.4235
 2441WAT      O10483   4.694   0.537   6.175  0.1086 -0.4831  0.3115
 2441WAT     H110484   4.675   0.468   6.225 -1.8178  0.0745  0.4274
 2441WAT     H210485   4.656   0.518   6.098 -2.6482  1.4072  1.0565
 2441WAT    EPW10486   4.685   0.524   6.171 -0.5832 -0.1215  0.4387
 2442WAT      O10487   6.154   6.243   4.924  0.0912 -0.1495 -0.8292
 2442WAT     H110488   6.196   6.266   4.852  0.1262  0.3560 -0.6551
 2442WAT     H210489   6.158   6.156   4.925  1.8214 -0.0915 -0.3958
 2442WAT    EPW10490   6.161   6.233   4.914  0.3520 -0.0662 -0.7395
 2443WAT      O10491   5.464   2.427   2.559  0.3435 -0.1469  0.1542
 2443WAT     H110492   5.517   2.493   2.537  0.3169  0.3402  1.4558
 2443WAT     H210493   5.393   2.467   2.590  0.5570 -0.7533  1.4999
 2443WAT    EPW10494   5.462   2.443   2.560  0.3711 -0.1645  0.5452
 2444WAT      O10495   0.060   4.102   3.729  0.0046 -0.2555  0.3152
 2444WAT     H110496  -0.027   4.102   3.740 -0.2395  0.3417 -1.2763
 2444WAT     H210497   0.091   4.098   3.811 -1.5213  0.1513  0.9588
 2444WAT    EPW10498   0.052   4.102   3.743 -0.2569 -0.1072  0.1752
 2445WAT      O10499   3.900   3.618   2.039 -0.0870  0.3631 -0.2301
 2445WAT     H110500   3.847   3.550   2.053 -0.1773  0.5513  0.3943
 2445WAT     H210501   3.974   3.595   2.078 -0.2903  0.8368  0.4553
 2445WAT    EPW10502   3.903   3.605   2.047 -0.1303  0.4609 -0.0366
 2446WAT      O10503   5.091   5.636   6.260 -0.8188  0.0940  0.1396
 2446WAT     H110504   5.065   5.580   6.198 -1.7352 -0.6682  1.1798
 2446WAT     H210505   5.040   5.617   6.328  1.9254 -1.0103  2.0939
 2446WAT    EPW10506   5.080   5.625   6.261 -0.5488 -0.1818  0.5820
 2447WAT      O10507   1.874   2.149   0.854 -0.4156 -0.0262  0.3931
 2447WAT     H110508   1.836   2.151   0.775  0.2269 -2.2020 -0.0571
 2447WAT     H210509   1.820   2.099   0.901 -1.0594  1.6805  1.5225
 2447WAT    EPW10510   1.861   2.142   0.849 -0.4158 -0.0955  0.4935
 2448WAT      O10511   2.199   6.711   7.197 -0.5030  0.0074  0.1568
 2448WAT     H110512   2.211   6.775   7.255 -2.3781  0.3309  0.2253
 2448WAT     H210513   2.212   6.639   7.245  0.9199  0.2708  0.2359
 2448WAT    EPW10514   2.203   6.710   7.213 -0.5698  0.0941  0.1786
 2449WAT      O10515   7.098   4.143   1.310 -0.1186  0.3183  0.3752
 2449WAT     H110516   7.076   4.187   1.237  1.8524  2.1102  0.7794
 2449WAT     H210517   7.021   4.126   1.346 -1.0748  2.2354 -0.5458
 2449WAT    EPW10518   7.083   4.147   1.304  0.0313  0.8662  0.2989
 2450WAT      O10519   4.716   3.978   0.756  0.4738  0.1835 -0.4345
 2450WAT     H110520   4.752   4.043   0.710 -0.5407  0.5166 -0.7962
 2450WAT     H210521   4.750   3.988   0.836  1.3367  0.3436 -0.8117
 2450WAT    EPW10522   4.726   3.989   0.761  0.4514  0.2563 -0.5436
 2451WAT      O10523   0.786   4.070   6.360 -0.1248 -0.0639 -0.5665
 2451WAT     H110524   0.847   4.035   6.411 -0.0969  1.2165  0.3199
 2451WAT     H210525   0.720   4.088   6.415 -0.2740  0.9150 -1.0389
 2451WAT    EPW10526   0.785   4.067   6.375 -0.1427  0.2699 -0.5054
 2452WAT      O10527   1.050   0.625   2.733  0.3513 -0.3322 -0.4946
 2452WAT     H110528   0.998   0.619   2.803  1.5538 -0.0992  0.4554
 2452WAT     H210529   0.997   0.604   2.666 -0.4405 -2.1835  0.6214
 2452WAT    EPW10530   1.034   0.621   2.733  0.4120 -0.5713 -0.1894
 2453WAT      O10531   5.244   3.799   5.489 -0.5007 -0.1057  0.0361
 2453WAT     H110532   5.238   3.766   5.409 -0.1966 -0.5300  0.1827
 2453WAT     H210533   5.162   3.803   5.516 -0.7409  1.3796 -0.8217
 2453WAT    EPW10534   5.231   3.794   5.481 -0.4913  0.0511 -0.0690
 2454WAT      O10535   1.921   2.391   3.262  0.5604  0.1212  0.5636
 2454WAT     H110536   1.883   2.393   3.340  0.8101 -2.0172  0.7967
 2454WAT     H210537   1.890   2.462   3.222 -0.7297  0.4472  2.0614
 2454WAT    EPW10538   1.911   2.402   3.267  0.4067 -0.1465  0.8193
 2455WAT      O10539   1.754   2.927   4.675 -0.3791  0.0939 -0.4064
 2455WAT     H110540   1.828   2.940   4.720 -0.5618 -1.5979  0.4779
 2455WAT     H210541   1.692   2.934   4.736 -0.9835  1.5513 -1.1546
 2455WAT    EPW10542   1.756   2.930   4.691 -0.4954  0.0593 -0.3863
 2456WAT      O10543   6.521   3.006   2.917  0.8776 -0.1645  0.6039
 2456WAT     H110544   6.592   3.054   2.902  1.9995 -0.4505  4.0913
 2456WAT     H210545   6.466   3.062   2.955  1.1700 -0.9019  2.2374
 2456WAT    EPW10546   6.523   3.022   2.921  1.0865 -0.3157  1.3604
 2457WAT      O10547   3.917   5.048   0.303  0.2622  0.6180  0.1860
 2457WAT     H110548   4.002   5.064   0.298  0.3921  0.1463  0.7867
 2457WAT     H210549   3.887   5.112   0.355  0.3404  0.4829  0.4002
 2457WAT    EPW10550   3.925   5.060   0.310  0.2929  0.5283  0.3064
 2458WAT      O10551   0.638   6.700   4.981 -0.1073  0.5558  0.7615
 2458WAT     H110552   0.608   6.646   5.043  0.1398 -0.3455  0.1217
 2458WAT     H210553   0.723   6.705   4.998  0.1816 -0.6223 -0.1421
 2458WAT    EPW10554   0.646   6.692   4.993 -0.0281  0.2487  0.5335
 2459WAT      O10555   1.910   3.615   5.845 -0.2502 -0.3321  0.0079
 2459WAT     H110556   1.981   3.584   5.885 -1.1408 -2.6518 -0.0012
 2459WAT     H210557   1.915   3.579   5.765 -0.2937  1.3598 -0.7970
 2459WAT    EPW10558   1.921   3.605   5.839 -0.3882 -0.4249 -0.1124
 2460WAT      O10559   2.513   0.503   5.572  0.1256 -0.5630  0.5659
 2460WAT     H110560   2.475   0.575   5.541  2.5510  0.9404  0.8345
 2460WAT     H210561   2.567   0.479   5.508  0.5391 -1.1799  1.1297
 2460WAT    EPW10562   2.515   0.510   5.558  0.5450 -0.4320  0.6889
 2461WAT      O10563   0.488   6.276   1.119 -0.0654  0.1539 -0.3678
 2461WAT     H110564   0.529   6.200   1.134  0.1273  0.3932  0.3895
 2461WAT     H210565   0.404   6.255   1.127  0.0142  0.2328  1.0752
 2461WAT    EPW10566   0.482   6.261   1.123 -0.0251  0.2009 -0.0428
 2462WAT      O10567   1.351   4.729   5.966  0.0034  0.0943  0.2795
 2462WAT     H110568   1.372   4.674   6.030  0.0064  0.9762  1.0467
 2462WAT     H210569   1.363   4.808   6.001 -2.5273  0.6639  0.0991
 2462WAT    EPW10570   1.356   4.733   5.980 -0.3700  0.3087  0.3662
 2463WAT      O10571   3.737   1.269   0.980 -0.2063  0.2760 -0.0740
 2463WAT     H110572   3.738   1.298   1.062 -1.1275 -0.8774  0.3745
 2463WAT     H210573   3.695   1.331   0.936  0.3573  0.9336  0.2991
 2463WAT    EPW10574   3.731   1.282   0.986 -0.2591  0.2027  0.0474
 2464WAT      O10575   4.947   4.667   1.701  0.5087 -0.1108 -0.2206
 2464WAT     H110576   4.892   4.732   1.720 -0.0500 -1.1862  2.2138
 2464WAT     H210577   4.918   4.638   1.624 -0.4314  1.2721 -0.4300
 2464WAT    EPW10578   4.934   4.672   1.693  0.2873 -0.0654  0.1081
 2465WAT      O10579   6.838   0.395   3.054  0.3346 -0.4806 -0.3841
 2465WAT     H110580   6.791   0.324   3.070  0.8440 -1.2438 -2.0246
 2465WAT     H210581   6.899   0.367   2.999  1.0526  1.0661 -0.4377
 2465WAT    EPW10582   6.840   0.380   3.049  0.5159 -0.3648 -0.6344
 2466WAT      O10583   0.553   4.969   3.708  0.1813 -0.5248  0.0236
 2466WAT     H110584   0.531   5.052   3.692  0.8703 -0.4540 -0.5815
 2466WAT     H210585   0.639   4.972   3.721 -0.0074 -0.9335  1.5027
 2466WAT    EPW10586   0.562   4.981   3.707  0.2552 -0.5747  0.1527
 2467WAT      O10587   0.542   0.727   5.125  0.0864 -0.5359  0.1809
 2467WAT     H110588   0.538   0.808   5.092 -1.6550 -0.3318  0.7676
 2467WAT     H210589   0.628   0.711   5.132  0.4814  1.5904  0.8355
 2467WAT    EPW10590   0.554   0.736   5.121 -0.1125 -0.1917  0.3643
 2468WAT      O10591   2.839   0.723   5.482 -0.0393 -0.5901  0.0557
 2468WAT     H110592   2.797   0.717   5.558  1.0632  0.0817  0.7500
 2468WAT     H210593   2.795   0.669   5.429 -0.9034 -0.9634  1.1265
 2468WAT    EPW10594   2.826   0.714   5.485 -0.0041 -0.5460  0.3165
 2469WAT      O10595   2.393   6.296   0.315  0.3316  0.1349  0.2856
 2469WAT     H110596   2.308   6.274   0.314  0.0064  1.1693  1.8230
 2469WAT     H210597   2.397   6.359   0.376  1.9718  1.0905 -0.7471
 2469WAT    EPW10598   2.381   6.302   0.324  0.5259  0.4289  0.3602
 2470WAT      O10599   6.160   4.118   1.947  0.1509  0.6276 -0.5941
 2470WAT     H110600   6.226   4.087   1.900  0.8617  0.1865  0.6488
 2470WAT     H210601   6.091   4.074   1.916  0.9271 -1.3198  0.2225
 2470WAT    EPW10602   6.160   4.107   1.935  0.3706  0.2748 -0.2899
 2471WAT      O10603   0.507   6.279   2.652 -0.5296 -0.6424 -0.1367
 2471WAT     H110604   0.495   6.342   2.592 -0.8798  0.0764  0.6762
 2471WAT     H210605   0.593   6.281   2.668 -0.1986 -1.7271 -1.5471
 2471WAT    EPW10606   0.518   6.289   2.645 -0.5324 -0.6965 -0.2249
 2472WAT      O10607   3.270   1.674   1.273 -0.1115 -0.1248  0.2918
 2472WAT     H110608   3.356   1.692   1.267  0.0383 -1.2131 -1.7454
 2472WAT     H210609   3.249   1.700   1.353  2.3275 -0.6576  1.1808
 2472WAT    EPW10610   3.280   1.681   1.284  0.2709 -0.3642  0.1222
 2473WAT      O10611   3.814   0.592   7.095 -0.1698  0.6101  0.2328
 2473WAT     H110612   3.850   0.565   7.020  0.7438  1.4558  0.3335
 2473WAT     H210613   3.728   0.586   7.080 -0.0141  1.0009 -0.9815
 2473WAT    EPW10614   3.807   0.587   7.081 -0.0118  0.7928  0.0683
 2474WAT      O10615   4.961   2.084   0.073 -0.2000 -0.0966 -0.0353
 2474WAT     H110616   5.002   2.065   0.147  2.4526  0.2675 -1.3005
 2474WAT     H210617   4.892   2.031   0.073 -0.1336 -0.3045  2.5107
 2474WAT    EPW10618   4.957   2.074   0.084  0.2017 -0.0735  0.1539
 2475WAT      O10619   1.100   2.352   1.578 -0.2792  0.4605 -0.3847
 2475WAT     H110620   1.062   2.331   1.654 -0.0740 -1.9215 -0.8853
 2475WAT     H210621   1.185   2.349   1.595 -0.2343  0.1782 -0.6585
 2475WAT    EPW10622   1.107   2.349   1.592 -0.2423  0.0670 -0.4991
 2476WAT      O10623   0.831   6.939   1.844 -0.1220  0.5069  0.0542
 2476WAT     H110624   0.893   6.899   1.796  1.3378  1.2736  1.2091
 2476WAT     H210625   0.757   6.915   1.806  0.9158  0.1254 -1.8513
 2476WAT    EPW10626   0.829   6.930   1.831  0.2470  0.5638 -0.0567
 2477WAT      O10627   5.895   7.023   4.757 -0.3246  1.2187 -0.4067
 2477WAT     H110628   5.873   6.943   4.785 -1.1739  1.8781  0.9193
 2477WAT     H210629   5.824   7.070   4.773  0.3681  2.3737 -0.6423
 2477WAT    EPW10630   5.882   7.018   4.764 -0.3477  1.4867 -0.2456
 2478WAT      O10631   7.242   6.169   2.889  0.2070  0.2867  0.0333
 2478WAT     H110632   7.270   6.096   2.851  0.9934  1.6175 -2.0686
 2478WAT     H210633   7.306   6.189   2.944 -0.3229 -0.8987  1.1664
 2478WAT    EPW10634   7.255   6.161   2.892  0.2449  0.3082 -0.1098
 2479WAT      O10635   3.685   5.523   5.720 -0.5806  0.0921 -0.3603
 2479WAT     H110636   3.713   5.550   5.642 -0.4385 -0.2654 -0.4331
 2479WAT     H210637   3.738   5.565   5.776  0.9190 -1.4797 -0.5258
 2479WAT    EPW10638   3.697   5.533   5.717 -0.3381 -0.1929 -0.3955
 2480WAT      O10639   0.891   3.251   4.876  0.4450 -0.6208  0.0194
 2480WAT     H110640   0.835   3.316   4.860  0.5831 -0.3185  0.7269
 2480WAT     H210641   0.844   3.180   4.860  0.3177 -0.3521 -0.8619
 2480WAT    EPW10642   0.876   3.250   4.871  0.4466 -0.5365 -0.0063
 2481WAT      O10643   3.529   5.886   6.811  0.0119 -0.1621 -0.0736
 2481WAT     H110644   3.590   5.825   6.821  1.3013  0.9072 -1.0338
 2481WAT     H210645   3.513   5.885   6.725 -0.2542  0.5398 -0.0364
 2481WAT    EPW10646   3.536   5.877   6.800  0.1631  0.0995 -0.2100
 2482WAT      O10647   5.960   0.245   0.533  0.0913  0.1283 -0.5036
 2482WAT     H110648   5.930   0.239   0.615 -0.7791 -0.0622 -0.8210
 2482WAT     H210649   5.981   0.330   0.525  1.2870 -0.0742  0.2740
 2482WAT    EPW10650   5.958   0.257   0.544  0.1394  0.0703 -0.4356
 2483WAT      O10651   6.170   4.047   6.442  0.1004  0.3536  0.1483
 2483WAT     H110652   6.148   4.131   6.429  1.2592  0.5567 -0.6181
 2483WAT     H210653   6.226   4.030   6.377  2.5540  0.0031  2.2124
 2483WAT    EPW10654   6.175   4.057   6.430  0.6341  0.3319  0.3400
 2484WAT      O10655   4.101   0.363   7.259 -0.8458  0.2090 -0.0904
 2484WAT     H110656   4.022   0.379   7.226 -1.9785 -1.8279  1.3826
 2484WAT     H210657   4.128   0.293   7.215 -0.4568  0.0827  0.3349
 2484WAT    EPW10658   4.094   0.355   7.248 -0.9557 -0.1106  0.1900
 2485WAT      O10659   2.774   5.098   6.972  0.2043 -0.4676  0.9290
 2485WAT     H110660   2.724   5.168   6.956  0.3472 -0.8215 -1.4986
 2485WAT     H210661   2.855   5.131   6.972  0.2824 -0.5898 -0.3567
 2485WAT    EPW10662   2.778   5.113   6.970  0.2369 -0.5380  0.3805
 2486WAT      O10663   1.186   0.084   6.761 -0.3816 -0.0547 -0.5085
 2486WAT     H110664   1.244   0.138   6.797  0.4490  0.0123 -1.8648
 2486WAT     H210665   1.230   0.048   6.694 -0.3034 -3.7222  1.2670
 2486WAT    EPW10666   1.201   0.087   6.756 -0.2474 -0.5866 -0.4466
 2487WAT      O10667   5.940   6.388   3.443 -0.3291  0.4038  0.2818
 2487WAT     H110668   5.907   6.468   3.453  0.3045  0.7979 -0.6350
 2487WAT     H210669   6.006   6.386   3.500  0.7578  1.1902 -0.8996
 2487WAT    EPW10670   5.945   6.399   3.453 -0.0749  0.5782 -0.0281
 2488WAT      O10671   3.712   4.587   1.646 -0.5887  0.8668  0.0897
 2488WAT     H110672   3.666   4.517   1.671  0.1396 -0.1351 -1.2695
 2488WAT     H210673   3.746   4.564   1.569  0.3872  2.3954  0.0089
 2488WAT    EPW10674   3.710   4.573   1.639 -0.3369  0.9446 -0.1230
 2489WAT      O10675   2.320   3.514   1.215  0.4694  0.1649 -0.5384
 2489WAT     H110676   2.366   3.476   1.278 -0.5766  0.6131  0.5472
 2489WAT     H210677   2.314   3.453   1.153 -0.7210 -1.2968  0.9334
 2489WAT    EPW10678   2.326   3.499   1.215  0.1391  0.0152 -0.1606
 2490WAT      O10679   0.585   5.774   3.509  0.7822  0.0778  0.2939
 2490WAT     H110680   0.661   5.789   3.548  0.8247 -0.2434  0.3354
 2490WAT     H210681   0.588   5.825   3.438  0.1088  1.7667  1.4071
 2490WAT    EPW10682   0.597   5.784   3.504  0.6890  0.2798  0.4645
 2491WAT      O10683   2.262   1.633   5.394  0.0620 -0.3723  0.3703
 2491WAT     H110684   2.323   1.695   5.407 -0.0374 -0.5704  1.8773
 2491WAT     H210685   2.187   1.673   5.417 -0.1729 -0.6342  0.0655
 2491WAT    EPW10686   2.260   1.648   5.399  0.0126 -0.4403  0.5479
 2492WAT      O10687   6.448   3.967   1.443 -0.2876 -0.2317 -0.3805
 2492WAT     H110688   6.498   3.958   1.372 -1.0353 -0.6298 -0.8663
 2492WAT     H210689   6.437   3.886   1.471 -0.0811 -0.0833  0.1374
 2492WAT    EPW10690   6.454   3.954   1.437 -0.3675 -0.2686 -0.3758
 2493WAT      O10691   2.357   4.050   2.145 -0.1642  0.3767  0.1797
 2493WAT     H110692   2.279   4.082   2.124  0.2973  1.2326 -0.3114
 2493WAT     H210693   2.380   4.003   2.076 -0.1162  0.3733  0.1975
 2493WAT    EPW10694   2.349   4.048   2.132 -0.0889  0.5026  0.1098
 2494WAT      O10695   4.145   6.570   3.028  0.3476  0.1106  0.4656
 2494WAT     H110696   4.205   6.621   3.066 -0.5438 -0.3762  2.6784
 2494WAT     H210697   4.185   6.492   3.024  0.2916  0.0555  0.8769
 2494WAT    EPW10698   4.160   6.566   3.033  0.2076  0.0305  0.8532
 2495WAT      O10699   5.053   1.683   2.758 -0.3519  0.6609 -0.1150
 2495WAT     H110700   5.136   1.681   2.785 -0.8257  0.3555  1.4142
 2495WAT     H210701   5.045   1.613   2.708  0.3815  0.8508 -0.5087
 2495WAT    EPW10702   5.064   1.673   2.755 -0.3136  0.6439  0.0527
 2496WAT      O10703   6.184   1.338   0.798  0.0931 -0.2686 -0.3057
 2496WAT     H110704   6.263   1.304   0.789 -0.3173 -1.8502  1.4405
 2496WAT     H210705   6.132   1.281   0.756 -0.2815 -0.2245  0.0798
 2496WAT    EPW10706   6.188   1.324   0.790 -0.0229 -0.4958  0.0092
 2497WAT      O10707   7.160   0.923   4.234 -0.2794 -0.4468 -0.0067
 2497WAT     H110708   7.243   0.924   4.206 -0.0623 -0.5141  0.6289
 2497WAT     H210709   7.168   0.926   4.321 -0.9481 -0.3219  0.0497
 2497WAT    EPW10710   7.174   0.923   4.243 -0.3461 -0.4383  0.0955
 2498WAT      O10711   4.184   6.697   0.864  0.3514  0.2282  0.3951
 2498WAT     H110712   4.150   6.629   0.906  0.9078  0.3104  0.9944
 2498WAT     H210713   4.147   6.694   0.786  0.4317 -0.8086  0.3905
 2498WAT    EPW10714   4.174   6.687   0.859  0.4454  0.0872  0.4830
 2499WAT      O10715   0.954   6.064   7.146  0.0652 -0.1323 -0.0514
 2499WAT     H110716   0.876   6.062   7.186  0.2437 -0.3598  0.2970
 2499WAT     H210717   0.984   5.982   7.157  0.0207 -0.2622 -0.8533
 2499WAT    EPW10718   0.947   6.052   7.154  0.0850 -0.1851 -0.1184
 2500WAT      O10719   4.887   7.008   2.821 -0.2026 -0.0278 -0.0801
 2500WAT     H110720   4.811   6.966   2.832 -0.0833 -0.5712 -1.2258
 2500WAT     H210721   4.877   7.080   2.869 -1.3767 -0.1761 -0.0640
 2500WAT    EPW10722   4.874   7.013   2.830 -0.3584 -0.1300 -0.2470
 2501WAT      O10723   1.106   0.009   6.129 -0.2611  0.7514  0.3081
 2501WAT     H110724   1.097   0.087   6.168  1.2729  0.9979  0.2328
 2501WAT     H210725   1.101   0.029   6.044 -1.0315  0.5893  0.3117
 2501WAT    EPW10726   1.104   0.024   6.122 -0.1483  0.7639  0.2975
 2502WAT      O10727   5.998   1.866   5.875  0.2464  0.3876  0.0855
 2502WAT     H110728   5.975   1.949   5.884  0.7115  0.6205 -0.7693
 2502WAT     H210729   6.043   1.865   5.800  0.8807 -0.4959  0.4603
 2502WAT    EPW10730   6.002   1.878   5.865  0.4088  0.2915  0.0146
 2503WAT      O10731   0.203   0.576   7.003  0.1353  0.4278  0.7398
 2503WAT     H110732   0.252   0.529   6.948 -1.9307  0.2187 -1.0375
 2503WAT     H210733   0.185   0.648   6.957 -1.8674  0.1240  0.9841
 2503WAT    EPW10734   0.208   0.580   6.988 -0.4657  0.3520  0.5133
 2504WAT      O10735   0.895   0.492   6.935  0.5483  0.3135 -0.5883
 2504WAT     H110736   0.856   0.481   7.013 -0.2406  0.2994 -0.9759
 2504WAT     H210737   0.882   0.577   6.918 -1.8770 -0.2442 -2.0196
 2504WAT    EPW10738   0.887   0.503   6.944  0.0735  0.2291 -0.8570
 2505WAT      O10739   4.199   6.956   2.921  0.0373  0.1926  1.0168
 2505WAT     H110740   4.209   6.882   2.877 -0.3156 -1.2211  3.1664
 2505WAT     H210741   4.122   6.987   2.893  0.4352  0.0737 -0.2737
 2505WAT    EPW10742   4.189   6.950   2.910  0.0440 -0.0338  1.1437
 2506WAT      O10743   2.707   0.909   2.775 -0.3561 -0.0491 -0.5108
 2506WAT     H110744   2.704   0.824   2.794 -1.0911 -0.0050 -0.4212
 2506WAT     H210745   2.756   0.943   2.839  0.4951 -0.4979 -0.9119
 2506WAT    EPW10746   2.714   0.901   2.787 -0.3389 -0.1089 -0.5568
 2507WAT      O10747   5.037   7.152   2.499  0.0573 -0.2749  0.1327
 2507WAT     H110748   4.961   7.132   2.461 -1.2412  1.1114  1.8643
 2507WAT     H210749   5.076   7.203   2.440 -1.9219  1.8469  0.5073
 2507WAT    EPW10750   5.032   7.157   2.484 -0.4269  0.2433  0.4438
 2508WAT      O10751   3.307   6.292   5.698  0.3438 -0.7806 -0.0864
 2508WAT     H110752   3.378   6.327   5.661  1.9374 -2.0509  1.5860
 2508WAT     H210753   3.335   6.267   5.776 -1.6417 -2.4649  0.1737
 2508WAT    EPW10754   3.322   6.293   5.704  0.2859 -1.2171  0.1991
 2509WAT      O10755   4.008   5.173   4.123 -0.2794  0.2625 -0.3495
 2509WAT     H110756   3.974   5.181   4.203  0.2632  1.3661 -0.2138
 2509WAT     H210757   4.075   5.118   4.135 -1.4159 -1.2151 -0.4564
 2509WAT    EPW10758   4.013   5.166   4.137 -0.3671  0.2073 -0.3452
 2510WAT      O10759   4.663   2.540   3.928 -0.0872 -0.8243  0.0976
 2510WAT     H110760   4.648   2.617   3.966  1.8252 -0.5102  0.3411
 2510WAT     H210761   4.680   2.487   3.996  0.1099 -1.0849 -0.1524
 2510WAT    EPW10762   4.663   2.543   3.944  0.2244 -0.8164  0.0966
 2511WAT      O10763   1.512   0.609   6.793  0.4731  0.2471 -0.3513
 2511WAT     H110764   1.481   0.648   6.722  0.3740 -0.4114 -0.6818
 2511WAT     H210765   1.447   0.557   6.819  0.7012  0.0808 -0.0991
 2511WAT    EPW10766   1.498   0.607   6.787  0.4922  0.1253 -0.3628
 2512WAT      O10767   6.993   3.061   1.958 -0.1491 -0.1349  0.1673
 2512WAT     H110768   7.062   3.051   1.906  0.0147  0.0001  0.3535
 2512WAT     H210769   7.026   3.104   2.027 -0.5383  0.4164  0.0128
 2512WAT    EPW10770   7.008   3.066   1.961 -0.1824 -0.0335  0.1719
 2513WAT      O10771   6.150   0.422   4.580  0.1456  0.5070  0.0161
 2513WAT     H110772   6.065   0.413   4.601 -0.2453  0.3582 -1.5049
 2513WAT     H210773   6.162   0.508   4.581 -0.3663  0.5964 -0.9915
 2513WAT    EPW10774   6.139   0.433   4.584  0.0122  0.4982 -0.3574
 2514WAT      O10775   5.149   1.145   6.214  0.1935  0.2441  0.1913
 2514WAT     H110776   5.072   1.129   6.253  0.3582  0.3649  0.5682
 2514WAT     H210777   5.137   1.115   6.133 -0.3763  0.5858  0.1407
 2514WAT    EPW10778   5.136   1.138   6.208  0.1337  0.3124  0.2395
 2515WAT      O10779   6.780   6.245   0.900  0.0998  0.3437 -0.8449
 2515WAT     H110780   6.745   6.325   0.898 -0.4610  0.1272 -0.1953
 2515WAT     H210781   6.776   6.219   0.816 -3.1294 -0.4146 -0.5978
 2515WAT    EPW10782   6.774   6.253   0.887 -0.4601  0.1997 -0.7125
 2516WAT      O10783   1.845   3.573   3.809 -0.0614 -0.2350  0.1375
 2516WAT     H110784   1.854   3.616   3.885  1.8441 -0.7622  0.2674
 2516WAT     H210785   1.899   3.506   3.817 -0.6550 -0.9240 -1.2847
 2516WAT    EPW10786   1.854   3.570   3.822  0.1324 -0.4146 -0.0534
 2517WAT      O10787   2.999   4.509   2.822 -0.3526 -0.1098 -0.1366
 2517WAT     H110788   2.955   4.581   2.842 -0.4126  0.1474 -1.1816
 2517WAT     H210789   2.944   4.466   2.769  0.1569 -0.3690 -0.4540
 2517WAT    EPW10790   2.984   4.513   2.817 -0.2862 -0.1101 -0.3379
 2518WAT      O10791   5.627   6.871   1.049 -0.2014  0.1806  0.0241
 2518WAT     H110792   5.567   6.851   1.109  0.1969  0.6548  0.5844
 2518WAT     H210793   5.626   6.802   0.995 -1.7000  0.4624 -0.3436
 2518WAT    EPW10794   5.618   6.858   1.050 -0.3640  0.2923  0.0526
 2519WAT      O10795   5.634   5.441   1.028  0.1307 -0.7553  0.2966
 2519WAT     H110796   5.683   5.376   0.998  2.7146  0.9274  0.5111
 2519WAT     H210797   5.570   5.448   0.970  1.6706 -1.3722 -1.5893
 2519WAT    EPW10798   5.632   5.432   1.015  0.7399 -0.5979  0.0497
 2520WAT      O10799   5.497   4.065   5.288  0.0503 -1.2068  0.2599
 2520WAT     H110800   5.427   4.074   5.340  0.7670  4.4009  0.8237
 2520WAT     H210801   5.562   4.049   5.344  0.1643  0.5998  0.7048
 2520WAT    EPW10802   5.496   4.064   5.304  0.1730 -0.1116  0.4089
 2521WAT      O10803   1.701   4.921   2.470 -0.1800  0.0696 -0.3466
 2521WAT     H110804   1.719   4.886   2.392 -1.2795 -1.7612  0.1598
 2521WAT     H210805   1.637   4.978   2.453 -0.2978 -0.1959 -0.8030
 2521WAT    EPW10806   1.694   4.924   2.456 -0.3598 -0.2401 -0.3392
 2522WAT      O10807   1.706   4.087   2.930 -0.6670  0.1725  0.0670
 2522WAT     H110808   1.654   4.019   2.916 -0.6925  0.4672 -1.4260
 2522WAT     H210809   1.656   4.142   2.975 -0.9485 -0.4016  0.4635
 2522WAT    EPW10810   1.691   4.085   2.935 -0.7123  0.1312 -0.0949
 2523WAT      O10811   0.817   0.593   2.569  0.0202  0.4301 -0.0943
 2523WAT     H110812   0.735   0.598   2.598 -0.8538  1.9051 -2.5150
 2523WAT     H210813   0.818   0.646   2.499  2.8644 -0.0530 -0.5637
 2523WAT    EPW10814   0.805   0.602   2.563  0.3112  0.5766 -0.5212
 2524WAT      O10815   4.513   6.777   4.066 -0.2134  0.3695 -0.0659
 2524WAT     H110816   4.544   6.835   4.008  0.7354  2.7839  2.5910
 2524WAT     H210817   4.436   6.811   4.089 -0.2996 -0.2027  0.5102
 2524WAT    EPW10818   4.506   6.791   4.061 -0.0860  0.6416  0.4117
 2525WAT      O10819   1.568   3.829   3.683 -0.2287 -0.0233  0.2151
 2525WAT     H110820   1.543   3.883   3.619  0.0461 -0.6980 -0.4707
 2525WAT     H210821   1.633   3.783   3.648 -0.7081 -1.0682  0.6503
 2525WAT    EPW10822   1.574   3.830   3.669 -0.2589 -0.2773  0.1781
 2526WAT      O10823   4.847   4.261   2.863  0.0247  0.3643 -0.1588
 2526WAT     H110824   4.856   4.231   2.781 -1.6097  1.0371 -0.6182
 2526WAT     H210825   4.875   4.343   2.857  1.0241  0.0668  0.2534
 2526WAT    EPW10826   4.853   4.269   2.850 -0.0691  0.4198 -0.1658
 2527WAT      O10827   1.512   0.853   1.926  0.0122 -0.1668  0.0424
 2527WAT     H110828   1.590   0.874   1.957 -0.9255  3.9848  0.3010
 2527WAT     H210829   1.457   0.879   1.988 -1.6199  0.3949 -1.5238
 2527WAT    EPW10830   1.515   0.860   1.940 -0.3674  0.5294 -0.1507
 2528WAT      O10831   0.004   2.774   1.463  0.2530  0.0108  0.2238
 2528WAT     H110832   0.080   2.777   1.505  0.2358 -0.4333  0.2992
 2528WAT     H210833  -0.012   2.688   1.457 -0.6999  0.1113  1.0382
 2528WAT    EPW10834   0.013   2.762   1.468  0.1097 -0.0400  0.3552
 2529WAT      O10835   0.891   7.206   1.492 -0.1938 -0.1938 -0.1178
 2529WAT     H110836   0.923   7.125   1.501  0.8438  0.1015 -0.9618
 2529WAT     H210837   0.805   7.194   1.500 -0.2138 -1.6576 -1.7810
 2529WAT    EPW10838   0.883   7.192   1.494 -0.0435 -0.3664 -0.4882
 2530WAT      O10839   4.415   4.443   1.156  0.4861 -0.0978 -0.3478
 2530WAT     H110840   4.496   4.472   1.165  0.8595 -0.8018 -1.2842
 2530WAT     H210841   4.368   4.515   1.142  0.8363  0.3706  0.7772
 2530WAT    EPW10842   4.420   4.458   1.155  0.5930 -0.1326 -0.3199
 2531WAT      O10843   2.836   1.567   5.948  0.4002  0.6547  0.2207
 2531WAT     H110844   2.824   1.492   5.990 -0.5854  1.4302  1.4305
 2531WAT     H210845   2.787   1.560   5.877  0.3763  0.1296  0.2892
 2531WAT    EPW10846   2.827   1.555   5.944  0.2511  0.6917  0.4096
 2532WAT      O10847   2.906   5.982   1.010  0.3542  0.1122  0.0689
 2532WAT     H110848   2.917   5.910   0.963 -0.7141  0.3361 -0.5678
 2532WAT     H210849   2.869   6.038   0.953  0.1704  0.7923  0.8369
 2532WAT    EPW10850   2.902   5.980   0.994  0.1692  0.2458  0.0883
 2533WAT      O10851   1.496   1.557   7.228  0.5011 -0.4463  0.6009
 2533WAT     H110852   1.547   1.604   7.175 -0.7665  0.5292  0.1967
 2533WAT     H210853   1.456   1.617   7.277  2.1116 -1.3269  3.2136
 2533WAT    EPW10854   1.498   1.572   7.227  0.5518 -0.4323  0.9272
 2534WAT      O10855   1.616   6.227   3.845 -0.6465 -0.2946 -0.1070
 2534WAT     H110856   1.592   6.196   3.923 -2.3856  1.4101  0.1081
 2534WAT     H210857   1.545   6.268   3.816  1.0849  2.6250 -0.7283
 2534WAT    EPW10858   1.602   6.229   3.852 -0.6477  0.3885 -0.1670
 2535WAT      O10859   3.303   2.464   5.485 -0.0992 -0.2475 -0.4333
 2535WAT     H110860   3.304   2.377   5.481 -1.0124 -0.2473 -1.4980
 2535WAT     H210861   3.281   2.487   5.403  2.2779  1.0789 -0.7797
 2535WAT    EPW10862   3.300   2.455   5.472  0.1171 -0.0515 -0.6417
 2536WAT      O10863   7.041   6.443   1.832  0.3055 -0.0554 -0.2065
 2536WAT     H110864   6.992   6.511   1.810  0.0934 -0.0481  0.2798
 2536WAT     H210865   7.042   6.445   1.919 -1.9015 -2.1688 -0.0221
 2536WAT    EPW10866   7.034   6.453   1.842 -0.0518 -0.3665 -0.1075
 2537WAT      O10867   2.345   0.620   2.119  0.1677  0.0279  0.4347
 2537WAT     H110868   2.337   0.682   2.059  1.2036 -0.8379 -0.6328
 2537WAT     H210869   2.262   0.595   2.134 -0.0666 -0.4808 -1.4556
 2537WAT    EPW10870   2.331   0.625   2.113  0.2861 -0.1751 -0.0022
 2538WAT      O10871   2.368   2.965   0.447  0.0242 -0.2825  0.0494
 2538WAT     H110872   2.440   2.919   0.433 -0.2363 -1.3382  1.8586
 2538WAT     H210873   2.396   3.048   0.451  0.9576 -0.5736 -0.2378
 2538WAT    EPW10874   2.382   2.971   0.446  0.1236 -0.4814  0.2742
 2539WAT      O10875   6.913   0.629   7.085 -0.3087 -0.2213 -0.0518
 2539WAT     H110876   6.942   0.548   7.097 -0.6993 -0.5941 -1.4546
 2539WAT     H210877   6.980   0.670   7.047 -1.1041 -0.7691 -2.2083
 2539WAT    EPW10878   6.927   0.623   7.081 -0.4839 -0.3573 -0.5776
 2540WAT      O10879   1.461   6.794   6.695  1.0125 -0.1730  0.2853
 2540WAT     H110880   1.381   6.795   6.661  0.6124 -1.7427  1.0744
 2540WAT     H210881   1.451   6.751   6.771  2.8812 -2.0659 -0.4180
 2540WAT    EPW10882   1.448   6.788   6.701  1.2294 -0.6845  0.2980
 2541WAT      O10883   0.801   4.902   2.044 -0.0489 -0.2415  0.4456
 2541WAT     H110884   0.783   4.870   2.123 -0.0584  0.5406  0.7670
 2541WAT     H210885   0.888   4.893   2.038 -0.0855 -0.5889  0.4138
 2541WAT    EPW10886   0.811   4.896   2.055 -0.0557 -0.1773  0.4884
 2542WAT      O10887   6.173   4.820   6.304 -0.1284  0.5787 -0.0182
 2542WAT     H110888   6.177   4.835   6.219  0.7593 -1.1426 -0.3163
 2542WAT     H210889   6.252   4.842   6.333  0.5306 -1.4031 -0.1487
 2542WAT    EPW10890   6.185   4.826   6.296  0.1001  0.0317 -0.0815
 2543WAT      O10891   4.595   6.957   2.012 -0.4312 -0.3019 -0.2887
 2543WAT     H110892   4.630   6.885   1.977  0.0995  0.0429 -0.4783
 2543WAT     H210893   4.563   7.000   1.943 -0.4901 -0.2158 -0.2082
 2543WAT    EPW10894   4.595   6.952   1.997 -0.3615 -0.2382 -0.3048
 2544WAT      O10895   5.015   3.606   3.198 -0.2369  0.3248  0.5421
 2544WAT     H110896   4.969   3.537   3.169  0.0896  0.3430 -0.0274
 2544WAT     H210897   5.097   3.577   3.197 -0.2588  0.0642  2.1903
 2544WAT    EPW10898   5.020   3.591   3.194 -0.1919  0.2890  0.7014
 2545WAT      O10899   5.975   2.780   7.042  0.1709 -0.1125 -0.1031
 2545WAT     H110900   5.949   2.862   7.024  0.8018  0.0410 -0.3635
 2545WAT     H210901   5.955   2.737   6.969 -0.0433 -0.1641 -0.0149
 2545WAT    EPW10902   5.968   2.786   7.028  0.2324 -0.0974 -0.1285
 2546WAT      O10903   5.697   6.474   1.528  0.1918 -0.1472 -0.0716
 2546WAT     H110904   5.612   6.471   1.507 -0.2151 -1.9503  1.5391
 2546WAT     H210905   5.701   6.535   1.590 -0.3172 -1.4196  1.2492
 2546WAT    EPW10906   5.685   6.483   1.534  0.0565 -0.6015  0.3614
 2547WAT      O10907   5.510   5.432   0.163  0.0520 -0.3468  0.1202
 2547WAT     H110908   5.564   5.403   0.101  0.1881 -0.3252  0.2272
 2547WAT     H210909   5.478   5.359   0.198  0.3653 -0.3697  0.3637
 2547WAT    EPW10910   5.513   5.417   0.159  0.1184 -0.3470  0.1720
 2548WAT      O10911   7.128   1.135   0.429  0.8777 -0.4050 -0.0151
 2548WAT     H110912   7.210   1.156   0.450  0.8611  0.9777 -1.1629
 2548WAT     H210913   7.130   1.132   0.341 -0.2903 -0.3882 -0.0504
 2548WAT    EPW10914   7.141   1.138   0.419  0.7027 -0.1982 -0.1899
 2549WAT      O10915   1.423   2.684   1.828 -0.1559  0.5673  0.7845
 2549WAT     H110916   1.390   2.764   1.835 -0.3326  0.5852 -0.0355
 2549WAT     H210917   1.506   2.697   1.805  0.0379  0.5172  1.4538
 2549WAT    EPW10918   1.430   2.697   1.825 -0.1534  0.5626  0.7622
 2550WAT      O10919   5.692   0.445   1.127 -0.4169 -0.1106  0.3933
 2550WAT     H110920   5.754   0.413   1.180 -0.5142 -0.3437  0.3665
 2550WAT     H210921   5.733   0.450   1.050 -0.7040 -1.1782  0.1504
 2550WAT    EPW10922   5.707   0.441   1.124 -0.4737 -0.3027  0.3535
 2551WAT      O10923   3.162   6.328   3.413 -0.2753 -0.4689  0.0840
 2551WAT     H110924   3.190   6.263   3.464  1.1870  0.1495  0.1265
 2551WAT     H210925   3.081   6.343   3.441 -0.3864 -1.8146  0.5251
 2551WAT    EPW10926   3.154   6.321   3.425 -0.0757 -0.5764  0.1554
 2552WAT      O10927   3.871   3.603   1.265 -0.2737  0.5379  0.0403
 2552WAT     H110928   3.818   3.542   1.298 -0.3890  0.1831 -0.7769
 2552WAT     H210929   3.854   3.601   1.179  1.6150 -0.1437 -0.3712
 2552WAT    EPW10930   3.861   3.594   1.257 -0.0117  0.3848 -0.1412
 2553WAT      O10931   7.266   0.507   5.119  0.0369 -0.2294 -0.1178
 2553WAT     H110932   7.200   0.535   5.070  0.4151  1.8368  0.4412
 2553WAT     H210933   7.323   0.573   5.116  0.4460 -0.3577  2.3544
 2553WAT    EPW10934   7.265   0.521   5.111  0.1532  0.0569  0.3299
 2554WAT      O10935   2.242   4.239   3.338 -0.4353  0.1667 -0.7599
 2554WAT     H110936   2.186   4.222   3.273 -1.1345 -1.5513  0.2182
 2554WAT     H210937   2.228   4.174   3.394  1.7675  0.3263  0.0658
 2554WAT    EPW10938   2.231   4.227   3.337 -0.2132 -0.0635 -0.4934
 2555WAT      O10939   6.762   0.484   2.644 -0.4768  0.1252 -0.1978
 2555WAT     H110940   6.821   0.421   2.637 -0.8345 -0.3102  0.6087
 2555WAT     H210941   6.686   0.441   2.650 -0.6636  0.5709  1.0773
 2555WAT    EPW10942   6.759   0.469   2.644 -0.5572  0.1268  0.1097
 2556WAT      O10943   3.062   6.335   5.837  0.0975  0.4842  0.3424
 2556WAT     H110944   3.019   6.405   5.809  0.1855  0.6280  0.5686
 2556WAT     H210945   3.128   6.328   5.780 -0.3650  0.1142 -0.1554
 2556WAT    EPW10946   3.066   6.344   5.824  0.0422  0.4508  0.3023
 2557WAT      O10947   3.713   5.346   4.144  0.1651  0.5481  1.2081
 2557WAT     H110948   3.722   5.272   4.190 -1.7673  0.2919  1.2836
 2557WAT     H210949   3.792   5.381   4.146  0.8990 -1.0242  2.0369
 2557WAT    EPW10950   3.726   5.340   4.151 -0.0120  0.2780  1.3417
 2558WAT      O10951   4.982   4.635   6.867  0.0171  0.1351  0.2884
 2558WAT     H110952   5.009   4.555   6.844  0.7759  0.6844 -0.7780
 2558WAT     H210953   5.045   4.688   6.838 -1.2240  1.2708 -0.4437
 2558WAT    EPW10954   4.995   4.631   6.860 -0.0541  0.3840  0.0227
 2559WAT      O10955   5.195   5.085   3.242  0.3261 -0.2141  0.3179
 2559WAT     H110956   5.211   5.009   3.203 -2.2541  0.1756 -1.8019
 2559WAT     H210957   5.158   5.062   3.318  1.0384 -1.0355  0.4277
 2559WAT    EPW10958   5.191   5.071   3.248  0.0502 -0.2779  0.0210
 2560WAT      O10959   0.199   4.382   1.695  0.3996 -0.4791 -0.4340
 2560WAT     H110960   0.146   4.321   1.664 -1.9997  0.3295  1.6903
 2560WAT     H210961   0.177   4.454   1.651  1.6159 -0.6249 -1.3359
 2560WAT    EPW10962   0.188   4.384   1.684  0.2248 -0.3812 -0.2534
 2561WAT      O10963   3.188   2.070   6.817 -0.6877  0.2003 -0.2584
 2561WAT     H110964   3.267   2.105   6.814 -0.1359 -0.6416  2.3157
 2561WAT     H210965   3.162   2.081   6.899 -3.3691  0.6096 -1.0395
 2561WAT    EPW10966   3.196   2.077   6.829 -1.0023  0.1364  0.0065
 2562WAT      O10967   6.868   5.175   3.794 -0.2587 -0.3951 -0.1208
 2562WAT     H110968   6.913   5.150   3.724  0.5617  0.7659 -0.0402
 2562WAT     H210969   6.908   5.249   3.819  0.0322 -1.2252  2.0870
 2562WAT    EPW10970   6.881   5.182   3.787 -0.0945 -0.3462  0.2173
 2563WAT      O10971   6.920   4.467   4.136 -0.5223 -0.4053  0.3462
 2563WAT     H110972   6.996   4.431   4.158 -0.9987 -0.0203  3.0599
 2563WAT     H210973   6.861   4.411   4.166 -1.2795  0.5109  0.6353
 2563WAT    EPW10974   6.923   4.453   4.144 -0.7045 -0.2131  0.7898
 2564WAT      O10975   2.525   6.687   4.184 -0.3523  0.1472  0.0614
 2564WAT     H110976   2.461   6.633   4.160 -0.8586  0.9189 -0.3631
 2564WAT     H210977   2.533   6.672   4.269 -2.3239  1.2730  0.5097
 2564WAT    EPW10978   2.517   6.677   4.193 -0.7183  0.4275  0.0649
 2565WAT      O10979   1.350   1.773   3.902  0.0572 -0.0994 -0.1197
 2565WAT     H110980   1.370   1.689   3.894 -2.6407 -0.7019 -2.4045
 2565WAT     H210981   1.422   1.815   3.878  1.0400 -1.7741 -0.1770
 2565WAT    EPW10982   1.363   1.767   3.897 -0.1962 -0.4358 -0.4657
 2566WAT      O10983   5.201   0.970   1.964 -0.7497 -0.6032  0.2121
 2566WAT     H110984   5.226   1.039   1.917  0.8426 -0.0361  1.7608
 2566WAT     H210985   5.222   0.902   1.914  0.0319 -0.0070 -0.2889
 2566WAT    EPW10986   5.208   0.970   1.950 -0.3990 -0.4313  0.3668
 2567WAT      O10987   5.350   3.795   0.608 -0.3602  0.4304 -0.6010
 2567WAT     H110988   5.267   3.785   0.633  0.9911  0.3503  5.2836
 2567WAT     H210989   5.361   3.881   0.609 -0.1062  0.3959 -0.0045
 2567WAT    EPW10990   5.339   3.806   0.612 -0.1231  0.4135  0.3564
 2568WAT      O10991   6.126   3.788   1.820  0.6635 -0.3667  0.4006
 2568WAT     H110992   6.098   3.846   1.760  1.9832  1.1031  1.1556
 2568WAT     H210993   6.054   3.741   1.837 -0.4667  1.0574 -0.2104
 2568WAT    EPW10994   6.111   3.789   1.813  0.6915  0.0608  0.4219
 2569WAT      O10995   3.067   5.876   2.333  0.1489  0.2023  0.0355
 2569WAT     H110996   3.088   5.929   2.268 -0.8696 -0.4451 -0.8595
 2569WAT     H210997   3.051   5.799   2.294 -1.7645  0.1200  0.8283
 2569WAT    EPW10998   3.068   5.872   2.318 -0.2842  0.0945  0.0204
 2570WAT      O10999   0.198   6.965   3.235 -0.1882 -0.0759 -0.0299
 2570WAT     H111000   0.212   6.880   3.248  0.2900 -0.0865 -0.5417
 2570WAT     H211001   0.173   6.969   3.151  1.0969  0.4114 -0.4099
 2570WAT    EPW11002   0.196   6.953   3.225  0.0723 -0.0055 -0.1616
 2571WAT      O11003   3.962   6.688   2.594  0.4088 -0.6932  0.1330
 2571WAT     H111004   3.916   6.621   2.625 -0.2896 -0.1319  0.3341
 2571WAT     H211005   3.948   6.684   2.508 -0.5009 -0.1852  0.2478
 2571WAT    EPW11006   3.953   6.677   2.586  0.1712 -0.5353  0.1796
 2572WAT      O11007   5.003   2.074   7.166  0.8427  0.4023  0.4447
 2572WAT     H111008   5.063   2.132   7.140 -1.3365  2.3720 -0.5259
 2572WAT     H211009   4.994   2.090   7.251  0.1391  1.6594  0.1515
 2572WAT    EPW11010   5.011   2.085   7.174  0.4169  0.8790  0.2581
 2573WAT      O11011   2.105   1.773   5.628 -0.1937  0.7432  0.4593
 2573WAT     H111012   2.021   1.772   5.603 -0.2200 -0.6075  0.5138
 2573WAT     H211013   2.104   1.823   5.700 -0.9713  0.6575  0.5190
 2573WAT    EPW11014   2.092   1.780   5.635 -0.3125  0.5310  0.4762
 2574WAT      O11015   0.275   2.015   0.768  0.6618  0.4928  0.3706
 2574WAT     H111016   0.199   2.024   0.725 -0.0972  0.3138  1.6225
 2574WAT     H211017   0.314   2.092   0.756 -0.5312  1.2644  1.1906
 2574WAT    EPW11018   0.269   2.027   0.760  0.3734  0.5804  0.6767
 2575WAT      O11019   5.890   4.845   5.789 -0.3640 -0.5970 -0.5471
 2575WAT     H111020   5.840   4.892   5.735 -0.3466 -1.3829 -1.2644
 2575WAT     H211021   5.966   4.887   5.788 -0.4763 -0.3962 -0.8502
 2575WAT    EPW11022   5.894   4.858   5.781 -0.3781 -0.6834 -0.6978
 2576WAT      O11023   0.722   5.513   0.773 -0.1417  0.3499  0.1132
 2576WAT     H111024   0.697   5.594   0.793  0.1591  0.3568  0.4871
 2576WAT     H211025   0.793   5.525   0.724  0.5483  0.3096  1.0760
 2576WAT    EPW11026   0.729   5.527   0.769  0.0046  0.3449  0.3107
 2577WAT      O11027   6.795   4.709   4.243 -0.1117  0.0584  0.0336
 2577WAT     H111028   6.854   4.773   4.240 -0.8961  0.8622  0.8907
 2577WAT     H211029   6.840   4.639   4.218  0.9434  0.8235 -0.3066
 2577WAT    EPW11030   6.810   4.708   4.239 -0.0717  0.2902  0.1100
 2578WAT      O11031   3.405   2.424   0.526 -0.2996  0.2968 -0.3121
 2578WAT     H111032   3.345   2.374   0.488 -0.3911 -1.1837  1.6009
 2578WAT     H211033   3.427   2.481   0.464 -2.1897 -0.3949 -1.7149
 2578WAT    EPW11034   3.400   2.425   0.511 -0.5923 -0.0241 -0.2367
 2579WAT      O11035   5.825   5.998   2.561 -0.1030  0.4703 -0.1234
 2579WAT     H111036   5.852   5.917   2.577 -0.8793  0.6145  2.2344
 2579WAT     H211037   5.778   6.019   2.631 -0.8633  2.5770 -1.1594
 2579WAT    EPW11038   5.822   5.989   2.573 -0.3300  0.8028  0.0719
 2580WAT      O11039   3.959   3.069   2.671 -0.0183  0.3622 -0.1377
 2580WAT     H111040   4.007   2.997   2.661  1.4293  1.3364 -0.4844
 2580WAT     H211041   3.962   3.084   2.757  1.1870  0.9770 -0.2684
 2580WAT    EPW11042   3.967   3.061   2.682  0.3736  0.5970 -0.2082
 2581WAT      O11043   5.534   5.807   2.051 -0.4220 -0.1070 -0.1935
 2581WAT     H111044   5.601   5.856   2.023 -0.3891 -1.4062 -2.7599
 2581WAT     H211045   5.465   5.861   2.044 -0.0902  0.2437 -0.9398
 2581WAT    EPW11046   5.533   5.822   2.046 -0.3681 -0.2471 -0.6829
 2582WAT      O11047   1.509   3.006   4.449  0.1807 -0.0993 -0.0223
 2582WAT     H111048   1.566   3.014   4.515 -0.7456 -0.3826  0.8480
 2582WAT     H211049   1.491   2.921   4.448 -1.4749  0.1888  0.8510
 2582WAT    EPW11050   1.515   2.995   4.459 -0.2007 -0.0986  0.2353
 2583WAT      O11051   5.445   5.690   6.827 -0.5647 -0.0978 -0.3226
 2583WAT     H111052   5.411   5.770   6.817 -0.7067 -0.2291 -0.9396
 2583WAT     H211053   5.402   5.658   6.896 -0.5048  0.3577 -0.0705
 2583WAT    EPW11054   5.434   5.697   6.835 -0.5768 -0.0499 -0.3765
 2584WAT      O11055   2.995   2.284   3.643 -0.1634  0.4730  0.1512
 2584WAT     H111056   3.007   2.370   3.657  3.3374  0.5245 -2.0196
 2584WAT     H211057   3.015   2.274   3.559  2.1271 -2.7900  0.9124
 2584WAT    EPW11058   3.000   2.295   3.633  0.6921 -0.0014 -0.0571
 2585WAT      O11059   1.844   0.487   3.031 -0.4532 -0.2995  0.0287
 2585WAT     H111060   1.918   0.533   3.022 -0.3400 -0.5431 -0.2979
 2585WAT     H211061   1.870   0.405   3.018 -0.9616 -0.2933 -1.1084
 2585WAT    EPW11062   1.859   0.482   3.028 -0.5116 -0.3346 -0.1875
 2586WAT      O11063   5.401   4.051   3.255 -0.4893 -0.3092  0.0588
 2586WAT     H111064   5.443   4.058   3.178 -0.4342 -0.9810  0.0293
 2586WAT     H211065   5.379   3.967   3.259 -0.1951 -0.3553  0.9363
 2586WAT    EPW11066   5.404   4.040   3.244 -0.4377 -0.4153  0.1841
 2587WAT      O11067   1.113   2.814   2.251 -0.3124 -0.3488  0.1673
 2587WAT     H111068   1.132   2.731   2.272  2.5755  0.3281  0.6051
 2587WAT     H211069   1.089   2.849   2.327  0.4939 -0.3128  0.4167
 2587WAT    EPW11070   1.112   2.807   2.265  0.2333 -0.2435  0.2688
 2588WAT      O11071   5.496   2.280   2.225  0.4867  0.4986  0.3509
 2588WAT     H111072   5.436   2.341   2.208  0.8128  0.2989 -1.7381
 2588WAT     H211073   5.460   2.233   2.289 -0.9687  1.2225  0.0949
 2588WAT    EPW11074   5.482   2.282   2.232  0.3199  0.5760  0.0045
 2589WAT      O11075   2.161   2.652   2.640 -0.1857 -0.0299 -0.5759
 2589WAT     H111076   2.098   2.706   2.668  0.5652 -0.5033  2.3499
 2589WAT     H211077   2.150   2.581   2.690  1.5694 -0.8279 -1.2625
 2589WAT    EPW11078   2.150   2.649   2.651  0.1845 -0.2177 -0.2451
 2590WAT      O11079   0.914   6.144   1.394 -0.5641 -0.2545 -0.0668
 2590WAT     H111080   0.907   6.057   1.397  0.8172 -0.3726  0.3263
 2590WAT     H211081   0.839   6.172   1.428  0.1979 -1.3294  2.7947
 2590WAT    EPW11082   0.902   6.135   1.399 -0.2475 -0.4307  0.4140
 2591WAT      O11083   4.246   5.514   4.655 -0.8859  0.0252 -0.0281
 2591WAT     H111084   4.212   5.516   4.575  0.3550  1.8123 -0.5693
 2591WAT     H211085   4.216   5.439   4.688 -1.9259 -0.4604 -1.9266
 2591WAT    EPW11086   4.237   5.503   4.648 -0.8562  0.2175 -0.3885
 2592WAT      O11087   0.466   5.602   7.335 -0.0797  0.0605 -0.6265
 2592WAT     H111088   0.553   5.591   7.332 -0.1329 -0.0996 -1.8306
 2592WAT     H211089   0.435   5.521   7.325 -0.3959 -0.4174  2.9044
 2592WAT    EPW11090   0.475   5.588   7.333 -0.1343 -0.0338 -0.2828
 2593WAT      O11091   0.041   2.542   2.035 -0.0511 -0.0845  0.2474
 2593WAT     H111092   0.026   2.626   2.021  0.5526  0.1457  0.8788
 2593WAT     H211093   0.097   2.543   2.102 -0.9253 -1.0161  1.0262
 2593WAT    EPW11094   0.047   2.555   2.043 -0.0911 -0.1881  0.4557
 2594WAT      O11095   0.409   6.513   3.433 -0.4098 -0.1321 -0.0784
 2594WAT     H111096   0.382   6.538   3.512 -0.4858 -0.8353  0.1306
 2594WAT     H211097   0.370   6.436   3.422  1.6994 -1.3553  0.3768
 2594WAT    EPW11098   0.399   6.505   3.443 -0.1095 -0.4167  0.0197
 2595WAT      O11099   2.757   6.356   3.194  0.0098 -0.4798 -0.2210
 2595WAT     H111100   2.765   6.271   3.174  2.3141 -0.3886  0.0219
 2595WAT     H211101   2.749   6.395   3.116  0.3021 -0.8362 -0.4349
 2595WAT    EPW11102   2.757   6.349   3.179  0.3934 -0.5190 -0.2167
 2596WAT      O11103   0.481   0.729   4.539 -0.4329 -0.3286 -0.2537
 2596WAT     H111104   0.520   0.802   4.510 -1.1838  0.2820  0.2218
 2596WAT     H211105   0.499   0.729   4.624 -0.2552 -0.8210 -0.2913
 2596WAT    EPW11106   0.490   0.740   4.547 -0.5176 -0.3111 -0.1890
 2597WAT      O11107   2.147   2.413   4.031 -0.2536 -0.1293  0.1801
 2597WAT     H111108   2.204   2.401   3.966 -0.2393 -1.6127  0.4324
 2597WAT     H211109   2.167   2.493   4.061 -1.0233  1.0963 -2.3370
 2597WAT    EPW11110   2.159   2.423   4.026 -0.3652 -0.1674 -0.1544
 2598WAT      O11111   4.329   6.762   5.652  0.0872 -0.1750 -0.1163
 2598WAT     H111112   4.282   6.833   5.671  0.4314 -0.2006  0.8831
 2598WAT     H211113   4.325   6.758   5.565  0.4751  1.3677 -0.2355
 2598WAT    EPW11114   4.321   6.772   5.642  0.1954  0.0491  0.0137
 2599WAT      O11115   1.815   7.140   6.124 -0.1041 -0.5785  0.3541
 2599WAT     H111116   1.850   7.158   6.202 -0.6688  0.3916  0.3977
 2599WAT     H211117   1.848   7.061   6.105  0.7218 -0.4532  1.1730
 2599WAT    EPW11118   1.825   7.131   6.133 -0.0655 -0.4167  0.4815
 2600WAT      O11119   3.826   0.562   2.010  0.6224  0.0546 -0.1039
 2600WAT     H111120   3.881   0.537   1.947 -1.7484  0.6667 -2.5855
 2600WAT     H211121   3.777   0.623   1.972 -2.1950 -0.8815  1.7160
 2600WAT    EPW11122   3.827   0.567   1.995 -0.1440  0.0068 -0.2017
 2601WAT      O11123   2.079   3.122   2.907 -0.7616 -0.4616 -0.5857
 2601WAT     H111124   2.027   3.055   2.928  2.1519 -2.8288 -0.2783
 2601WAT     H211125   2.094   3.109   2.822 -2.6057  1.7717 -1.3585
 2601WAT    EPW11126   2.073   3.110   2.898 -0.6036 -0.4814 -0.6544
 2602WAT      O11127   2.063   6.441   4.701 -0.5155 -0.7282  0.1424
 2602WAT     H111128   2.080   6.495   4.634  0.5938  1.5179  2.0861
 2602WAT     H211129   2.112   6.371   4.683 -1.4770 -0.8982 -2.1456
 2602WAT    EPW11130   2.073   6.439   4.688 -0.4936 -0.4215  0.0915
 2603WAT      O11131   1.871   4.590   1.579 -0.1604  0.9241  0.0017
 2603WAT     H111132   1.878   4.543   1.653 -1.0433  0.5962 -0.1226
 2603WAT     H211133   1.952   4.621   1.568  0.6801 -1.2297 -0.3509
 2603WAT    EPW11134   1.884   4.587   1.588 -0.1666  0.5575 -0.0687
 2604WAT      O11135   1.822   1.852   5.516  0.6492  0.0571  0.6106
 2604WAT     H111136   1.850   1.933   5.500  1.1606 -0.1939  0.1978
 2604WAT     H211137   1.870   1.803   5.463  1.1832 -0.6414  1.6986
 2604WAT    EPW11138   1.833   1.857   5.506  0.8036 -0.0832  0.7104
 2605WAT      O11139   3.699   1.416   4.016 -0.3703  0.2218 -0.0148
 2605WAT     H111140   3.782   1.436   3.996 -0.6079  0.6082 -0.6689
 2605WAT     H211141   3.697   1.329   4.012  0.3664  0.0943  1.5474
 2605WAT    EPW11142   3.711   1.406   4.012 -0.2966  0.2600  0.1194
 2606WAT      O11143   7.055   4.057   0.697 -0.1896  0.8919  0.1493
 2606WAT     H111144   7.040   3.989   0.644 -0.6437  0.7777  0.4207
 2606WAT     H211145   7.024   4.125   0.652 -1.8806  0.6201  0.8377
 2606WAT    EPW11146   7.049   4.057   0.683 -0.5065  0.8349  0.2911
 2607WAT      O11147   3.564   7.154   6.961  0.7960 -0.6541 -0.2452
 2607WAT     H111148   3.494   7.197   6.992 -0.6013 -2.2089 -1.0436
 2607WAT     H211149   3.616   7.218   6.932  0.5275  0.6558  1.8876
 2607WAT    EPW11150   3.561   7.170   6.962  0.5499 -0.6903 -0.0481
 2608WAT      O11151   3.024   0.038   4.675 -0.0749 -0.1626  0.1149
 2608WAT     H111152   2.965  -0.024   4.663 -0.3255  0.2943 -1.1394
 2608WAT     H211153   3.001   0.101   4.619  2.5575 -0.6880 -1.7775
 2608WAT    EPW11154   3.012   0.038   4.665  0.2770 -0.1727 -0.3499
 2609WAT      O11155   1.990   3.336   3.870 -0.4791  0.5715  0.2281
 2609WAT     H111156   2.045   3.283   3.913  0.6169  2.1143  0.8091
 2609WAT     H211157   1.988   3.302   3.790  1.0399  0.2289  0.2942
 2609WAT    EPW11158   1.998   3.323   3.864 -0.0928  0.7488  0.3237
 2610WAT      O11159   1.159   1.715   2.780  0.0234  0.5782  0.0450
 2610WAT     H111160   1.077   1.724   2.750  0.3659 -1.0686 -1.5231
 2610WAT     H211161   1.149   1.668   2.852 -0.4827  1.3282  0.4875
 2610WAT    EPW11162   1.145   1.710   2.786 -0.0007  0.4458 -0.1213
 2611WAT      O11163   3.178   4.306   0.509  0.0884  0.4819  0.0793
 2611WAT     H111164   3.161   4.277   0.589 -0.8835 -2.6433 -1.0741
 2611WAT     H211165   3.099   4.324   0.476  0.3549  0.4975 -0.5687
 2611WAT    EPW11166   3.164   4.304   0.516 -0.0158  0.0225 -0.1868
 2612WAT      O11167   7.068   6.376   6.873 -0.1025 -0.2269 -0.2735
 2612WAT     H111168   7.132   6.328   6.837  0.4051 -1.7767  2.4010
 2612WAT     H211169   7.109   6.419   6.937 -1.4953 -0.1493  0.6030
 2612WAT    EPW11170   7.084   6.375   6.877 -0.2333 -0.4444  0.2511
 2613WAT      O11171   1.730   6.219   6.150  0.8306  0.6577 -0.3840
 2613WAT     H111172   1.659   6.267   6.169  0.9504  0.7461 -0.1581
 2613WAT     H211173   1.780   6.274   6.104 -0.1501 -0.0286 -2.3863
 2613WAT    EPW11174   1.727   6.234   6.146  0.7034  0.5694 -0.6464
 2614WAT      O11175   5.977   3.971   6.066  1.1940 -0.1616  0.2278
 2614WAT     H111176   5.935   3.963   5.990  0.4348  0.0341  0.6152
 2614WAT     H211177   6.024   4.044   6.056 -0.2361  0.8397  0.5487
 2614WAT    EPW11178   5.977   3.981   6.053  0.8706  0.0152  0.3324
 2615WAT      O11179   3.262   0.444   6.708  0.1396  0.1675 -0.5396
 2615WAT     H111180   3.324   0.388   6.732 -0.6650 -0.1005  1.0323
 2615WAT     H211181   3.243   0.488   6.781 -0.3970  1.3659 -1.3612
 2615WAT    EPW11182   3.268   0.442   6.722 -0.0586  0.3049 -0.4288
 2616WAT      O11183   1.653   2.753   2.706  0.4602 -0.0199  0.3389
 2616WAT     H111184   1.679   2.786   2.630  1.0370 -1.6102 -0.1878
 2616WAT     H211185   1.586   2.702   2.685  1.4287 -1.4906  0.6701
 2616WAT    EPW11186   1.647   2.751   2.692  0.6885 -0.4720  0.3100
 2617WAT      O11187   0.698   6.322   5.018  0.6638 -0.1316  0.1149
 2617WAT     H111188   0.753   6.348   4.955  0.6638 -0.2304  0.0746
 2617WAT     H211189   0.620   6.347   4.988  0.6106 -0.5952 -0.1429
 2617WAT    EPW11190   0.694   6.329   5.004  0.6559 -0.2147  0.0709
 2618WAT      O11191   0.116   3.014   0.708  0.6466 -0.0258  0.4509
 2618WAT     H111192   0.107   3.078   0.649  1.6684  0.3186  0.6452
 2618WAT     H211193   0.136   3.057   0.781  1.3937 -0.5531  0.5696
 2618WAT    EPW11194   0.118   3.030   0.710  0.9079 -0.0528  0.4971
 2619WAT      O11195   4.566   1.856   2.444  0.0613 -0.1370 -0.7210
 2619WAT     H111196   4.537   1.854   2.362 -1.3038  0.7364 -0.2953
 2619WAT     H211197   4.513   1.800   2.486 -0.5192  0.8563 -0.0873
 2619WAT    EPW11198   4.554   1.847   2.438 -0.2261  0.1387 -0.5645
 2620WAT      O11199   0.476   4.454   0.397  0.4565  0.2196 -0.0210
 2620WAT     H111200   0.460   4.529   0.354 -1.1879  2.1090  3.4522
 2620WAT     H211201   0.561   4.460   0.415  0.5468  0.7999 -0.5733
 2620WAT    EPW11202   0.486   4.466   0.393  0.2269  0.5844  0.4105
 2621WAT      O11203   1.658   1.193   6.241  0.2054  0.2596  0.0798
 2621WAT     H111204   1.664   1.272   6.276 -0.3102 -0.1069  1.0518
 2621WAT     H211205   1.673   1.140   6.309  0.6086 -0.4758 -0.5661
 2621WAT    EPW11206   1.661   1.197   6.256  0.1888  0.0968  0.1279
 2622WAT      O11207   2.057   5.060   5.491  0.3548 -0.5366  0.4553
 2622WAT     H111208   2.111   5.119   5.528 -0.5974  0.0590  0.9435
 2622WAT     H211209   2.065   4.991   5.543  0.3371 -0.3072  0.7692
 2622WAT    EPW11210   2.066   5.059   5.504  0.2115 -0.4148  0.5738
 2623WAT      O11211   0.260   5.004   0.570 -0.6976 -0.2070  0.3469
 2623WAT     H111212   0.207   4.956   0.620 -1.0762 -0.0783  0.0758
 2623WAT     H211213   0.309   5.047   0.628  0.7718 -2.0976  0.6135
 2623WAT    EPW11214   0.260   5.004   0.586 -0.5365 -0.4673  0.3462
 2624WAT      O11215   5.095   0.040   3.936  0.5094  0.9407 -0.3207
 2624WAT     H111216   5.136  -0.037   3.933 -0.5063  0.3717  0.0236
 2624WAT     H211217   5.093   0.058   4.022 -2.0029 -0.1961 -0.0704
 2624WAT    EPW11218   5.101   0.031   3.949 -0.0117  0.6887 -0.2329
 2625WAT      O11219   2.583   3.033   5.978 -0.4481 -0.7017  0.2655
 2625WAT     H111220   2.539   2.971   6.022  0.3708 -1.4216  0.0883
 2625WAT     H211221   2.661   2.997   5.965 -0.1210  0.1896 -0.2715
 2625WAT    EPW11222   2.588   3.019   5.983 -0.2788 -0.6763  0.1600
 2626WAT      O11223   3.314   2.315   2.772 -0.2944  0.0925 -0.3027
 2626WAT     H111224   3.288   2.308   2.689 -0.1219  1.0039 -0.4530
 2626WAT     H211225   3.296   2.237   2.807 -2.3806  0.3771 -0.6255
 2626WAT    EPW11226   3.307   2.303   2.765 -0.5771  0.2691 -0.3726
 2627WAT      O11227   3.087   6.835   5.722  0.2541  0.2344  0.4893
 2627WAT     H111228   3.031   6.791   5.772 -0.2463  0.0965 -0.1821
 2627WAT     H211229   3.105   6.779   5.657  1.1388  0.2908  0.6699
 2627WAT    EPW11230   3.081   6.820   5.720  0.3108  0.2224  0.4168
 2628WAT      O11231   0.835   7.085   6.827 -0.1621  0.8611  0.4181
 2628WAT     H111232   0.863   7.135   6.892  1.0117 -0.4829  0.9908
 2628WAT     H211233   0.871   7.007   6.843  2.4456  1.0355 -3.2162
 2628WAT    EPW11234   0.844   7.081   6.839  0.3965  0.6883 -0.0342
 2629WAT      O11235   5.285   0.813   2.511  0.3966  0.4306 -0.0580
 2629WAT     H111236   5.291   0.727   2.521 -2.0778  0.2059 -0.0530
 2629WAT     H211237   5.238   0.823   2.439  1.3382  1.8332 -0.5352
 2629WAT    EPW11238   5.279   0.802   2.502  0.1702  0.6046 -0.1278
 2630WAT      O11239   3.110   5.723   4.238 -0.9478 -0.2006 -0.4183
 2630WAT     H111240   3.161   5.684   4.297 -2.2380  0.7837  1.4547
 2630WAT     H211241   3.034   5.682   4.246 -1.7118  1.2253  0.0985
 2630WAT    EPW11242   3.107   5.711   4.248 -1.2512  0.1555 -0.0653
 2631WAT      O11243   5.310   3.015   1.317  0.5319  0.2405 -0.5841
 2631WAT     H111244   5.300   2.944   1.268  0.2954 -0.4210  0.3876
 2631WAT     H211245   5.229   3.043   1.330  0.6326  0.7569 -1.0583
 2631WAT    EPW11246   5.297   3.008   1.312  0.5118  0.2191 -0.5106
 2632WAT      O11247   7.021   2.339   6.452 -0.0295 -0.2258 -0.6639
 2632WAT     H111248   6.987   2.370   6.526  1.2593  3.0755 -1.2996
 2632WAT     H211249   7.052   2.261   6.475 -0.1220  0.4636  2.1633
 2632WAT    EPW11250   7.020   2.332   6.466  0.1472  0.3637 -0.3402
 2633WAT      O11251   5.792   4.788   5.119 -0.0863  0.2501  0.1545
 2633WAT     H111252   5.709   4.759   5.124 -0.0389  0.0861  0.0019
 2633WAT     H211253   5.790   4.862   5.164 -0.8124  1.3437 -1.5693
 2633WAT    EPW11254   5.779   4.794   5.127 -0.1866  0.3874 -0.1227
 2634WAT      O11255   4.742   1.375   0.313 -0.2108 -0.6132 -0.7431
 2634WAT     H111256   4.718   1.441   0.366  0.3792 -1.2092  0.3108
 2634WAT     H211257   4.822   1.398   0.287 -0.1137 -0.7828 -0.5948
 2634WAT    EPW11258   4.750   1.388   0.317 -0.1093 -0.7263 -0.5655
 2635WAT      O11259   0.902   6.983   4.245 -0.1442 -0.1744 -0.4867
 2635WAT     H111260   0.975   6.990   4.292 -0.7804 -1.1997  0.7051
 2635WAT     H211261   0.929   6.991   4.163  1.0362  1.4474  0.0017
 2635WAT    EPW11262   0.917   6.985   4.240 -0.0638 -0.0863 -0.2385
 2636WAT      O11263   0.880   6.364   4.241 -0.1762 -0.4617  0.3865
 2636WAT     H111264   0.807   6.401   4.209  0.1519  0.9442  1.1835
 2636WAT     H211265   0.860   6.348   4.324  0.0841 -1.0469  0.3401
 2636WAT    EPW11266   0.866   6.368   4.248 -0.0892 -0.3404  0.4974
 2637WAT      O11267   5.464   4.800   6.846 -0.5020 -0.0730 -0.1559
 2637WAT     H111268   5.452   4.885   6.831 -3.1691 -0.5488 -1.4025
 2637WAT     H211269   5.423   4.786   6.922  0.5973 -0.1443  0.4436
 2637WAT    EPW11270   5.456   4.810   6.855 -0.7336 -0.1538 -0.2515
 2638WAT      O11271   3.803   0.155   2.333  0.6489 -0.0821 -0.3442
 2638WAT     H111272   3.728   0.111   2.326  0.6489 -0.3424  1.0236
 2638WAT     H211273   3.779   0.229   2.373  1.2096 -0.5243  0.8830
 2638WAT    EPW11274   3.788   0.160   2.338  0.7317 -0.1858  0.0392
 2639WAT      O11275   0.559   5.740   2.544 -0.1057  0.0767  0.8433
 2639WAT     H111276   0.522   5.714   2.619 -0.7450 -0.8457  0.2241
 2639WAT     H211277   0.515   5.813   2.524 -0.0286  0.2489  1.2737
 2639WAT    EPW11278   0.547   5.747   2.552 -0.1887 -0.0341  0.8154
 2640WAT      O11279   0.645   6.806   3.732  0.4659 -0.1485 -0.7154
 2640WAT     H111280   0.719   6.850   3.747  0.7997 -0.2610 -1.8831
 2640WAT     H211281   0.630   6.821   3.647 -1.9303  1.4984 -0.0958
 2640WAT    EPW11282   0.654   6.815   3.722  0.1612  0.0782 -0.7964
 2641WAT      O11283   6.881   4.232   3.480  0.1379  0.3429 -0.6552
 2641WAT     H111284   6.843   4.201   3.408 -1.1420 -0.6967  0.4079
 2641WAT     H211285   6.838   4.307   3.495  1.5452  1.4384 -1.8553
 2641WAT    EPW11286   6.869   4.239   3.472  0.1567  0.3512 -0.6755
 2642WAT      O11287   2.131   2.385   5.601 -0.2321  0.1994 -0.4415
 2642WAT     H111288   2.050   2.410   5.623 -0.3809  0.8713 -1.6703
 2642WAT     H211289   2.179   2.457   5.610  0.6315 -0.5960  1.9667
 2642WAT    EPW11290   2.126   2.400   5.605 -0.1265  0.1812 -0.2673
 2643WAT      O11291   0.918   1.919   1.046  0.0286  0.1084  0.2015
 2643WAT     H111292   0.857   1.905   1.107  0.2501  1.3230  0.7204
 2643WAT     H211293   0.981   1.862   1.066  0.1369  0.5567  1.1672
 2643WAT    EPW11294   0.918   1.909   1.058  0.0773  0.3540  0.4208
 2644WAT      O11295   1.092   6.276   2.351 -0.3107 -0.3739 -0.3362
 2644WAT     H111296   1.035   6.211   2.340  0.3070 -1.2202  1.1406
 2644WAT     H211297   1.167   6.235   2.369  0.8079  0.7107 -2.1869
 2644WAT    EPW11298   1.094   6.260   2.352 -0.0542 -0.3387 -0.3914
 2645WAT      O11299   1.199   1.696   6.992  1.1884 -0.1114  0.2856
 2645WAT     H111300   1.170   1.658   6.919  1.2797 -1.0114  0.7060
 2645WAT     H211301   1.258   1.754   6.963 -0.5831  1.3717 -0.5333
 2645WAT    EPW11302   1.204   1.699   6.977  0.9402 -0.0253  0.2267
 2646WAT      O11303   7.051   1.426   4.115 -0.5361  0.6098 -0.2830
 2646WAT     H111304   7.071   1.342   4.099  0.9151  0.9300 -0.2191
 2646WAT     H211305   7.011   1.423   4.192  1.0710  0.1581  0.5615
 2646WAT    EPW11306   7.048   1.413   4.124 -0.0843  0.5904 -0.1488
 2647WAT      O11307   0.426   1.166   4.048 -0.2211  0.2210 -0.0026
 2647WAT     H111308   0.453   1.092   4.085  1.7453  0.2792 -1.1557
 2647WAT     H211309   0.372   1.140   3.985 -1.0501 -0.0782  0.8141
 2647WAT    EPW11310   0.422   1.151   4.044 -0.0531  0.1854 -0.0523
 2648WAT      O11311   5.866   5.193   0.256  0.0727  0.2864  0.2218
 2648WAT     H111312   5.896   5.275   0.262 -1.2746  0.8725 -0.6553
 2648WAT     H211313   5.852   5.182   0.171 -1.4665 -0.2193  0.5098
 2648WAT    EPW11314   5.869   5.203   0.245 -0.3537  0.2983  0.1348
 2649WAT      O11315   5.362   0.513   5.120  0.1319 -0.5670 -0.5435
 2649WAT     H111316   5.286   0.555   5.129  0.0966 -0.5376 -0.9268
 2649WAT     H211317   5.410   0.539   5.188 -0.2722 -0.7383 -0.1893
 2649WAT    EPW11318   5.358   0.523   5.131  0.0670 -0.5880 -0.5478
 2650WAT      O11319   6.599   4.143   0.903 -0.2593 -0.4751 -0.3659
 2650WAT     H111320   6.546   4.162   0.836  0.6588 -0.9906 -1.2706
 2650WAT     H211321   6.653   4.083   0.869 -0.0919 -1.1262  0.9988
 2650WAT    EPW11322   6.599   4.137   0.888 -0.0990 -0.6474 -0.2979
 2651WAT      O11323   2.189   0.511   2.767 -0.0218 -0.5514  0.5494
 2651WAT     H111324   2.219   0.432   2.791 -0.9016 -1.2151 -0.4587
 2651WAT     H211325   2.111   0.493   2.732  0.7733  0.4845 -1.8913
 2651WAT    EPW11326   2.182   0.496   2.766 -0.0343 -0.4964  0.0399
 2652WAT      O11327   4.432   7.025   3.821  0.1202 -0.1109 -0.3641
 2652WAT     H111328   4.348   7.004   3.811  0.1176  0.6110 -2.2417
 2652WAT     H211329   4.432   7.083   3.887 -0.6372 -1.1294  0.5760
 2652WAT    EPW11330   4.420   7.030   3.830  0.0079 -0.1547 -0.5025
 2653WAT      O11331   5.528   2.079   5.588 -0.2522  0.4193  0.2055
 2653WAT     H111332   5.585   2.141   5.608 -0.6725  0.6539  0.7075
 2653WAT     H211333   5.569   2.005   5.609  0.5682  0.4596 -1.1537
 2653WAT    EPW11334   5.542   2.077   5.594 -0.1931  0.4599  0.0789
 2654WAT      O11335   6.204   1.165   3.573 -0.4376 -0.1746  0.3541
 2654WAT     H111336   6.214   1.193   3.491 -2.5197 -1.4147 -0.3989
 2654WAT     H211337   6.119   1.178   3.588 -0.0074  0.4667  2.5272
 2654WAT    EPW11338   6.193   1.171   3.563 -0.6816 -0.2631  0.5639
 2655WAT      O11339   1.755   3.697   0.953 -1.0434 -0.1451 -0.2287
 2655WAT     H111340   1.808   3.765   0.940 -1.2039 -0.0556 -0.4169
 2655WAT     H211341   1.804   3.640   0.997 -1.0805  0.3252  0.4377
 2655WAT    EPW11342   1.770   3.699   0.958 -1.0726 -0.0624 -0.1580
 2656WAT      O11343   6.701   3.766   0.571 -0.1868  0.3778  0.2652
 2656WAT     H111344   6.717   3.700   0.627 -0.2482 -1.2175 -1.4806
 2656WAT     H211345   6.630   3.804   0.604 -1.6364 -1.9751  0.1076
 2656WAT    EPW11346   6.693   3.762   0.584 -0.4100 -0.2054 -0.0160
 2657WAT      O11347   0.088   5.272   4.031  0.1039 -0.0346  0.1210
 2657WAT     H111348   0.004   5.266   4.056  0.3737 -1.6394  0.8129
 2657WAT     H211349   0.088   5.240   3.950  0.3614 -2.6581  1.0442
 2657WAT    EPW11350   0.075   5.266   4.023  0.1818 -0.6592  0.3596
 2658WAT      O11351   1.195   3.080   5.491 -0.5075 -0.0659  0.6917
 2658WAT     H111352   1.215   3.125   5.563 -0.3459  0.3341  0.3976
 2658WAT     H211353   1.204   2.997   5.516  1.2920  0.0832  0.6524
 2658WAT    EPW11354   1.199   3.074   5.505 -0.2178  0.0152  0.6425
 2659WAT      O11355   1.581   0.074   3.777 -0.1683  0.0989  0.5621
 2659WAT     H111356   1.590   0.118   3.702 -1.1350  0.0079  0.3726
 2659WAT     H211357   1.500   0.041   3.772 -0.2796  0.1503  1.6737
 2659WAT    EPW11358   1.570   0.076   3.766 -0.3275  0.0930  0.6983
 2660WAT      O11359   5.408   0.100   6.796  0.2955  0.1841  0.5915
 2660WAT     H111360   5.441   0.052   6.860  1.2167  0.5288  0.3891
 2660WAT     H211361   5.430   0.182   6.818  0.3381  0.3353  0.0104
 2660WAT    EPW11362   5.416   0.105   6.809  0.4379  0.2573  0.4758
 2661WAT      O11363   7.016   6.309   3.029 -0.6664  0.1064 -0.0515
 2661WAT     H111364   7.076   6.274   2.977 -1.0392 -0.1824 -0.3000
 2661WAT     H211365   6.951   6.251   3.027 -0.4072 -0.2705  1.3172
 2661WAT    EPW11366   7.015   6.295   3.021 -0.6832  0.0081  0.1140
 2662WAT      O11367   6.289   3.225   0.438  0.0704 -1.0313 -0.1706
 2662WAT     H111368   6.235   3.170   0.480  0.7444 -0.4648  1.5449
 2662WAT     H211369   6.246   3.300   0.439  0.0525 -1.0369 -0.5832
 2662WAT    EPW11370   6.275   3.228   0.445  0.1673 -0.9485  0.0219
 2663WAT      O11371   1.395   6.672   6.930  0.4988  0.9304 -0.1334
 2663WAT     H111372   1.363   6.703   7.006 -4.6240 -0.1972 -1.4603
 2663WAT     H211373   1.421   6.591   6.950 -0.0044  0.9379  0.5920
 2663WAT    EPW11374   1.394   6.665   6.944 -0.3323  0.7649 -0.2223
 2664WAT      O11375   6.206   4.930   7.054  0.1465 -0.1117 -0.3211
 2664WAT     H111376   6.262   4.865   7.070 -0.1551 -0.8195 -1.9640
 2664WAT     H211377   6.176   4.912   6.974 -0.7400  1.4887 -0.3844
 2664WAT    EPW11378   6.209   4.918   7.045 -0.0290  0.0202 -0.5732
 2665WAT      O11379   1.034   2.911   4.644 -0.1249 -0.4329  0.1300
 2665WAT     H111380   0.983   2.869   4.587 -0.4726  0.7892 -0.5084
 2665WAT     H211381   1.086   2.849   4.675 -0.7181 -1.3509 -0.6574
 2665WAT    EPW11382   1.035   2.896   4.640 -0.2639 -0.3879 -0.0806
 2666WAT      O11383   4.436   4.612   0.150 -0.5355 -0.3255 -0.0335
 2666WAT     H111384   4.374   4.665   0.180  1.1407  1.6098  0.2928
 2666WAT     H211385   4.503   4.666   0.135  0.8711 -2.2004 -0.9483
 2666WAT    EPW11386   4.437   4.628   0.152 -0.0801 -0.3165 -0.1204
 2667WAT      O11387   2.714   2.296   3.657  0.3892 -0.3021  0.1869
 2667WAT     H111388   2.786   2.261   3.622  1.7955  1.6699  0.9153
 2667WAT     H211389   2.714   2.265   3.739  1.3534  0.9180  0.6781
 2667WAT    EPW11390   2.725   2.286   3.664  0.7394  0.1694  0.3670
 2668WAT      O11391   2.872   6.784   6.694  0.5158 -0.2308  0.3304
 2668WAT     H111392   2.808   6.744   6.651  1.4665 -0.3930 -1.0012
 2668WAT     H211393   2.865   6.753   6.775  0.1958 -1.8322 -0.2747
 2668WAT    EPW11394   2.862   6.774   6.700  0.6090 -0.4913  0.0443
 2669WAT      O11395   5.954   2.258   6.864 -0.1886 -0.1246 -0.1251
 2669WAT     H111396   6.009   2.264   6.931 -0.4258 -1.5780  0.2401
 2669WAT     H211397   5.888   2.310   6.886  0.1314  0.0798  0.3682
 2669WAT    EPW11398   5.953   2.267   6.877 -0.1763 -0.3091  0.0018
 2670WAT      O11399   6.934   6.602   6.718 -0.1260  0.4614 -0.0789
 2670WAT     H111400   6.944   6.528   6.762 -0.9360 -1.1822 -2.4871
 2670WAT     H211401   7.015   6.622   6.692 -0.2714 -1.7221 -2.5499
 2670WAT    EPW11402   6.947   6.594   6.721 -0.2671 -0.1039 -0.7996
 2671WAT      O11403   7.175   5.667   6.665 -0.0660 -0.4392  0.6071
 2671WAT     H111404   7.244   5.677   6.613 -0.5689  0.4520  0.0620
 2671WAT     H211405   7.202   5.612   6.727  1.1098 -0.1312  0.3850
 2671WAT    EPW11406   7.189   5.661   6.666  0.0334 -0.2621  0.4937
 2672WAT      O11407   1.654   5.929   0.119  0.6122 -0.1171 -0.2148
 2672WAT     H111408   1.573   5.960   0.133  0.9220  1.0431 -0.8323
 2672WAT     H211409   1.648   5.894   0.039  0.9148  0.7660 -0.6435
 2672WAT    EPW11410   1.641   5.929   0.109  0.7026  0.1847 -0.3693
 2673WAT      O11411   1.826   6.104   1.006  0.2660 -0.3158  0.0913
 2673WAT     H111412   1.774   6.054   1.055  1.7775  0.3324  2.5417
 2673WAT     H211413   1.900   6.057   1.000  0.9343  0.6319  0.5508
 2673WAT    EPW11414   1.829   6.090   1.012  0.5880 -0.0801  0.5211
 2674WAT      O11415   5.995   1.607   5.007  0.1762 -0.3993  0.5563
 2674WAT     H111416   6.068   1.617   5.054 -0.1708  0.3448  0.9588
 2674WAT     H211417   5.958   1.536   5.041  0.3675 -0.3690  0.8340
 2674WAT    EPW11418   6.000   1.598   5.019  0.1532 -0.2849  0.6567
 2675WAT      O11419   4.358   1.460   5.739 -0.0577  0.3846  0.4352
 2675WAT     H111420   4.293   1.506   5.705 -0.6230 -0.1887  0.7262
 2675WAT     H211421   4.329   1.377   5.736  0.1563  0.2449  1.6484
 2675WAT    EPW11422   4.344   1.454   5.734 -0.1096  0.2793  0.6574
 2676WAT      O11423   2.704   0.023   1.238 -0.7151  0.1879  0.5090
 2676WAT     H111424   2.707  -0.028   1.167  0.2124 -0.9945  1.3619
 2676WAT     H211425   2.760   0.087   1.221  2.8915 -2.3356  1.7597
 2676WAT    EPW11426   2.713   0.025   1.225 -0.0453 -0.3596  0.8197
 2677WAT      O11427   6.189   6.053   5.815  0.0892 -0.4756  0.4407
 2677WAT     H111428   6.129   6.041   5.877  1.1382 -0.6233  1.4491
 2677WAT     H211429   6.197   5.974   5.779 -1.1170 -0.2139 -0.4852
 2677WAT    EPW11430   6.181   6.039   5.819  0.0660 -0.4588  0.4529
 2678WAT      O11431   3.126   6.320   1.413 -0.1066 -0.2702  0.1294
 2678WAT     H111432   3.090   6.399   1.402  0.7889 -0.0733 -1.8967
 2678WAT     H211433   3.073   6.281   1.470 -0.3663  1.9046  1.5088
 2678WAT    EPW11434   3.113   6.326   1.420 -0.0127  0.0802  0.0338
 2679WAT      O11435   6.619   5.206   5.976 -0.8307 -0.9447 -0.5951
 2679WAT     H111436   6.653   5.239   5.903  1.0370 -1.6203 -0.1060
 2679WAT     H211437   6.541   5.177   5.952  0.4059 -2.7710 -2.8300
 2679WAT    EPW11438   6.613   5.206   5.962 -0.3721 -1.3143 -0.8530
 2680WAT      O11439   6.036   5.246   3.110 -0.0490  0.4277  0.2994
 2680WAT     H111440   6.058   5.330   3.098 -0.9848  0.7045  0.4550
 2680WAT     H211441   5.955   5.241   3.078  0.1604 -0.5275 -0.1107
 2680WAT    EPW11442   6.027   5.258   3.104 -0.1563  0.3275  0.2618
 2681WAT      O11443   1.565   5.324   2.680  0.1991  0.4095  0.5608
 2681WAT     H111444   1.554   5.250   2.634  0.3064  0.2952  0.7200
 2681WAT     H211445   1.486   5.338   2.715 -0.4533  1.5402 -1.2006
 2681WAT    EPW11446   1.552   5.315   2.678  0.1186  0.5597  0.3241
 2682WAT      O11447   0.613   3.521   6.098 -0.5270  0.1427  0.1210
 2682WAT     H111448   0.659   3.578   6.145  0.7098 -0.9127  0.2320
 2682WAT     H211449   0.668   3.455   6.085 -1.9001 -1.0412 -0.0121
 2682WAT    EPW11450   0.628   3.519   6.103 -0.5471 -0.1881  0.1177
 2683WAT      O11451   0.515   2.197   6.675 -0.1293 -0.3472  0.4011
 2683WAT     H111452   0.503   2.248   6.745  0.4664 -1.8839  1.6669
 2683WAT     H211453   0.534   2.119   6.709 -0.8641 -1.4120 -1.4746
 2683WAT    EPW11454   0.516   2.193   6.691 -0.1499 -0.7315  0.3110
 2684WAT      O11455   6.270   6.827   4.010  0.5902 -0.9775 -0.2577
 2684WAT     H111456   6.214   6.844   3.945 -0.2062 -1.2674  0.3270
 2684WAT     H211457   6.217   6.810   4.078  1.3527 -2.6724 -0.0303
 2684WAT    EPW11458   6.254   6.827   4.011  0.5852 -1.2707 -0.1377
 2685WAT      O11459   0.203   3.078   6.349  0.4077  0.1159  0.8909
 2685WAT     H111460   0.126   3.111   6.326  1.3519  3.0620  1.6131
 2685WAT     H211461   0.225   3.029   6.280 -1.0217  1.1261 -0.3594
 2685WAT    EPW11462   0.195   3.075   6.335  0.3360  0.7004  0.8129
 2686WAT      O11463   5.962   5.133   3.664  0.4432  0.4238 -0.5113
 2686WAT     H111464   6.011   5.068   3.635  1.2508  0.7719  0.0524
 2686WAT     H211465   5.909   5.095   3.722 -0.1074  0.0139 -1.2680
 2686WAT    EPW11466   5.961   5.118   3.668  0.4811  0.4147 -0.5398
 2687WAT      O11467   4.831   2.645   6.621  0.0529 -0.0498  0.5168
 2687WAT     H111468   4.805   2.690   6.691  0.2922  0.7102  0.1195
 2687WAT     H211469   4.834   2.704   6.558  0.4672 -0.6063  0.0036
 2687WAT    EPW11470   4.827   2.660   6.622  0.1494 -0.0197  0.3823
 2688WAT      O11471   5.462   2.158   2.560  0.3252  0.3705  0.4066
 2688WAT     H111472   5.463   2.245   2.564  0.5532  0.4085 -0.2996
 2688WAT     H211473   5.523   2.139   2.501  1.0038 -0.3287  1.3040
 2688WAT    EPW11474   5.471   2.168   2.552  0.4591  0.2728  0.4348
 2689WAT      O11475   3.676   4.261   0.385 -0.1676  0.9523 -0.5874
 2689WAT     H111476   3.647   4.181   0.366 -0.6806  1.1142 -0.5035
 2689WAT     H211477   3.760   4.259   0.361 -0.3106  0.5493 -1.0612
 2689WAT    EPW11478   3.684   4.249   0.379 -0.2645  0.9167 -0.6450
 2690WAT      O11479   1.234   3.247   2.417 -0.2596 -0.2932 -0.1819
 2690WAT     H111480   1.162   3.218   2.456 -1.8677  0.4361 -2.4206
 2690WAT     H211481   1.242   3.194   2.348 -0.2645  1.2904 -1.4607
 2690WAT    EPW11482   1.225   3.235   2.413 -0.4979  0.0485 -0.7015
 2691WAT      O11483   2.084   1.310   2.407  0.3984 -0.1440 -0.0524
 2691WAT     H111484   2.049   1.254   2.350 -1.7127  0.2014  0.7918
 2691WAT     H211485   2.105   1.259   2.475  3.1488 -0.5967 -1.1049
 2691WAT    EPW11486   2.082   1.294   2.409  0.4928 -0.1598 -0.0832
 2692WAT      O11487   0.518   2.255   5.502 -0.1196  0.5922 -0.3490
 2692WAT     H111488   0.465   2.292   5.444  1.1523 -0.3315 -2.2116
 2692WAT     H211489   0.584   2.312   5.509  0.3741  0.0971 -0.8744
 2692WAT    EPW11490   0.520   2.269   5.495  0.1412  0.3826 -0.7018
 2693WAT      O11491   0.554   0.799   1.447  0.1508  0.0032  0.3923
 2693WAT     H111492   0.529   0.826   1.368  0.2041 -1.1907 -0.0573
 2693WAT     H211493   0.482   0.807   1.495  0.3136  1.4600  0.4488
 2693WAT    EPW11494   0.540   0.804   1.442  0.1827  0.0420  0.3342
 2694WAT      O11495   1.561   6.573   0.413 -0.4133 -0.0287  0.5100
 2694WAT     H111496   1.611   6.610   0.352 -0.2957  0.2766  0.7913
 2694WAT     H211497   1.601   6.593   0.487 -0.3686 -0.6840  0.6747
 2694WAT    EPW11498   1.575   6.581   0.415 -0.3893 -0.0804  0.5759
 2695WAT      O11499   5.458   1.917   2.839 -0.2060 -0.1725  0.2948
 2695WAT     H111500   5.485   1.993   2.873 -0.3751  0.1306 -0.2268
 2695WAT     H211501   5.506   1.909   2.767 -0.0539 -0.6626  0.4472
 2695WAT    EPW11502   5.469   1.927   2.834 -0.2085 -0.2001  0.2402
 2696WAT      O11503   4.886   6.600   0.926 -0.0781 -0.5377 -0.4513
 2696WAT     H111504   4.855   6.567   0.851 -1.2037  0.3158 -0.3881
 2696WAT     H211505   4.837   6.671   0.938  1.6201  0.6338 -0.1047
 2696WAT    EPW11506   4.874   6.606   0.917  0.0065 -0.2386 -0.3908
 2697WAT      O11507   4.870   3.862   2.538  0.0049  0.3457  0.7708
 2697WAT     H111508   4.819   3.924   2.573 -1.2880  0.5258 -1.2661
 2697WAT     H211509   4.855   3.793   2.589 -1.3859  0.7202  0.9190
 2697WAT    EPW11510   4.860   3.861   2.551 -0.3916  0.4276  0.4918
 2698WAT      O11511   1.566   7.019   5.819  0.0380  0.0977  0.0505
 2698WAT     H111512   1.605   7.014   5.741  0.8340  2.1246  0.2575
 2698WAT     H211513   1.528   7.098   5.819 -1.3654 -0.5210  1.1103
 2698WAT    EPW11514   1.566   7.030   5.808 -0.0517  0.3057  0.2376
 2699WAT      O11515   1.648   4.420   6.042 -0.4959  0.8377 -0.2721
 2699WAT     H111516   1.570   4.410   6.078 -0.5051 -2.1626 -0.8924
 2699WAT     H211517   1.660   4.347   5.996  2.7544  1.0261 -0.0230
 2699WAT    EPW11518   1.638   4.408   6.041 -0.0171  0.4223 -0.3270
 2700WAT      O11519   5.147   4.580   5.307  0.5755  0.7601  0.4432
 2700WAT     H111520   5.135   4.512   5.360  2.0200  0.5193  0.5169
 2700WAT     H211521   5.074   4.626   5.315  0.6978  0.6686  2.5531
 2700WAT    EPW11522   5.135   4.577   5.316  0.8070  0.7110  0.7657
 2701WAT      O11523   7.177   7.220   1.733  0.6370  0.1371 -0.1136
 2701WAT     H111524   7.181   7.243   1.817  0.8266  0.8400 -0.3077
 2701WAT     H211525   7.097   7.243   1.708 -0.2124 -2.0463  0.4120
 2701WAT    EPW11526   7.166   7.227   1.742  0.5395 -0.0816 -0.0646
 2702WAT      O11527   0.487   0.186   6.871  0.2017 -0.7644  0.2099
 2702WAT     H111528   0.571   0.209   6.867  0.0205 -0.0957  0.1120
 2702WAT     H211529   0.481   0.141   6.945  0.3974  0.2591  0.8647
 2702WAT    EPW11530   0.499   0.183   6.881  0.2039 -0.5145  0.2922
 2703WAT      O11531   3.243   0.838   3.723  0.2362  0.0443 -0.5109
 2703WAT     H111532   3.268   0.800   3.797 -0.8381 -0.7392 -0.5324
 2703WAT     H211533   3.299   0.905   3.714  2.3038 -1.5998 -0.5628
 2703WAT    EPW11534   3.255   0.842   3.732  0.3829 -0.3143 -0.5217
 2704WAT      O11535   6.310   6.649   3.732  0.0543  0.2917  0.6615
 2704WAT     H111536   6.252   6.588   3.708  0.5728 -0.2460  0.7633
 2704WAT     H211537   6.260   6.719   3.747 -0.4745  0.1148 -0.1745
 2704WAT    EPW11538   6.294   6.650   3.730  0.0528  0.1861  0.5530
 2705WAT      O11539   2.286   6.732   1.695 -0.7525  0.2827 -0.2328
 2705WAT     H111540   2.260   6.650   1.688  1.6708 -0.5866  0.0300
 2705WAT     H211541   2.297   6.758   1.613  1.8728 -0.9182 -0.3478
 2705WAT    EPW11542   2.284   6.724   1.682 -0.0067 -0.0231 -0.2110
 2706WAT      O11543   2.381   6.706   2.026  0.1425  0.0899 -0.6750
 2706WAT     H111544   2.320   6.769   2.027  0.2306  0.1785 -0.0833
 2706WAT     H211545   2.455   6.750   2.042  0.4697  0.0757 -2.0869
 2706WAT    EPW11546   2.383   6.722   2.029  0.2038  0.1009 -0.7962
 2707WAT      O11547   1.117   4.578   2.512 -0.0671  0.3692 -0.4503
 2707WAT     H111548   1.127   4.580   2.425  1.1099 -1.1653 -0.3930
 2707WAT     H211549   1.187   4.536   2.540 -1.7982 -1.7869  1.0027
 2707WAT    EPW11550   1.128   4.572   2.503 -0.1489 -0.1760 -0.2272
 2708WAT      O11551   5.055   2.841   5.108  0.4922  0.2519  0.0284
 2708WAT     H111552   5.045   2.882   5.184  1.7803  1.3780 -0.3553
 2708WAT     H211553   5.138   2.858   5.087  1.4703 -3.3825  0.2786
 2708WAT    EPW11554   5.066   2.850   5.116  0.8270 -0.1187  0.0087
 2709WAT      O11555   0.906   0.744   0.202  0.3766  0.2215  0.0939
 2709WAT     H111556   0.932   0.827   0.210  0.5536  0.1364  0.4423
 2709WAT     H211557   0.932   0.722   0.122  1.9165 -0.0410  0.6297
 2709WAT    EPW11558   0.914   0.753   0.192  0.6302  0.1701  0.2245
 2710WAT      O11559   2.810   3.156   2.499 -0.1110  0.2325  0.5059
 2710WAT     H111560   2.736   3.120   2.528  0.3177  0.1079  1.4787
 2710WAT     H211561   2.813   3.233   2.538 -0.6846  1.0961 -1.0548
 2710WAT    EPW11562   2.800   3.162   2.509 -0.1324  0.3417  0.4190
 2711WAT      O11563   1.888   3.895   3.102 -0.0455 -0.1423 -0.0112
 2711WAT     H111564   1.839   3.932   3.040 -0.0662  0.8638  0.5839
 2711WAT     H211565   1.877   3.809   3.089 -0.1523  0.0526 -1.3033
 2711WAT    EPW11566   1.879   3.888   3.091 -0.0644  0.0351 -0.1141
 2712WAT      O11567   2.339   0.436   3.786  0.0267 -0.2189 -0.4540
 2712WAT     H111568   2.276   0.412   3.730 -2.2222  0.5706  1.5586
 2712WAT     H211569   2.378   0.503   3.745 -1.4304  0.2270 -1.1898
 2712WAT    EPW11570   2.335   0.442   3.772 -0.5208 -0.0364 -0.2654
 2713WAT      O11571   3.451   4.047   0.799  0.0091 -0.1524 -0.0411
 2713WAT     H111572   3.466   4.130   0.781  1.5958 -0.3489  0.2895
 2713WAT     H211573   3.385   4.050   0.857  0.1419  0.8609  0.0595
 2713WAT    EPW11574   3.443   4.060   0.805  0.2631 -0.0318  0.0226
 2714WAT      O11575   1.815   0.519   2.390 -0.7411 -0.6297  0.5763
 2714WAT     H111576   1.825   0.446   2.344  1.7308  0.4600 -0.8296
 2714WAT     H211577   1.728   0.530   2.393 -1.1936 -3.6448  1.0262
 2714WAT    EPW11578   1.804   0.510   2.384 -0.4428 -0.9141  0.4351
 2715WAT      O11579   5.930   2.925   1.781  0.0433  0.2095 -0.3555
 2715WAT     H111580   5.875   2.898   1.719 -0.8991 -1.1038  0.9672
 2715WAT     H211581   5.926   3.012   1.776 -1.7475  0.1447 -0.6682
 2715WAT    EPW11582   5.921   2.934   1.771 -0.3605  0.0059 -0.2063
 2716WAT      O11583   6.520   1.208   1.009  0.2236 -0.1629  0.1698
 2716WAT     H111584   6.455   1.217   1.066  1.5775  0.6122  1.6954
 2716WAT     H211585   6.480   1.186   0.934 -1.9457  2.1603  0.5172
 2716WAT    EPW11586   6.505   1.206   1.006  0.1032  0.2948  0.4465
 2717WAT      O11587   5.209   7.083   4.847  0.1539 -0.5737  0.3087
 2717WAT     H111588   5.285   7.046   4.825  1.9996  2.8797  0.2141
 2717WAT     H211589   5.156   7.061   4.782  1.8567 -0.9445 -1.0373
 2717WAT    EPW11590   5.212   7.074   4.834  0.6780 -0.1184  0.0959
 2718WAT      O11591   5.589   4.172   4.467  0.0987 -0.2343  1.1760
 2718WAT     H111592   5.513   4.168   4.424  1.8037 -1.9388 -2.1166
 2718WAT     H211593   5.574   4.129   4.542 -1.7851 -2.1880 -0.2126
 2718WAT    EPW11594   5.576   4.165   4.472  0.0723 -0.7747  0.4845
 2719WAT      O11595   0.313   1.334   4.840  0.3439  0.1851  0.5950
 2719WAT     H111596   0.378   1.391   4.854  1.2379 -0.5049 -0.5728
 2719WAT     H211597   0.263   1.375   4.782  0.8882 -0.1119 -0.1044
 2719WAT    EPW11598   0.316   1.348   4.834  0.5564  0.0393  0.3192
 2720WAT      O11599   4.317   0.799   4.566 -0.0115 -0.5447  0.3615
 2720WAT     H111600   4.254   0.758   4.611 -0.3910  0.2847  0.6081
 2720WAT     H211601   4.356   0.848   4.627  1.2140 -1.4234  0.3178
 2720WAT    EPW11602   4.313   0.800   4.582  0.1135 -0.5520  0.3915
 2721WAT      O11603   0.605   3.736   2.098  0.1742 -0.8405  0.4546
 2721WAT     H111604   0.579   3.719   2.180  1.4699 -0.7432  0.9161
 2721WAT     H211605   0.608   3.823   2.096 -0.8579 -0.8023 -0.0492
 2721WAT    EPW11606   0.602   3.746   2.110  0.2131 -0.8205  0.4484
 2722WAT      O11607   6.857   4.669   3.714 -0.1081 -0.2962  0.6440
 2722WAT     H111608   6.826   4.631   3.642  0.3562 -0.1293  0.3484
 2722WAT     H211609   6.804   4.737   3.726 -0.1937 -0.3304  0.4647
 2722WAT    EPW11610   6.845   4.673   3.705 -0.0521 -0.2766  0.5738
 2723WAT      O11611   4.308   0.983   2.509 -0.2365 -0.0653  0.3008
 2723WAT     H111612   4.253   1.048   2.488  1.2828  0.6367 -1.7891
 2723WAT     H211613   4.354   1.016   2.575  0.4161  1.0051 -0.6393
 2723WAT    EPW11614   4.306   0.997   2.516  0.0843  0.1965 -0.1468
 2724WAT      O11615   5.049   5.438   5.084  0.1623  0.0506 -0.0040
 2724WAT     H111616   5.099   5.369   5.100 -2.0673 -1.3881  1.3118
 2724WAT     H211617   4.978   5.404   5.047 -1.1258  1.5858  0.9300
 2724WAT    EPW11618   5.046   5.423   5.081 -0.3574  0.0648  0.3283
 2725WAT      O11619   3.400   1.473   6.791 -0.1156  0.3703  0.5382
 2725WAT     H111620   3.453   1.462   6.860 -0.8709  1.1066  1.2627
 2725WAT     H211621   3.386   1.559   6.790  0.1903  0.4300 -0.7900
 2725WAT    EPW11622   3.406   1.484   6.801 -0.1820  0.4879  0.4490
 2726WAT      O11623   6.004   0.100   1.499 -0.1393 -0.1344 -0.5843
 2726WAT     H111624   5.936   0.087   1.553  0.9435 -0.6422  0.7043
 2726WAT     H211625   6.003   0.030   1.448 -0.4739 -0.2229 -0.4611
 2726WAT    EPW11626   5.994   0.088   1.499 -0.0288 -0.2225 -0.3757
 2727WAT      O11627   0.786   1.768   0.036 -0.2762 -0.0472  0.8723
 2727WAT     H111628   0.849   1.746  -0.019 -0.9915  0.5420 -0.2159
 2727WAT     H211629   0.735   1.821  -0.011 -0.9928  0.3454  2.0542
 2727WAT    EPW11630   0.788   1.772   0.021 -0.4877  0.0978  0.8861
 2728WAT      O11631   2.825   6.475   4.767  0.2020 -0.0874  0.0523
 2728WAT     H111632   2.868   6.400   4.757  0.7946  0.4192 -1.7694
 2728WAT     H211633   2.845   6.500   4.848  1.8385 -0.7902 -0.0972
 2728WAT    EPW11634   2.835   6.468   4.777  0.5313 -0.1164 -0.2389
 2729WAT      O11635   6.984   6.996   1.196  0.1496 -0.1879 -0.6529
 2729WAT     H111636   7.049   6.993   1.253 -1.8778  2.0992  2.0885
 2729WAT     H211637   6.996   7.073   1.156 -1.0882  0.5941  0.3725
 2729WAT    EPW11638   6.995   7.007   1.198 -0.3328  0.2655 -0.0965
 2730WAT      O11639   3.034   6.729   6.409  0.2180  0.1666 -0.6463
 2730WAT     H111640   3.055   6.701   6.490  0.3734 -0.1184 -0.7824
 2730WAT     H211641   3.022   6.655   6.365 -0.6558  0.3319 -0.6860
 2730WAT    EPW11642   3.035   6.714   6.415  0.1119  0.1489 -0.6723
 2731WAT      O11643   1.304   5.146   7.184  0.0021 -0.2266 -0.2071
 2731WAT     H111644   1.288   5.072   7.227  0.7036  0.5564  1.4777
 2731WAT     H211645   1.336   5.119   7.108  0.5578 -1.6605  0.5007
 2731WAT    EPW11646   1.306   5.131   7.179  0.1878 -0.3228  0.1463
 2732WAT      O11647   5.580   0.061   2.987  0.1249  0.6503  0.0863
 2732WAT     H111648   5.504   0.087   3.020  0.3545  0.1136  1.0831
 2732WAT     H211649   5.603  -0.007   3.038  1.3419  0.8939 -0.0915
 2732WAT    EPW11650   5.572   0.055   2.999  0.3386  0.6070  0.2073
 2733WAT      O11651   2.685   1.807   6.820  0.1338  0.0407 -0.0487
 2733WAT     H111652   2.676   1.772   6.741 -0.7898 -1.8646  0.8100
 2733WAT     H211653   2.771   1.805   6.834  0.3009  0.4332 -1.0166
 2733WAT    EPW11654   2.696   1.801   6.811  0.0220 -0.1828 -0.0648
 2734WAT      O11655   1.626   4.588   0.882  0.0742  0.2935 -0.4900
 2734WAT     H111656   1.658   4.571   0.803 -0.8043  2.2494 -1.3177
 2734WAT     H211657   1.542   4.566   0.875  0.1213 -0.1085  0.1148
 2734WAT    EPW11658   1.618   4.582   0.869 -0.0486  0.5231 -0.5230
 2735WAT      O11659   6.865   2.004   4.330  0.3065  0.0834 -0.6466
 2735WAT     H111660   6.874   2.085   4.300 -1.3974  0.2259 -0.8752
 2735WAT     H211661   6.792   1.976   4.292  0.8237 -1.5447 -0.5214
 2735WAT    EPW11662   6.856   2.012   4.320  0.1312 -0.1361 -0.6619
 2736WAT      O11663   4.769   5.480   0.722 -0.5932  0.1367  0.2625
 2736WAT     H111664   4.822   5.532   0.768  1.0400 -2.7459  1.9615
 2736WAT     H211665   4.820   5.454   0.655 -1.4284  0.7313 -0.6350
 2736WAT    EPW11666   4.784   5.484   0.719 -0.4753 -0.2013  0.3809
 2737WAT      O11667   5.265   2.691   1.488  0.3870  0.4544  0.1107
 2737WAT     H111668   5.342   2.654   1.474  0.0524 -0.7607  1.2493
 2737WAT     H211669   5.219   2.670   1.417  1.0695  1.1839 -0.5718
 2737WAT    EPW11670   5.269   2.683   1.475  0.4384  0.3827  0.1781
 2738WAT      O11671   6.631   2.668   2.345 -0.1763  0.7548  0.2908
 2738WAT     H111672   6.560   2.719   2.345  0.2994  1.5309 -2.1829
 2738WAT     H211673   6.606   2.598   2.300  0.7801  1.3779 -1.2958
 2738WAT    EPW11674   6.617   2.665   2.338  0.0352  0.9615 -0.3090
 2739WAT      O11675   2.878   1.624   4.993  0.2504 -0.1232 -0.3132
 2739WAT     H111676   2.931   1.586   4.935  0.2756  1.5233 -1.4185
 2739WAT     H211677   2.893   1.579   5.066  0.5590 -1.9630 -1.4385
 2739WAT    EPW11678   2.888   1.612   4.995  0.2997 -0.1518 -0.6427
 2740WAT      O11679   3.943   4.816   3.381 -0.3946 -0.0686 -0.0606
 2740WAT     H111680   4.004   4.805   3.442 -1.1361 -4.1842  0.2588
 2740WAT     H211681   3.880   4.860   3.422  1.0507  1.5856  0.5083
 2740WAT    EPW11682   3.943   4.821   3.396 -0.2906 -0.4322  0.0706
 2741WAT      O11683   7.034   1.358   1.172  0.4344 -0.4703  0.0617
 2741WAT     H111684   7.045   1.332   1.254  1.4382  1.0189  0.4409
 2741WAT     H211685   6.948   1.362   1.163  0.2892 -1.7244  0.6583
 2741WAT    EPW11686   7.023   1.355   1.183  0.5613 -0.4356  0.2059
 2742WAT      O11687   6.230   0.204   1.148 -0.0903  0.1984  0.0171
 2742WAT     H111688   6.165   0.179   1.097  0.2308  0.1673 -0.3841
 2742WAT     H211689   6.273   0.129   1.165  0.0426  0.2677 -0.0085
 2742WAT    EPW11690   6.227   0.189   1.143 -0.0232  0.2041 -0.0459
 2743WAT      O11691   0.678   5.405   7.117 -0.2478 -0.2831 -0.1932
 2743WAT     H111692   0.714   5.459   7.175 -0.6841  1.2275 -1.2892
 2743WAT     H211693   0.653   5.337   7.166 -1.1659  1.1916  1.5067
 2743WAT    EPW11694   0.680   5.403   7.133 -0.4479  0.1579 -0.1040
 2744WAT      O11695   2.317   3.530   5.686 -0.4975 -0.4148 -0.1682
 2744WAT     H111696   2.292   3.492   5.761  0.1498  0.7160  0.6394
 2744WAT     H211697   2.403   3.540   5.696 -0.5883  0.8238 -0.5626
 2744WAT    EPW11698   2.326   3.526   5.699 -0.4153 -0.0648 -0.1072
 2745WAT      O11699   0.533   1.912   3.986 -0.3824  0.1096  0.4811
 2745WAT     H111700   0.553   1.829   4.004 -0.4588 -0.2346 -0.9076
 2745WAT     H211701   0.467   1.906   3.930  1.1602  0.9858 -1.5743
 2745WAT    EPW11702   0.526   1.899   3.980 -0.1658  0.1882 -0.0277
 2746WAT      O11703   6.991   7.024   5.390 -0.5319 -0.5793 -0.1842
 2746WAT     H111704   7.035   7.076   5.445  0.0872 -0.4248 -0.8111
 2746WAT     H211705   6.927   6.992   5.439 -1.3700  1.3307  0.0583
 2746WAT    EPW11706   6.988   7.027   5.405 -0.5642 -0.2743 -0.2410
 2747WAT      O11707   1.560   1.147   4.762 -0.3316  0.3946  0.2498
 2747WAT     H111708   1.543   1.188   4.837  0.4661  0.3604  0.4643
 2747WAT     H211709   1.617   1.200   4.723  1.3467 -0.8348  0.8920
 2747WAT    EPW11710   1.566   1.161   4.768  0.0342  0.2079  0.3763
 2748WAT      O11711   3.739   1.693   1.585  0.0468 -0.0631 -0.3597
 2748WAT     H111712   3.760   1.673   1.503  0.8579  1.1199 -0.4803
 2748WAT     H211713   3.782   1.768   1.598  0.2516 -0.4330  1.2718
 2748WAT    EPW11714   3.749   1.701   1.575  0.1969  0.0570 -0.1365
 2749WAT      O11715   7.256   7.019   1.311 -0.3828 -0.6773 -0.0650
 2749WAT     H111716   7.310   6.951   1.299  0.6761  0.0581  0.3441
 2749WAT     H211717   7.295   7.083   1.266 -1.5469 -0.4141 -0.7388
 2749WAT    EPW11718   7.270   7.018   1.302 -0.3984 -0.5298 -0.1041
 2750WAT      O11719   6.877   6.083   2.961  0.1644 -0.4604  0.4135
 2750WAT     H111720   6.925   6.013   2.980 -1.3703 -1.4063  0.9811
 2750WAT     H211721   6.841   6.062   2.884  2.9710  1.5557 -1.6988
 2750WAT    EPW11722   6.879   6.070   2.952  0.3523 -0.3023  0.1854
 2751WAT      O11723   6.212   1.279   3.844 -0.0150  0.1234  0.4123
 2751WAT     H111724   6.274   1.259   3.902 -1.1726  0.1958  1.7215
 2751WAT     H211725   6.172   1.202   3.832 -1.3420  0.5882  1.6480
 2751WAT    EPW11726   6.216   1.264   3.851 -0.3820  0.2027  0.7882
 2752WAT      O11727   3.307   6.137   7.009  0.4159  0.2158 -0.2638
 2752WAT     H111728   3.281   6.163   6.930  1.9596  2.1371 -0.2175
 2752WAT     H211729   3.336   6.055   6.995 -0.3532  0.1220 -1.4291
 2752WAT    EPW11730   3.307   6.129   6.995  0.5303  0.4857 -0.4291
 2753WAT      O11731   5.045   2.019   3.651 -0.4944 -0.0949 -0.7475
 2753WAT     H111732   5.053   2.050   3.732  0.4153 -0.3392 -0.7387
 2753WAT     H211733   5.122   1.982   3.635 -1.3720 -1.9177 -0.9554
 2753WAT    EPW11734   5.057   2.018   3.660 -0.4896 -0.4003 -0.7769
 2754WAT      O11735   4.403   3.272   1.701 -0.1092 -0.6080  0.1081
 2754WAT     H111736   4.445   3.305   1.770  0.2054 -1.8622  0.5454
 2754WAT     H211737   4.330   3.320   1.697  0.9417  1.0851 -0.1819
 2754WAT    EPW11738   4.399   3.284   1.710  0.0925 -0.5432  0.1298
 2755WAT      O11739   6.811   3.089   1.173  0.2058 -0.4115  0.3240
 2755WAT     H111740   6.803   3.134   1.247  2.0075  0.3898  0.1080
 2755WAT     H211741   6.775   3.141   1.113  3.4268  1.5691 -0.1426
 2755WAT    EPW11742   6.805   3.104   1.175  0.9477 -0.0006  0.2231
 2756WAT      O11743   5.398   6.570   1.523  0.1989  0.5638  0.1792
 2756WAT     H111744   5.385   6.656   1.517 -1.8922  0.3073  0.3264
 2756WAT     H211745   5.385   6.552   1.607  0.7241  0.1036  0.1737
 2756WAT    EPW11746   5.394   6.580   1.534 -0.0324  0.4579  0.2001
 2757WAT      O11747   2.917   0.730   2.367 -0.4694 -0.0102 -0.0314
 2757WAT     H111748   2.885   0.790   2.422 -1.4707 -1.8935  1.5637
 2757WAT     H211749   2.982   0.694   2.413 -0.9454 -1.2290 -0.2706
 2757WAT    EPW11750   2.922   0.734   2.382 -0.6876 -0.4685  0.1689
 2758WAT      O11751   2.905   6.511   6.252  0.3987  0.2357 -0.1991
 2758WAT     H111752   2.946   6.462   6.192 -0.1475 -2.1458  1.2577
 2758WAT     H211753   2.823   6.484   6.248  0.4251 -0.2950  1.8773
 2758WAT    EPW11754   2.899   6.500   6.243  0.3219 -0.1945  0.3228
 2759WAT      O11755   3.202   0.371   3.367  0.0629 -0.3683 -0.0412
 2759WAT     H111756   3.165   0.419   3.430 -0.6142 -1.6506  0.5750
 2759WAT     H211757   3.167   0.403   3.294 -0.6963 -0.1917  0.3873
 2759WAT    EPW11758   3.191   0.383   3.366 -0.1493 -0.5317  0.1131
 2760WAT      O11759   4.994   6.736   3.168  0.4652  0.0780 -0.1374
 2760WAT     H111760   4.965   6.677   3.226  1.2802 -0.6317 -0.4331
 2760WAT     H211761   4.955   6.712   3.094 -0.0628  0.5917 -0.0357
 2760WAT    EPW11762   4.984   6.724   3.166  0.5076  0.0490 -0.1661
 2761WAT      O11763   2.906   3.105   3.265 -0.0696 -0.1192 -0.1977
 2761WAT     H111764   2.940   3.039   3.311 -0.9468 -0.7996 -0.4850
 2761WAT     H211765   2.877   3.160   3.326 -1.0489 -0.9182  0.0993
 2761WAT    EPW11766   2.907   3.103   3.281 -0.3438 -0.3377 -0.1963
 2762WAT      O11767   6.504   5.302   7.215  0.3108  0.1980 -0.2201
 2762WAT     H111768   6.428   5.261   7.208  0.2215  0.7245 -3.9615
 2762WAT     H211769   6.560   5.238   7.236 -0.2997 -1.4359 -3.0884
 2762WAT    EPW11770   6.501   5.287   7.217  0.2074  0.0344 -1.1965
 2763WAT      O11771   5.039   6.183   1.821  0.2721  0.3175  0.4082
 2763WAT     H111772   5.008   6.107   1.791 -0.2708  0.2390  1.1246
 2763WAT     H211773   5.025   6.178   1.907 -2.4897  2.4130  0.2212
 2763WAT    EPW11774   5.032   6.171   1.830 -0.2161  0.6155  0.4864
 2764WAT      O11775   1.587   5.935   4.242  0.2044 -0.2086 -0.2068
 2764WAT     H111776   1.557   5.854   4.242  2.0681 -0.9539  0.4181
 2764WAT     H211777   1.553   5.970   4.314 -0.0875 -0.6527 -0.1298
 2764WAT    EPW11778   1.578   5.928   4.253  0.4366 -0.3843 -0.1031
 2765WAT      O11779   5.969   5.682   3.323 -0.0578 -0.0176 -0.3334
 2765WAT     H111780   6.023   5.655   3.386  0.7094  1.6469 -0.2142
 2765WAT     H211781   5.985   5.767   3.318 -0.6112  0.0199 -2.3053
 2765WAT    EPW11782   5.979   5.690   3.331 -0.0262  0.2338 -0.6071
 2766WAT      O11783   0.404   1.293   3.622 -0.2030 -0.1912 -0.0895
 2766WAT     H111784   0.478   1.329   3.591 -0.3749  0.9224  0.7313
 2766WAT     H211785   0.394   1.221   3.573  0.3972  0.6468 -1.5104
 2766WAT    EPW11786   0.414   1.288   3.610 -0.1397  0.0971 -0.1781
 2767WAT      O11787   1.141   1.124   4.289 -0.4020  0.0250  0.0473
 2767WAT     H111788   1.086   1.097   4.227  0.3215  0.3418 -0.7587
 2767WAT     H211789   1.154   1.208   4.268 -0.4044  0.2273  0.8334
 2767WAT    EPW11790   1.135   1.133   4.276 -0.2955  0.1017  0.0444
 2768WAT      O11791   4.668   4.530   1.118 -0.0373 -0.1492 -0.1306
 2768WAT     H111792   4.683   4.600   1.168  0.2246 -2.1940  2.8579
 2768WAT     H211793   4.642   4.565   1.042 -1.3996  3.1638  1.6531
 2768WAT    EPW11794   4.666   4.545   1.114 -0.1998  0.0381  0.5744
 2769WAT      O11795   0.993   1.446   3.824  0.0295  0.4458 -0.2035
 2769WAT     H111796   1.048   1.514   3.817 -0.0853  0.6787  0.9211
 2769WAT     H211797   1.044   1.377   3.807  0.8128  0.6265  1.2060
 2769WAT    EPW11798   1.009   1.446   3.820  0.1283  0.5069  0.1708
 2770WAT      O11799   3.146   6.247   4.203 -0.0574 -0.0815  0.1079
 2770WAT     H111800   3.070   6.208   4.186 -0.3970 -0.5480  2.3797
 2770WAT     H211801   3.149   6.250   4.290  1.9468  1.1072  0.0709
 2770WAT    EPW11802   3.135   6.242   4.214  0.1885  0.0252  0.4380
 2771WAT      O11803   6.925   3.206   2.647 -0.0126 -0.2416 -0.5915
 2771WAT     H111804   6.904   3.190   2.730 -0.0142 -0.6563 -0.6717
 2771WAT     H211805   6.879   3.277   2.628 -0.2791 -0.3468 -0.3426
 2771WAT    EPW11806   6.915   3.214   2.656 -0.0522 -0.3184 -0.5666
 2772WAT      O11807   5.480   2.147   5.043 -0.0575  0.5763 -0.1340
 2772WAT     H111808   5.474   2.080   5.098  1.2304  0.7703  0.2746
 2772WAT     H211809   5.398   2.177   5.038 -0.6552 -1.0111 -0.3365
 2772WAT    EPW11810   5.467   2.142   5.050  0.0445  0.3705 -0.1035
 2773WAT      O11811   4.808   4.703   0.365  0.3348 -0.1085 -0.0355
 2773WAT     H111812   4.825   4.622   0.392 -2.3008 -0.4275  1.0204
 2773WAT     H211813   4.722   4.712   0.380  0.4709  2.8008 -0.3438
 2773WAT    EPW11814   4.798   4.693   0.371 -0.0344  0.2741  0.0749
 2774WAT      O11815   5.374   5.422   5.432 -0.2306 -0.3086 -0.1652
 2774WAT     H111816   5.368   5.362   5.495  2.7625 -2.2245 -1.4681
 2774WAT     H211817   5.451   5.461   5.448 -0.7246  1.1387 -1.0707
 2774WAT    EPW11818   5.384   5.419   5.444  0.1386 -0.3778 -0.4915
 2775WAT      O11819   5.542   0.871   4.924  0.7016  0.4311 -0.3612
 2775WAT     H111820   5.526   0.891   5.008  2.1588  0.0049  0.0344
 2775WAT     H211821   5.628   0.881   4.917  0.7979 -0.9768 -1.4284
 2775WAT    EPW11822   5.552   0.875   4.936  0.9311  0.1602 -0.4604
 2776WAT      O11823   4.659   5.556   5.726 -0.0601  0.3730 -0.3145
 2776WAT     H111824   4.609   5.490   5.752 -2.3048  1.9286 -0.4281
 2776WAT     H211825   4.676   5.599   5.799 -0.2311  0.7241 -0.4783
 2776WAT    EPW11826   4.654   5.553   5.740 -0.4169  0.6547 -0.3555
 2777WAT      O11827   5.227   0.598   2.236 -0.6761 -0.5533  0.2767
 2777WAT     H111828   5.155   0.643   2.259  0.5220  1.2244  0.7624
 2777WAT     H211829   5.198   0.546   2.172 -1.7481  2.7082 -2.2098
 2777WAT    EPW11830   5.212   0.597   2.230 -0.6575  0.1911 -0.0188
 2778WAT      O11831   7.088   2.890   6.695 -0.1251 -0.1670 -0.1778
 2778WAT     H111832   7.082   2.918   6.613 -0.6422  0.2694 -0.0009
 2778WAT     H211833   7.044   2.951   6.740  0.1019 -0.4327  0.4108
 2778WAT    EPW11834   7.081   2.903   6.690 -0.1679 -0.1418 -0.0648
 2779WAT      O11835   6.685   1.333   6.893  0.3147  0.1268  0.1313
 2779WAT     H111836   6.767   1.316   6.869  0.1930  0.6942 -0.7173
 2779WAT     H211837   6.654   1.381   6.828 -1.7457 -2.7287 -1.2365
 2779WAT    EPW11838   6.693   1.337   6.880 -0.0076 -0.2112 -0.1961
 2780WAT      O11839   0.746   6.713   3.465 -0.1595 -0.3419  0.1983
 2780WAT     H111840   0.662   6.731   3.479  0.3650  0.5753  2.6659
 2780WAT     H211841   0.765   6.759   3.393 -1.4776  0.2869  0.2158
 2780WAT    EPW11842   0.736   6.722   3.456 -0.2767 -0.1136  0.5654
 2781WAT      O11843   6.200   2.028   4.705  0.2972 -0.2876 -0.9680
 2781WAT     H111844   6.235   2.023   4.625  0.1085  0.9715 -1.1446
 2781WAT     H211845   6.221   2.108   4.731 -0.6889 -0.2525 -0.2433
 2781WAT    EPW11846   6.208   2.039   4.697  0.1236 -0.0964 -0.8870
 2782WAT      O11847   5.630   2.615   7.100  0.0677  0.4917 -0.3147
 2782WAT     H111848   5.572   2.558   7.130 -0.5466  0.8678 -0.7570
 2782WAT     H211849   5.704   2.593   7.141 -0.4467  0.1906  0.4724
 2782WAT    EPW11850   5.632   2.603   7.110 -0.0990  0.5028 -0.2638
 2783WAT      O11851   6.501   6.045   5.018  0.4585  0.5511  0.0421
 2783WAT     H111852   6.520   5.960   5.008 -1.1654  0.2325 -0.8323
 2783WAT     H211853   6.542   6.067   5.091  0.0279 -1.2996  0.9118
 2783WAT    EPW11854   6.510   6.036   5.027  0.1550  0.2307  0.0414
 2784WAT      O11855   4.399   1.841   7.222  0.2837 -0.1809  0.4086
 2784WAT     H111856   4.375   1.879   7.296  2.4658  0.1634  1.0083
 2784WAT     H211857   4.324   1.823   7.182 -0.8813  1.9036  1.5405
 2784WAT    EPW11858   4.385   1.844   7.227  0.4340  0.1779  0.6644
 2785WAT      O11859   2.519   3.588   6.928  0.0132  0.6436 -1.2829
 2785WAT     H111860   2.458   3.567   6.869  1.6207 -0.3867 -2.6733
 2785WAT     H211861   2.536   3.512   6.968  0.9877  0.7216 -1.5251
 2785WAT    EPW11862   2.512   3.573   6.925  0.3946  0.5029 -1.5241
 2786WAT      O11863   3.320   4.234   3.866  0.0588 -0.0867  0.5816
 2786WAT     H111864   3.344   4.174   3.925 -2.4115  0.1643  1.9575
 2786WAT     H211865   3.353   4.308   3.898  0.1352 -0.1996  0.7672
 2786WAT    EPW11866   3.329   4.236   3.880 -0.2948 -0.0663  0.8123
 2787WAT      O11867   4.163   6.939   2.608 -0.1414  0.8113  0.1101
 2787WAT     H111868   4.117   6.983   2.668  0.6495  0.8118  0.7304
 2787WAT     H211869   4.227   6.994   2.587 -1.1399  1.3441 -1.7342
 2787WAT    EPW11870   4.165   6.954   2.614 -0.1721  0.8901 -0.0707
 2788WAT      O11871   3.921   2.864   4.162 -0.2322 -0.0243  0.3921
 2788WAT     H111872   3.930   2.778   4.165  0.5631  0.0599  0.6776
 2788WAT     H211873   4.003   2.894   4.161 -0.4765  0.7555  1.4800
 2788WAT    EPW11874   3.934   2.856   4.163 -0.1508  0.1033  0.5950
 2789WAT      O11875   5.098   4.733   1.359  0.0717  0.3139 -0.0609
 2789WAT     H111876   5.108   4.764   1.279 -0.0635  0.2447 -0.1059
 2789WAT     H211877   5.125   4.798   1.411  2.3049 -0.4378 -0.1858
 2789WAT    EPW11878   5.103   4.747   1.355  0.3816  0.1926 -0.0860
 2790WAT      O11879   0.151   3.191   0.957  0.0453 -0.2617 -0.0546
 2790WAT     H111880   0.093   3.143   1.001 -0.0540  0.5670  0.7411
 2790WAT     H211881   0.130   3.273   0.978  1.4833  0.0571  0.2437
 2790WAT    EPW11882   0.139   3.196   0.967  0.2430 -0.0922  0.1070
 2791WAT      O11883   2.076   6.847   3.023  0.4970  0.1039  0.1529
 2791WAT     H111884   2.133   6.859   3.088  1.4328 -0.9104 -0.4566
 2791WAT     H211885   2.002   6.827   3.065  0.9648 -0.0538  0.9225
 2791WAT    EPW11886   2.073   6.846   3.039  0.7043 -0.0692  0.1765
 2792WAT      O11887   2.465   5.701   0.036 -0.1170 -0.0139  0.6355
 2792WAT     H111888   2.457   5.766   0.094 -0.1653  0.7490 -0.2092
 2792WAT     H211889   2.476   5.742  -0.040 -1.2653 -0.9754 -0.0856
 2792WAT    EPW11890   2.466   5.717   0.034 -0.2938 -0.0432  0.4042
 2793WAT      O11891   5.240   7.042   1.156  0.1411  0.1760 -0.0162
 2793WAT     H111892   5.277   6.965   1.174 -1.7590 -0.8694 -0.2632
 2793WAT     H211893   5.223   7.037   1.071  0.8873  1.3195 -0.2527
 2793WAT    EPW11894   5.243   7.030   1.146 -0.0293  0.1905 -0.0876
 2794WAT      O11895   3.009   6.510   2.773  0.4764 -0.0777  0.1737
 2794WAT     H111896   3.059   6.574   2.803 -1.4615  0.5631  2.3003
 2794WAT     H211897   2.956   6.550   2.716 -0.1277  0.0436  0.8130
 2794WAT    EPW11898   3.008   6.525   2.769  0.1009  0.0349  0.5823
 2795WAT      O11899   6.478   6.828   2.933 -0.3373  1.0559  0.3482
 2795WAT     H111900   6.561   6.819   2.956  0.6208  1.9792 -2.3678
 2795WAT     H211901   6.454   6.902   2.972  1.6759  3.3985 -2.4179
 2795WAT    EPW11902   6.487   6.837   2.942  0.1016  1.5383 -0.4616
 2796WAT      O11903   4.802   2.969   5.019 -0.1271 -0.2974 -0.0303
 2796WAT     H111904   4.875   2.929   5.044  0.1969  0.2922 -0.0177
 2796WAT     H211905   4.791   3.032   5.079  1.8270  2.5394 -2.3628
 2796WAT    EPW11906   4.811   2.972   5.032  0.2095  0.2087 -0.3730
 2797WAT      O11907   4.115   7.209   0.609 -0.3812  0.4986  0.4196
 2797WAT     H111908   4.094   7.271   0.552 -1.4218 -0.7532 -0.6246
 2797WAT     H211909   4.048   7.209   0.665  0.1961  1.1068  1.1245
 2797WAT    EPW11910   4.102   7.218   0.609 -0.4496  0.4035  0.3694
 2798WAT      O11911   3.921   5.958   0.826 -0.4273  0.2869 -0.4113
 2798WAT     H111912   3.877   5.914   0.887 -0.2408  1.7382  0.8121
 2798WAT     H211913   4.003   5.960   0.857 -0.1092  0.1923 -1.2119
 2798WAT    EPW11914   3.927   5.952   0.839 -0.3528  0.4873 -0.3488
 2799WAT      O11915   2.535   2.987   4.036  0.0614 -0.2336  0.1396
 2799WAT     H111916   2.614   3.009   4.068  0.1663  1.2650 -1.0521
 2799WAT     H211917   2.483   2.990   4.106  0.4470  2.1281  0.4173
 2799WAT    EPW11918   2.539   2.991   4.051  0.1339  0.3367  0.0046
 2800WAT      O11919   4.908   0.528   0.384  0.2795 -1.1432 -0.0498
 2800WAT     H111920   4.961   0.495   0.323  1.0315 -0.0188 -0.0258
 2800WAT     H211921   4.913   0.470   0.449  1.0040 -1.3529 -0.2861
 2800WAT    EPW11922   4.916   0.515   0.385  0.4976 -1.0081 -0.0811
 2801WAT      O11923   6.520   6.297   6.504 -0.4719  0.2115 -0.1483
 2801WAT     H111924   6.521   6.260   6.583  0.8394 -0.3393 -0.3961
 2801WAT     H211925   6.563   6.240   6.454  1.1978  1.8190 -0.6518
 2801WAT    EPW11926   6.526   6.283   6.508 -0.0315  0.3676 -0.2593
 2802WAT      O11927   4.389   6.509   3.359  0.2612 -0.6265  0.3376
 2802WAT     H111928   4.424   6.447   3.308  1.6542  0.0406  0.4244
 2802WAT     H211929   4.459   6.546   3.396 -0.5750  0.6898  0.6525
 2802WAT    EPW11930   4.405   6.505   3.357  0.3434 -0.3335  0.3969
 2803WAT      O11931   3.234   6.144   1.225 -0.1151 -0.3857 -0.5523
 2803WAT     H111932   3.221   6.199   1.292 -0.9579 -1.4879  0.2327
 2803WAT     H211933   3.318   6.155   1.205 -0.4002  1.5929 -0.8137
 2803WAT    EPW11934   3.245   6.154   1.232 -0.2817 -0.2563 -0.4749
 2804WAT      O11935   5.685   3.090   0.259  0.2649 -0.1616  0.1476
 2804WAT     H111936   5.643   3.021   0.293 -1.3999  1.0633  0.6873
 2804WAT     H211937   5.648   3.099   0.180  1.7812 -0.9570 -0.7077
 2804WAT    EPW11938   5.673   3.081   0.252  0.2430 -0.0981  0.1010
 2805WAT      O11939   0.470   4.568   3.277 -0.2625  0.5836 -0.1480
 2805WAT     H111940   0.426   4.494   3.290 -0.0564  0.5659  0.5057
 2805WAT     H211941   0.464   4.609   3.354  0.3855  0.8348 -0.2256
 2805WAT    EPW11942   0.463   4.563   3.290 -0.1363  0.6181 -0.0629
 2806WAT      O11943   6.953   5.604   0.686 -0.2512  0.4854  0.2867
 2806WAT     H111944   7.014   5.599   0.749 -0.2754 -0.3049  0.2491
 2806WAT     H211945   6.995   5.642   0.620  0.2033 -0.0343  0.2673
 2806WAT    EPW11946   6.968   5.609   0.686 -0.1877  0.2919  0.2782
 2807WAT      O11947   6.820   5.714   5.766 -0.3823 -0.1038  0.2546
 2807WAT     H111948   6.790   5.725   5.685 -1.2630 -0.5754  0.5035
 2807WAT     H211949   6.754   5.675   5.808 -0.5708  1.5287  1.6214
 2807WAT    EPW11950   6.806   5.710   5.760 -0.5402  0.0677  0.4933
 2808WAT      O11951   3.036   4.423   0.227  0.1109  0.1101 -0.5472
 2808WAT     H111952   3.116   4.431   0.193  0.6074 -0.0287  0.5647
 2808WAT     H211953   2.985   4.419   0.156  1.2315 -1.3957 -1.3402
 2808WAT    EPW11954   3.041   4.423   0.211  0.3498 -0.1328 -0.5001
 2809WAT      O11955   5.639   2.798   6.114 -0.0961 -0.8853  0.0499
 2809WAT     H111956   5.629   2.879   6.084 -0.6365 -0.6921  0.7218
 2809WAT     H211957   5.586   2.750   6.065 -1.8148 -0.4049  1.3438
 2809WAT    EPW11958   5.630   2.803   6.102 -0.4298 -0.7858  0.3403
 2810WAT      O11959   2.347   4.740   2.985 -0.1321  0.2387 -0.1908
 2810WAT     H111960   2.307   4.662   2.980 -0.6952  0.4450  0.8713
 2810WAT     H211961   2.406   4.736   2.921  1.0403 -1.7532  0.8979
 2810WAT    EPW11962   2.350   4.728   2.975 -0.0421 -0.0250  0.1269
 2811WAT      O11963   2.839   2.552   5.462 -0.2673  0.0990 -0.8576
 2811WAT     H111964   2.773   2.549   5.519 -0.0653  0.1586 -0.6156
 2811WAT     H211965   2.893   2.610   5.498 -1.1661  1.8906 -2.2218
 2811WAT    EPW11966   2.837   2.560   5.476 -0.3702  0.3724 -1.0234
 2812WAT      O11967   4.180   5.590   4.903 -0.5627 -0.0414 -0.2513
 2812WAT     H111968   4.215   5.579   4.824 -0.4967 -0.5043 -0.1606
 2812WAT     H211969   4.115   5.531   4.905  0.0567 -0.7227  0.4069
 2812WAT    EPW11970   4.175   5.580   4.892 -0.4615 -0.2104 -0.1407
 2813WAT      O11971   2.807   2.174   0.570 -0.0314  0.0585 -0.5275
 2813WAT     H111972   2.754   2.108   0.547  1.6384 -1.6532  0.3345
 2813WAT     H211973   2.751   2.239   0.588 -1.9288 -1.8400  0.9892
 2813WAT    EPW11974   2.791   2.174   0.569 -0.0650 -0.4748 -0.1761
 2814WAT      O11975   4.592   4.115   5.505 -0.1161  0.6426  0.5108
 2814WAT     H111976   4.597   4.041   5.458 -1.6977  1.4096 -0.9899
 2814WAT     H211977   4.602   4.178   5.445  0.2977  1.6803  1.6219
 2814WAT    EPW11978   4.594   4.113   5.489 -0.2886  0.9092  0.4533
 2815WAT      O11979   1.436   4.993   2.691  0.1708 -0.5878 -0.0883
 2815WAT     H111980   1.482   4.921   2.672 -0.0222 -0.8409  0.3739
 2815WAT     H211981   1.439   4.996   2.778  0.8354  0.4078 -0.1362
 2815WAT    EPW11982   1.443   4.983   2.701  0.2405 -0.4781 -0.0271
 2816WAT      O11983   6.504   4.990   7.226 -0.2206  0.0931 -0.0004
 2816WAT     H111984   6.570   5.040   7.251  0.2944 -0.5734  0.0072
 2816WAT     H211985   6.540   4.936   7.168 -0.3118 -1.5120  1.3638
 2816WAT    EPW11986   6.519   4.989   7.221 -0.1580 -0.2425  0.2022
 2817WAT      O11987   2.449   4.261   5.958  0.1976 -0.4791 -0.1764
 2817WAT     H111988   2.497   4.248   6.030 -0.9938  0.4303  0.8179
 2817WAT     H211989   2.397   4.327   5.980 -1.2689 -1.1984 -1.3433
 2817WAT    EPW11990   2.449   4.269   5.972 -0.1950 -0.4510 -0.2019
 2818WAT      O11991   2.211   5.386   6.736 -0.1686 -0.0982  0.5538
 2818WAT     H111992   2.142   5.408   6.785 -0.9420  1.2761 -1.0380
 2818WAT     H211993   2.271   5.445   6.760 -0.4486  0.3883  0.0779
 2818WAT    EPW11994   2.209   5.398   6.747 -0.3242  0.1767  0.2484
 2819WAT      O11995   5.871   3.283   4.577  0.0158 -0.1876 -0.2647
 2819WAT     H111996   5.824   3.350   4.606  1.5943  0.8622 -0.0293
 2819WAT     H211997   5.952   3.315   4.569  0.8748 -2.0955 -0.0016
 2819WAT    EPW11998   5.876   3.297   4.580  0.3759 -0.3144 -0.1911
 2820WAT      O11999   3.586   0.084   4.999 -0.2849  0.2807 -0.0258
 2820WAT     H112000   3.504   0.105   5.020  0.1049  1.5858  0.2800
 2820WAT     H212001   3.630   0.094   5.074 -0.1245 -2.3382  0.3486
 2820WAT    EPW12002   3.580   0.088   5.013 -0.2036  0.0866  0.0747
 2821WAT      O12003   2.530   1.439   0.388  0.0242 -0.1310 -0.2348
 2821WAT     H112004   2.609   1.405   0.375 -0.3798 -0.9494 -0.6595
 2821WAT     H212005   2.535   1.474   0.467  1.0086  0.4290 -0.5279
 2821WAT    EPW12006   2.542   1.439   0.397  0.1099 -0.1692 -0.3408
 2822WAT      O12007   6.680   0.746   6.118  0.2957  0.2408 -0.6019
 2822WAT     H112008   6.643   0.666   6.118  0.3239  0.2283 -0.4811
 2822WAT     H212009   6.741   0.740   6.056  1.2981 -0.2906  0.4051
 2822WAT    EPW12010   6.683   0.733   6.109  0.4480  0.1604 -0.4353
 2823WAT      O12011   4.776   1.245   1.680  0.3187 -0.3634  0.0795
 2823WAT     H112012   4.735   1.179   1.640 -1.1073  1.2883 -1.3716
 2823WAT     H212013   4.761   1.229   1.764 -0.9040 -1.3412 -0.2768
 2823WAT    EPW12014   4.768   1.233   1.686 -0.0725 -0.2639 -0.1875
 2824WAT      O12015   7.226   1.518   5.986 -0.4397 -0.0588  0.3021
 2824WAT     H112016   7.286   1.580   6.000  0.1421 -0.9189  1.9049
 2824WAT     H212017   7.240   1.494   5.904  1.1632  0.0562  0.5134
 2824WAT    EPW12018   7.237   1.524   5.976 -0.1170 -0.1689  0.5701
 2825WAT      O12019   0.209   1.056   1.533  0.3171  0.0376 -0.3575
 2825WAT     H112020   0.287   1.096   1.541  1.1683 -1.6671  0.4034
 2825WAT     H212021   0.182   1.079   1.454  3.3645 -2.1850 -2.2568
 2825WAT    EPW12022   0.217   1.065   1.523  0.8930 -0.5426 -0.5256
 2826WAT      O12023   4.099   6.059   1.889  0.0201  0.7400  0.8266
 2826WAT     H112024   4.105   5.972   1.885  0.9094  0.8205  0.0748
 2826WAT     H212025   4.150   6.080   1.956  1.9284  0.8435 -0.5958
 2826WAT    EPW12026   4.107   6.050   1.899  0.4334  0.7672  0.5054
 2827WAT      O12027   1.808   3.971   5.343 -0.1023 -0.3899  0.2814
 2827WAT     H112028   1.812   3.965   5.430  1.2894 -1.5564  0.1784
 2827WAT     H212029   1.859   3.905   5.316 -1.2781 -0.6464 -1.4294
 2827WAT    EPW12030   1.816   3.961   5.352 -0.0704 -0.6001  0.0134
 2828WAT      O12031   3.664   6.527   2.024  0.1073  0.3270 -0.1280
 2828WAT     H112032   3.674   6.481   1.950 -2.0224 -0.5075  0.0192
 2828WAT     H212033   3.706   6.602   2.007  0.3008 -0.1294 -1.9026
 2828WAT    EPW12034   3.671   6.531   2.010 -0.1787  0.1363 -0.3684
 2829WAT      O12035   3.721   5.858   1.009  0.1051  0.1220  0.3100
 2829WAT     H112036   3.685   5.783   1.036 -0.1522  0.1124 -0.0584
 2829WAT     H212037   3.777   5.877   1.073  0.3155 -0.4864  0.3164
 2829WAT    EPW12038   3.724   5.850   1.023  0.0981  0.0307  0.2566
 2830WAT      O12039   6.126   2.740   6.129 -0.3553  0.5011 -0.1572
 2830WAT     H112040   6.045   2.725   6.159 -0.4805  0.2675 -0.5923
 2830WAT     H212041   6.175   2.743   6.201 -0.6274 -0.1873  0.0663
 2830WAT    EPW12042   6.121   2.738   6.144 -0.4140  0.3649 -0.1885
 2831WAT      O12043   0.740   5.707   3.918  0.4183  0.0522  0.2250
 2831WAT     H112044   0.798   5.744   3.970  0.9297 -0.8863  0.3518
 2831WAT     H212045   0.774   5.628   3.901 -0.4068 -0.1996 -0.3800
 2831WAT    EPW12046   0.753   5.701   3.923  0.3719 -0.1237  0.1544
 2832WAT      O12047   6.385   4.589   3.564  0.1667  0.2860  0.3905
 2832WAT     H112048   6.409   4.629   3.638  0.2318 -1.0325  1.1180
 2832WAT     H212049   6.461   4.563   3.529  0.2720  2.2143 -0.9761
 2832WAT    EPW12050   6.400   4.591   3.570  0.1919  0.3761  0.2961
 2833WAT      O12051   1.904   3.633   6.484  0.3865  0.7906  0.1227
 2833WAT     H112052   1.940   3.697   6.438 -0.4961  0.9798 -0.3131
 2833WAT     H212053   1.824   3.625   6.450 -0.1551  0.6886  1.3691
 2833WAT    EPW12054   1.898   3.641   6.472  0.1761  0.8035  0.2424
 2834WAT      O12055   4.341   6.374   2.975 -0.3982 -0.5646  0.3306
 2834WAT     H112056   4.271   6.322   2.984  0.5850 -2.0863 -0.4917
 2834WAT     H212057   4.404   6.332   3.017  0.4889 -0.1838 -0.5739
 2834WAT    EPW12058   4.340   6.360   2.983 -0.1219 -0.7331  0.0755
 2835WAT      O12059   3.283   4.903   4.189 -0.6313  0.1331 -0.2239
 2835WAT     H112060   3.323   4.827   4.171 -1.5961 -0.3854 -0.2535
 2835WAT     H212061   3.199   4.886   4.172 -1.1585  0.5665  1.7397
 2835WAT    EPW12062   3.277   4.889   4.184 -0.8517  0.1206  0.0618
 2836WAT      O12063   0.273   3.981   6.885  0.2486  0.3551  0.7996
 2836WAT     H112064   0.202   3.941   6.916  0.4121  0.2807  1.0874
 2836WAT     H212065   0.306   4.020   6.956 -0.4530  1.8442  0.3629
 2836WAT    EPW12066   0.267   3.981   6.900  0.1691  0.5641  0.7776
 2837WAT      O12067   4.507   2.505   4.913  0.3945 -0.6378 -0.2322
 2837WAT     H112068   4.574   2.557   4.933  0.7352 -1.0812 -0.1900
 2837WAT     H212069   4.537   2.425   4.934  0.2277 -0.9550 -1.1631
 2837WAT    EPW12070   4.522   2.501   4.919  0.4202 -0.7502 -0.3635
 2838WAT      O12071   0.152   1.421   3.569  0.0984  0.6058  0.1438
 2838WAT     H112072   0.158   1.476   3.501 -0.3580 -0.1906 -0.5509
 2838WAT     H212073   0.236   1.404   3.588  0.2464 -0.3729 -1.2320
 2838WAT    EPW12074   0.165   1.427   3.562  0.0529  0.3436 -0.1620
 2839WAT      O12075   2.726   2.881   6.531 -0.1828 -0.8389 -0.0064
 2839WAT     H112076   2.803   2.840   6.526  0.4762  0.0975  1.5590
 2839WAT     H212077   2.679   2.844   6.468  1.4441 -1.6567 -0.8114
 2839WAT    EPW12078   2.731   2.869   6.521  0.1549 -0.8214  0.1059
 2840WAT      O12079   2.388   5.470   5.985 -0.1614  0.0472 -0.8105
 2840WAT     H112080   2.409   5.387   5.999 -0.2845  0.1559  0.0934
 2840WAT     H212081   2.403   5.481   5.900  0.0222 -0.8474 -0.9048
 2840WAT    EPW12082   2.393   5.459   5.975 -0.1524 -0.0689 -0.6909
 2841WAT      O12083   0.284   3.403   1.467  0.6230 -0.3442  0.0272
 2841WAT     H112084   0.306   3.450   1.397  1.1709  0.2039  0.5599
 2841WAT     H212085   0.304   3.455   1.534 -2.1706  0.1962  0.5834
 2841WAT    EPW12086   0.290   3.418   1.467  0.2913 -0.1834  0.1881
 2842WAT      O12087   6.908   2.477   3.584 -0.0825  0.0732 -0.1464
 2842WAT     H112088   6.915   2.398   3.620  0.6808  0.5758  0.8678
 2842WAT     H212089   6.879   2.527   3.649  0.7303  0.8885 -0.3877
 2842WAT    EPW12090   6.905   2.473   3.599  0.1503  0.2679 -0.0323
 2843WAT      O12091   2.656   7.013   3.706  0.2989 -0.2261 -0.6930
 2843WAT     H112092   2.709   7.024   3.774  1.6837  0.0633 -1.7807
 2843WAT     H212093   2.613   6.939   3.725 -0.1652  0.4259  0.9855
 2843WAT    EPW12094   2.657   7.004   3.719  0.4349 -0.0870 -0.6057
 2844WAT      O12095   4.060   6.035   6.520 -0.1265 -0.0543  0.1868
 2844WAT     H112096   4.136   6.006   6.489 -1.1570 -3.2932  0.3366
 2844WAT     H212097   4.006   6.027   6.452 -1.3235 -2.5667  1.2910
 2844WAT    EPW12098   4.063   6.030   6.505 -0.4556 -0.9039  0.3720
 2845WAT      O12099   6.509   4.523   2.399 -0.2968  0.2109  0.0723
 2845WAT     H112100   6.501   4.464   2.463  0.9966  0.4419  0.4837
 2845WAT     H212101   6.427   4.547   2.382 -0.7524 -0.7901  0.7609
 2845WAT    EPW12102   6.496   4.518   2.406 -0.1730  0.0971  0.2348
 2846WAT      O12103   1.455   5.616   1.729 -0.0728 -0.5950  0.0167
 2846WAT     H112104   1.446   5.680   1.788 -0.6579 -0.6691  0.0143
 2846WAT     H212105   1.481   5.548   1.778  1.2348 -0.1888 -0.0805
 2846WAT    EPW12106   1.458   5.615   1.745  0.0339 -0.5459  0.0019
 2847WAT      O12107   4.381   3.638   1.770  0.3025 -0.2353 -0.2899
 2847WAT     H112108   4.334   3.708   1.746  0.0460 -0.2480  0.1493
 2847WAT     H212109   4.444   3.633   1.710 -1.5247 -1.5254 -2.2685
 2847WAT    EPW12110   4.383   3.647   1.758 -0.0053 -0.4278 -0.5173
 2848WAT      O12111   3.211   1.260   1.541  0.3136  0.3602 -0.5122
 2848WAT     H112112   3.205   1.290   1.623  0.6633 -0.5633 -0.1397
 2848WAT     H212113   3.146   1.202   1.536  0.6321  0.0186 -0.7120
 2848WAT    EPW12114   3.201   1.256   1.552  0.4123  0.1733 -0.4867
 2849WAT      O12115   0.021   5.667   6.978 -0.0973  0.0182 -0.7099
 2849WAT     H112116   0.095   5.711   6.991  0.8245 -1.1593 -1.7751
 2849WAT     H212117   0.039   5.587   7.006 -0.5017 -0.6260 -2.2026
 2849WAT    EPW12118   0.035   5.662   6.984 -0.0209 -0.2509 -1.0878
 2850WAT      O12119   5.462   0.395   6.923  0.4507 -0.4254  0.2241
 2850WAT     H112120   5.450   0.407   6.838  1.6718  1.4004  0.2657
 2850WAT     H212121   5.546   0.414   6.935 -0.4482  2.9149  2.3528
 2850WAT    EPW12122   5.472   0.399   6.912  0.4983  0.3377  0.5447
 2851WAT      O12123   6.794   0.578   0.891  0.5505  0.4751 -0.1465
 2851WAT     H112124   6.866   0.538   0.919  0.4956 -0.0482 -0.7320
 2851WAT     H212125   6.732   0.548   0.945  0.5299 -0.1529 -0.5102
 2851WAT    EPW12126   6.795   0.567   0.903  0.5394  0.3050 -0.2867
 2852WAT      O12127   1.594   4.397   2.695  0.0813 -0.0351 -0.1939
 2852WAT     H112128   1.668   4.377   2.654 -0.0402 -0.6362 -0.1186
 2852WAT     H212129   1.621   4.422   2.774  0.0928 -2.1011  0.5097
 2852WAT    EPW12130   1.609   4.398   2.701  0.0651 -0.4291 -0.0788
 2853WAT      O12131   1.462   5.056   1.767  0.3430 -0.1131 -0.3436
 2853WAT     H112132   1.392   5.053   1.819  1.1535 -1.9810  0.7530
 2853WAT     H212133   1.526   5.083   1.822  0.8225 -0.1337 -0.8830
 2853WAT    EPW12134   1.461   5.060   1.783  0.5336 -0.3921 -0.2613
 2854WAT      O12135   4.548   1.312   5.140 -0.1284  0.1037  0.0904
 2854WAT     H112136   4.487   1.252   5.120  0.1368 -0.0459 -0.2813
 2854WAT     H212137   4.520   1.346   5.216  0.0601 -0.9486  0.6446
 2854WAT    EPW12138   4.535   1.308   5.148 -0.0614 -0.0738  0.1174
 2855WAT      O12139   3.747   0.957   5.277  0.0965  0.3893  0.1649
 2855WAT     H112140   3.810   0.897   5.278  0.2034  0.4513 -1.0388
 2855WAT     H212141   3.685   0.923   5.328  0.2863 -0.6066 -0.2372
 2855WAT    EPW12142   3.747   0.943   5.285  0.1403  0.2514 -0.0723
 2856WAT      O12143   4.652   4.794   1.270 -0.1486 -1.2528 -0.2575
 2856WAT     H112144   4.664   4.861   1.215 -1.3545 -1.2749 -0.5655
 2856WAT     H212145   4.699   4.817   1.340 -0.7843  0.0725 -0.2427
 2856WAT    EPW12146   4.661   4.807   1.272 -0.4207 -1.0603 -0.3008
 2857WAT      O12147   0.672   5.601   2.330  0.3136  0.1814  0.9344
 2857WAT     H112148   0.717   5.527   2.341  2.3511  1.3628  1.1191
 2857WAT     H212149   0.643   5.620   2.410 -2.0597 -1.4054  0.5691
 2857WAT    EPW12150   0.675   5.593   2.343  0.2640  0.1215  0.9078
 2858WAT      O12151   2.898   4.264   0.642 -0.1166 -0.1251 -0.6933
 2858WAT     H112152   2.892   4.273   0.729 -0.6430  0.0586 -0.7450
 2858WAT     H212153   2.815   4.270   0.615  0.1503  1.2160 -1.3314
 2858WAT    EPW12154   2.885   4.266   0.651 -0.1550  0.1001 -0.7952
 2859WAT      O12155   6.499   5.591   1.568 -0.2557 -0.3614 -0.1265
 2859WAT     H112156   6.418   5.560   1.559 -0.6838  0.7675 -0.3316
 2859WAT     H212157   6.499   5.623   1.649 -0.5216  0.9867 -0.6293
 2859WAT    EPW12158   6.487   5.592   1.579 -0.3582  0.0045 -0.2310
 2860WAT      O12159   6.550   3.084   2.653  0.3152 -0.2819  0.7539
 2860WAT     H112160   6.525   3.008   2.686  0.6162 -1.2433 -1.1190
 2860WAT     H212161   6.620   3.065   2.606  1.2122  1.4004  1.3108
 2860WAT    EPW12162   6.556   3.070   2.651  0.4922 -0.1754  0.5595
 2861WAT      O12163   0.997   1.013   4.825  0.0676 -0.4587 -0.7417
 2861WAT     H112164   0.950   1.031   4.897  2.0210 -1.4620  0.9023
 2861WAT     H212165   0.994   1.087   4.779 -0.9155  0.3698  0.5895
 2861WAT    EPW12166   0.990   1.027   4.829  0.2109 -0.4845 -0.3022
 2862WAT      O12167   3.390   0.740   4.285 -0.0968  0.2370  0.3989
 2862WAT     H112168   3.404   0.807   4.232  0.2406 -0.5310 -0.5216
 2862WAT     H212169   3.438   0.676   4.250 -1.5796 -0.9082  0.3724
 2862WAT    EPW12170   3.400   0.740   4.272 -0.2660 -0.0456  0.2590
 2863WAT      O12171   4.257   4.241   2.667 -0.3775 -0.4534  0.1186
 2863WAT     H112172   4.261   4.259   2.752 -1.0521  1.6475 -0.2232
 2863WAT     H212173   4.235   4.157   2.664 -1.4759 -0.2837  2.0438
 2863WAT    EPW12174   4.254   4.232   2.679 -0.6394 -0.1180  0.3525
 2864WAT      O12175   3.349   2.652   2.200  0.1998  0.2754  0.3711
 2864WAT     H112176   3.374   2.650   2.283  0.6298  0.9975  0.2626
 2864WAT     H212177   3.262   2.647   2.205  0.0648  2.3791  0.9853
 2864WAT    EPW12178   3.340   2.651   2.213  0.2434  0.6928  0.4458
 2865WAT      O12179   4.207   6.986   5.398 -0.5990  0.0796  0.0253
 2865WAT     H112180   4.231   6.903   5.411  0.0379  0.1936 -0.4116
 2865WAT     H212181   4.245   7.008   5.323  1.1170  1.4576  1.1963
 2865WAT    EPW12182   4.216   6.977   5.389 -0.2515  0.3000  0.1337
 2866WAT      O12183   1.489   3.702   6.904 -0.3145 -0.0851 -0.3654
 2866WAT     H112184   1.564   3.689   6.862 -0.0762 -0.0800  0.0532
 2866WAT     H212185   1.511   3.697   6.988 -0.5888  0.9833 -0.2128
 2866WAT    EPW12186   1.503   3.699   6.910 -0.3198  0.0735 -0.2811
 2867WAT      O12187   6.659   2.959   5.989 -0.1147 -0.3832  0.8373
 2867WAT     H112188   6.688   3.002   5.919  2.0068  1.5144  2.7111
 2867WAT     H212189   6.691   2.878   5.978 -0.8542 -0.4850 -0.9021
 2867WAT    EPW12190   6.668   2.953   5.977  0.0895 -0.1179  0.8572
 2868WAT      O12191   3.092   7.159   5.262  0.5752 -0.6303  0.1018
 2868WAT     H112192   3.160   7.142   5.314  1.6740 -0.0126 -1.0606
 2868WAT     H212193   3.099   7.099   5.199 -0.0471 -0.6618  0.0621
 2868WAT    EPW12194   3.103   7.148   5.260  0.6456 -0.5437 -0.0758
 2869WAT      O12195   5.398   1.640   4.995 -0.2974 -0.2526  0.1272
 2869WAT     H112196   5.446   1.655   5.066 -0.6695 -0.2317  0.3790
 2869WAT     H212197   5.452   1.597   4.942  0.5083  1.1753 -0.2511
 2869WAT    EPW12198   5.413   1.636   4.997 -0.2333 -0.0386  0.1085
 2870WAT      O12199   0.524   5.155   7.205 -0.1372  0.1218 -0.4556
 2870WAT     H112200   0.558   5.130   7.282 -0.4702 -0.9872 -0.6611
 2870WAT     H212201   0.452   5.199   7.228 -1.5229 -2.1657 -0.1484
 2870WAT    EPW12202   0.518   5.158   7.220 -0.3911 -0.3799 -0.4406
 2871WAT      O12203   0.761   3.348   5.400 -0.1030  0.4839  0.2095
 2871WAT     H112204   0.818   3.281   5.402 -1.6363 -0.8733  0.0261
 2871WAT     H212205   0.790   3.400   5.464 -0.0986 -1.4199  1.8615
 2871WAT    EPW12206   0.774   3.346   5.410 -0.3289  0.0022  0.4265
 2872WAT      O12207   0.130   1.199   4.212  0.1028  0.5621  0.3430
 2872WAT     H112208   0.190   1.248   4.251  0.4822  0.9711 -0.7129
 2872WAT     H212209   0.161   1.118   4.219  1.1358  0.8300 -0.7450
 2872WAT    EPW12210   0.143   1.194   4.219  0.3115  0.6621  0.0263
 2873WAT      O12211   6.534   4.095   3.104 -0.1995 -0.1821  0.2790
 2873WAT     H112212   6.532   4.183   3.103  0.1564 -0.1780 -0.2076
 2873WAT     H212213   6.547   4.074   3.021  0.0308 -0.6901  0.4420
 2873WAT    EPW12214   6.535   4.105   3.092 -0.1129 -0.2565  0.2312
 2874WAT      O12215   2.152   0.070   3.560  0.1957  0.0120  0.1151
 2874WAT     H112216   2.133   0.012   3.622 -0.4232  0.5180  0.4151
 2874WAT     H212217   2.226   0.040   3.525 -0.6916 -1.5613 -0.4974
 2874WAT    EPW12218   2.160   0.057   3.564 -0.0268 -0.1456  0.0689
 2875WAT      O12219   6.298   5.584   1.334  0.3813 -0.0308 -0.5118
 2875WAT     H112220   6.287   5.502   1.363 -0.4701 -0.0176 -0.7771
 2875WAT     H212221   6.219   5.607   1.306  0.2868  1.3825  0.7885
 2875WAT    EPW12222   6.285   5.575   1.334  0.2416  0.1799 -0.3589
 2876WAT      O12223   1.750   0.671   2.841 -0.5864  0.3583 -0.0892
 2876WAT     H112224   1.815   0.715   2.803 -0.5593 -0.9106 -1.6283
 2876WAT     H212225   1.789   0.599   2.872 -1.0731  0.1059 -0.0542
 2876WAT    EPW12226   1.765   0.666   2.840 -0.6543  0.1336 -0.3114
 2877WAT      O12227   6.721   5.123   1.937  0.4463 -0.2855  0.0278
 2877WAT     H112228   6.666   5.164   1.883  0.2588 -1.3569 -0.6416
 2877WAT     H212229   6.738   5.182   1.999 -0.3978  0.5192 -0.4850
 2877WAT    EPW12230   6.715   5.137   1.938  0.2939 -0.3249 -0.1468
 2878WAT      O12231   1.687   2.390   1.573  0.0972  0.0254  0.8097
 2878WAT     H112232   1.723   2.404   1.651  1.2430  3.2958 -0.1529
 2878WAT     H212233   1.755   2.382   1.520 -0.6656 -1.7328  0.0162
 2878WAT    EPW12234   1.702   2.391   1.577  0.1538  0.2488  0.5503
 2879WAT      O12235   5.381   2.144   0.243  0.4710 -0.6450 -0.1630
 2879WAT     H112236   5.437   2.175   0.303 -0.1075  1.0413 -0.4137
 2879WAT     H212237   5.419   2.162   0.167 -1.0733  2.2284 -0.4105
 2879WAT    EPW12238   5.395   2.152   0.241  0.1574  0.0285 -0.2366
 2880WAT      O12239   5.848   5.388   2.005 -0.0569  0.2361  0.1174
 2880WAT     H112240   5.861   5.475   2.005  0.9435  0.1504  2.1685
 2880WAT     H212241   5.796   5.376   2.074  1.4763 -0.9573  1.1233
 2880WAT    EPW12242   5.842   5.399   2.015  0.3173  0.0471  0.5690
 2881WAT      O12243   6.763   0.018   3.812 -0.1886  0.0824 -0.1148
 2881WAT     H112244   6.688   0.056   3.789  0.0105  0.3362 -0.3579
 2881WAT     H212245   6.797  -0.009   3.736 -0.2209 -0.3907  0.0304
 2881WAT    EPW12246   6.757   0.019   3.797 -0.1640  0.0500 -0.1293
 2882WAT      O12247   1.231   0.102   2.922 -0.1372 -0.2799  0.0498
 2882WAT     H112248   1.206   0.141   2.848  0.2229  0.0782  0.1133
 2882WAT     H212249   1.275   0.165   2.964 -1.5317 -0.0046  1.2156
 2882WAT    EPW12250   1.234   0.117   2.918 -0.2900 -0.1863  0.2314
 2883WAT      O12251   3.585   4.026   3.263  0.0532  0.1670  0.4892
 2883WAT     H112252   3.660   3.986   3.284 -0.3377 -0.3449  0.9333
 2883WAT     H212253   3.579   4.091   3.320  0.4260  0.5421  0.1061
 2883WAT    EPW12254   3.595   4.030   3.274  0.0505  0.1468  0.4982
 2884WAT      O12255   2.717   4.487   1.031  0.3363  0.1307 -0.4286
 2884WAT     H112256   2.716   4.574   1.029  1.5876  0.1629 -0.4237
 2884WAT     H212257   2.675   4.464   0.957  2.4721  0.7905 -1.9377
 2884WAT    EPW12258   2.711   4.497   1.020  0.8367  0.2329 -0.6508
 2885WAT      O12259   4.939   7.188   1.280 -0.4102  0.3563 -0.6903
 2885WAT     H112260   4.961   7.250   1.222 -1.0700  1.8104  0.5402
 2885WAT     H212261   4.855   7.172   1.263 -0.8794  1.4823  0.4159
 2885WAT    EPW12262   4.930   7.195   1.269 -0.5770  0.7374 -0.3451
 2886WAT      O12263   3.833   6.206   6.730 -0.2894 -0.1652  0.0330
 2886WAT     H112264   3.804   6.225   6.650 -1.4992 -2.2078 -0.0897
 2886WAT     H212265   3.920   6.198   6.719 -0.0675  2.1833 -0.4452
 2886WAT    EPW12266   3.842   6.208   6.717 -0.4353 -0.1200 -0.0557
 2887WAT      O12267   1.133   6.396   5.705  0.5338 -0.0621 -0.3864
 2887WAT     H112268   1.174   6.460   5.661  2.4065 -0.7065  0.3008
 2887WAT     H212269   1.062   6.435   5.737  0.9643  1.3357 -1.0675
 2887WAT    EPW12270   1.129   6.412   5.704  0.8740  0.0492 -0.3855
 2888WAT      O12271   5.252   3.742   1.867  0.0176  0.1597 -0.7460
 2888WAT     H112272   5.208   3.816   1.849  0.2429  0.9716  1.6605
 2888WAT     H212273   5.189   3.682   1.870 -0.3193  0.4434 -1.6468
 2888WAT    EPW12274   5.236   3.744   1.864  0.0011  0.3216 -0.5235
 2889WAT      O12275   7.148   6.377   0.052  0.0332  0.3136  0.5019
 2889WAT     H112276   7.159   6.462   0.036 -0.8834  0.1309 -1.2766
 2889WAT     H212277   7.228   6.350   0.077  0.4166  1.5915  0.7012
 2889WAT    EPW12278   7.162   6.385   0.054 -0.0456  0.4754  0.2686
 2890WAT      O12279   0.626   4.016   4.972 -0.0974 -0.4490  0.0800
 2890WAT     H112280   0.704   4.051   4.960  0.5235 -1.4665  0.9550
 2890WAT     H212281   0.571   4.084   4.967  0.6809  0.0814 -1.8677
 2890WAT    EPW12282   0.629   4.031   4.970  0.1093 -0.5210 -0.0785
 2891WAT      O12283   5.852   1.157   6.674  0.0605  0.0300  0.1773
 2891WAT     H112284   5.786   1.212   6.690 -0.7264 -0.9443  0.3758
 2891WAT     H212285   5.836   1.129   6.593  0.8399  0.5842 -0.1850
 2891WAT    EPW12286   5.840   1.161   6.665  0.0594 -0.0320  0.1531
 2892WAT      O12287   1.613   1.283   5.561  0.6798  0.1183  0.4707
 2892WAT     H112288   1.537   1.245   5.583 -0.2348  1.4727 -0.2430
 2892WAT     H212289   1.644   1.312   5.638 -1.2263  2.5244  0.4495
 2892WAT    EPW12290   1.606   1.281   5.576  0.2631  0.6738  0.3621
 2893WAT      O12291   6.677   1.237   7.392 -0.1557  0.3306 -0.1732
 2893WAT     H112292   6.615   1.192   7.351 -0.7936  1.2763 -0.2964
 2893WAT     H212293   6.744   1.236   7.337 -0.0195 -0.7726 -0.0036
 2893WAT    EPW12294   6.678   1.230   7.378 -0.2298  0.3074 -0.1663
 2894WAT      O12295   3.410   0.454   0.865 -0.2684 -0.1519  0.3244
 2894WAT     H112296   3.440   0.410   0.933  1.4284 -0.1319 -0.3572
 2894WAT     H212297   3.481   0.493   0.832 -1.5683  2.7094  0.5876
 2894WAT    EPW12298   3.425   0.453   0.870 -0.2098  0.2737  0.2626
 2895WAT      O12299   0.794   3.649   3.471 -0.1391 -0.1221 -0.1192
 2895WAT     H112300   0.829   3.569   3.472 -1.9850 -0.9817  0.1392
 2895WAT     H212301   0.851   3.696   3.425  1.7208 -1.2192  0.9603
 2895WAT    EPW12302   0.807   3.644   3.464 -0.1370 -0.4111  0.0784
 2896WAT      O12303   4.426   6.288   4.412 -0.5048  0.2108 -0.1360
 2896WAT     H112304   4.484   6.324   4.467 -0.9904  2.2328 -0.8286
 2896WAT     H212305   4.361   6.262   4.465  0.4551 -0.9165  0.5228
 2896WAT    EPW12306   4.425   6.290   4.428 -0.4348  0.3430 -0.1410
 2897WAT      O12307   6.150   1.127   1.231  0.0954  0.0482  0.1899
 2897WAT     H112308   6.083   1.183   1.226 -1.7643 -1.8358  1.9347
 2897WAT     H212309   6.113   1.055   1.264  2.5509 -1.9017 -1.0704
 2897WAT    EPW12310   6.135   1.125   1.235  0.1834 -0.5181  0.2614
 2898WAT      O12311   2.422   2.407   1.539  0.0344  0.3537 -0.4932
 2898WAT     H112312   2.395   2.482   1.573 -0.2016 -0.3927  1.0395
 2898WAT     H212313   2.357   2.351   1.557  0.6961 -0.4830 -0.6095
 2898WAT    EPW12314   2.408   2.410   1.546  0.0973  0.1199 -0.2839
 2899WAT      O12315   2.201   5.897   5.063  0.7341  0.4786  0.2061
 2899WAT     H112316   2.150   5.959   5.027  2.1659  0.6718 -1.6266
 2899WAT     H212317   2.145   5.851   5.113 -1.0873  1.0888 -1.1563
 2899WAT    EPW12318   2.185   5.900   5.065  0.6766  0.5973 -0.2659
 2900WAT      O12319   2.577   5.723   4.763 -0.6902 -0.2780  0.3454
 2900WAT     H112320   2.586   5.710   4.677 -0.6897 -1.2121  0.4755
 2900WAT     H212321   2.504   5.681   4.783  0.0017 -1.2163  1.0209
 2900WAT    EPW12322   2.568   5.715   4.753 -0.5879 -0.5546  0.4644
 2901WAT      O12323   6.819   6.579   4.815 -0.2587 -0.3869  0.0612
 2901WAT     H112324   6.805   6.528   4.746  0.1182 -0.5694  0.1196
 2901WAT     H212325   6.861   6.527   4.871 -0.4939 -0.2189  0.3988
 2901WAT    EPW12326   6.823   6.564   4.813 -0.2377 -0.3890  0.1197
 2902WAT      O12327   2.032   1.223   4.651 -0.2986  0.0297  0.0813
 2902WAT     H112328   1.950   1.246   4.633  0.5418  2.0055 -1.5292
 2902WAT     H212329   2.035   1.140   4.625 -0.7963  1.0178 -3.7166
 2902WAT    EPW12330   2.020   1.214   4.645 -0.2480  0.4675 -0.7176
 2903WAT      O12331   1.444   4.781   0.601  0.6714 -0.5099  0.0271
 2903WAT     H112332   1.439   4.694   0.606 -0.5466 -0.3834  1.6427
 2903WAT     H212333   1.381   4.801   0.544  1.0189 -0.6695 -0.4243
 2903WAT    EPW12334   1.434   4.771   0.593  0.5428 -0.5148  0.1991
 2904WAT      O12335   1.111   4.129   4.307  0.3605 -0.4996 -0.7291
 2904WAT     H112336   1.189   4.115   4.271  1.2628  2.5816 -0.2929
 2904WAT     H212337   1.078   4.195   4.261 -1.7159 -1.2507 -0.4446
 2904WAT    EPW12338   1.118   4.137   4.295  0.1870 -0.1554 -0.6227
 2905WAT      O12339   1.029   4.757   2.712 -0.1461 -0.6542 -0.0216
 2905WAT     H112340   1.047   4.707   2.781 -1.9818 -0.5785  0.5656
 2905WAT     H212341   1.055   4.709   2.644 -0.4314 -1.7293  0.6145
 2905WAT    EPW12342   1.036   4.743   2.712 -0.4594 -0.8018  0.1591
 2906WAT      O12343   1.911   5.060   3.889  0.3541  0.1338  0.1273
 2906WAT     H112344   1.964   4.991   3.890  0.7999  0.4704 -0.0820
 2906WAT     H212345   1.901   5.080   3.974 -1.2249 -1.2774  0.3170
 2906WAT    EPW12346   1.917   5.053   3.902  0.1867 -0.0249  0.1244
 2907WAT      O12347   6.773   4.364   3.153 -0.2713  0.0470 -0.8248
 2907WAT     H112348   6.803   4.431   3.105  3.1281  0.0629  0.9888
 2907WAT     H212349   6.743   4.402   3.225  0.1792 -0.2626 -0.4679
 2907WAT    EPW12350   6.773   4.380   3.156  0.2974  0.0036 -0.5042
 2908WAT      O12351   4.371   2.206   5.298  0.3982  0.1775  0.4986
 2908WAT     H112352   4.422   2.154   5.249  0.8077  0.2393  0.8602
 2908WAT     H212353   4.426   2.242   5.355  0.2185  1.4683 -0.1103
 2908WAT    EPW12354   4.387   2.203   5.299  0.4322  0.3773  0.4621
 2909WAT      O12355   4.189   0.356   3.478 -0.0284 -0.2725  0.1027
 2909WAT     H112356   4.179   0.427   3.527 -0.4313  0.4239 -0.9477
 2909WAT     H212357   4.276   0.349   3.470  0.0508 -0.5385  1.0938
 2909WAT    EPW12358   4.200   0.365   3.484 -0.0762 -0.2089  0.0939
 2910WAT      O12359   3.100   0.641   0.038 -0.0383  0.1220  0.0299
 2910WAT     H112360   3.128   0.665   0.117 -0.1562  0.8110 -0.1365
 2910WAT     H212361   3.152   0.684  -0.016 -0.5904  0.4239 -0.2717
 2910WAT    EPW12362   3.112   0.651   0.042 -0.1373  0.2684 -0.0392
 2911WAT      O12363   3.322   2.903   4.276 -0.0522 -0.5061 -0.0035
 2911WAT     H112364   3.285   2.834   4.238 -1.6517 -1.0464  2.3113
 2911WAT     H212365   3.406   2.880   4.283 -0.6067 -2.4262  0.9974
 2911WAT    EPW12366   3.329   2.890   4.272 -0.3704 -0.8696  0.4863
 2912WAT      O12367   0.688   4.201   4.691 -0.2201 -0.1846 -0.3987
 2912WAT     H112368   0.740   4.228   4.626 -1.0237  1.2852 -0.4902
 2912WAT     H212369   0.740   4.203   4.760  0.4299 -0.9432 -0.8560
 2912WAT    EPW12370   0.703   4.205   4.691 -0.2428 -0.0796 -0.4798
 2913WAT      O12371   5.521   3.658   5.155 -0.3496 -0.4955  0.2602
 2913WAT     H112372   5.597   3.701   5.147  0.4435 -1.7217  0.8228
 2913WAT     H212373   5.522   3.631   5.238 -0.2826 -2.5037 -0.3585
 2913WAT    EPW12374   5.533   3.661   5.166 -0.2226 -0.9733  0.2519
 2914WAT      O12375   4.172   1.436   6.877  0.2209 -0.4977 -0.3290
 2914WAT     H112376   4.191   1.450   6.961  2.5124  1.3963 -1.0486
 2914WAT     H212377   4.096   1.394   6.880  0.8902 -1.7650  2.7169
 2914WAT    EPW12378   4.164   1.432   6.890  0.6583 -0.4051  0.0146
 2915WAT      O12379   1.957   3.539   1.072 -0.5410  0.8497 -0.2740
 2915WAT     H112380   2.016   3.575   1.125 -1.0148 -0.1368  0.9788
 2915WAT     H212381   2.000   3.531   0.996  1.0551 -0.0671  0.6552
 2915WAT    EPW12382   1.972   3.543   1.069 -0.3752  0.5686  0.0483
 2916WAT      O12383   3.018   4.250   3.863 -0.2347  0.0143 -0.2250
 2916WAT     H112384   2.964   4.189   3.834 -0.1692 -1.2133  2.0765
 2916WAT     H212385   3.097   4.213   3.856 -0.0278  0.4362 -0.2131
 2916WAT    EPW12386   3.022   4.236   3.857 -0.1944 -0.1047  0.1167
 2917WAT      O12387   5.693   6.786   6.609 -0.2226  0.1804  0.4022
 2917WAT     H112388   5.641   6.716   6.611  1.8199 -1.4566  0.3826
 2917WAT     H212389   5.697   6.806   6.524 -0.5223  0.0662  0.3619
 2917WAT    EPW12390   5.686   6.779   6.597  0.0348 -0.0783  0.3934
 2918WAT      O12391   6.998   5.278   0.432  0.4977  0.1375  0.6531
 2918WAT     H112392   7.075   5.294   0.395  1.3256 -2.6320  0.9684
 2918WAT     H212393   6.992   5.191   0.430 -2.0183  0.1910  1.8865
 2918WAT    EPW12394   7.008   5.267   0.426  0.2484 -0.2637  0.8819
 2919WAT      O12395   4.160   1.387   0.744 -0.5344  0.6090 -0.8110
 2919WAT     H112396   4.121   1.322   0.702  1.8564 -1.0345 -0.6722
 2919WAT     H212397   4.232   1.402   0.697 -1.1500  3.4741 -1.0337
 2919WAT    EPW12398   4.165   1.380   0.731 -0.2722  0.7894 -0.8234
 2920WAT      O12399   2.731   0.162   0.050 -0.3809 -0.2275 -0.2527
 2920WAT     H112400   2.688   0.102   0.003 -0.4503 -0.7816  0.4972
 2920WAT     H212401   2.699   0.238   0.022  1.7082 -0.3059 -3.2793
 2920WAT    EPW12402   2.720   0.164   0.039 -0.0825 -0.3209 -0.5890
 2921WAT      O12403   1.593   3.889   5.622  0.2281 -0.2682 -0.2109
 2921WAT     H112404   1.631   3.888   5.701  1.8109  1.8308 -0.8531
 2921WAT     H212405   1.621   3.815   5.585  0.8567 -0.4587  0.6096
 2921WAT    EPW12406   1.603   3.878   5.628  0.5548  0.0137 -0.1845
 2922WAT      O12407   6.216   6.132   0.427 -0.1256 -0.5146 -0.0403
 2922WAT     H112408   6.211   6.053   0.463 -0.0330 -0.2891  0.4747
 2922WAT     H212409   6.301   6.140   0.407  0.2866  0.2664  1.8092
 2922WAT    EPW12410   6.228   6.122   0.430 -0.0510 -0.3659  0.3090
 2923WAT      O12411   0.273   4.961   1.862  0.1553  0.1118 -0.0294
 2923WAT     H112412   0.268   5.048   1.865 -0.5874  0.2659 -2.7871
 2923WAT     H212413   0.202   4.935   1.906 -0.9087  1.0138 -1.1454
 2923WAT    EPW12414   0.262   4.970   1.869 -0.1116  0.2678 -0.6016
 2924WAT      O12415   4.281   0.992   1.900  0.0195  0.4926 -0.2349
 2924WAT     H112416   4.356   1.036   1.897  0.5472 -0.4152 -1.3563
 2924WAT     H212417   4.244   1.019   1.974  1.7051  0.5565  0.6437
 2924WAT    EPW12418   4.287   1.003   1.910  0.3465  0.3680 -0.2707
 2925WAT      O12419   4.237   1.539   3.984 -0.2178 -0.5483 -0.1419
 2925WAT     H112420   4.277   1.466   4.011 -1.2748 -0.0712  3.1351
 2925WAT     H212421   4.203   1.572   4.057  0.1950  3.2911 -1.4709
 2925WAT    EPW12422   4.238   1.533   3.998 -0.3129  0.0893  0.1458
 2926WAT      O12423   2.093   4.808   1.059 -0.0009  0.4558  0.6299
 2926WAT     H112424   2.170   4.833   1.092  0.8699 -1.4031  0.1584
 2926WAT     H212425   2.054   4.770   1.127 -0.2186  0.7932  0.6951
 2926WAT    EPW12426   2.099   4.806   1.074  0.0956  0.2311  0.5699
 2927WAT      O12427   5.293   5.487   7.387  0.2155  0.2882  0.5871
 2927WAT     H112428   5.298   5.565   7.348 -2.8696  0.4606  0.3174
 2927WAT     H212429   5.363   5.485   7.439  2.6531  1.4635 -2.3615
 2927WAT    EPW12430   5.304   5.498   7.389  0.1199  0.4873  0.1117
 2928WAT      O12431   4.980   2.360   6.125 -0.5347 -0.1755 -0.2687
 2928WAT     H112432   5.047   2.372   6.070 -0.1296 -0.8780  0.0432
 2928WAT     H212433   4.916   2.332   6.074 -0.9796  1.5861 -0.7484
 2928WAT    EPW12434   4.981   2.358   6.110 -0.5406 -0.0190 -0.2935
 2929WAT      O12435   5.205   4.870   5.567  0.1869  0.1090  0.2531
 2929WAT     H112436   5.147   4.901   5.509 -1.1139 -0.9663  0.9090
 2929WAT     H212437   5.264   4.829   5.517 -0.5406 -0.2095 -0.3690
 2929WAT    EPW12438   5.205   4.868   5.551 -0.1127 -0.0969  0.2581
 2930WAT      O12439   1.474   4.612   5.237 -0.2434 -0.0015  0.2118
 2930WAT     H112440   1.501   4.565   5.169 -2.4713 -2.1282  0.6284
 2930WAT     H212441   1.520   4.580   5.304 -0.3183 -0.1834  0.1769
 2930WAT    EPW12442   1.485   4.600   5.237 -0.5836 -0.3425  0.2682
 2931WAT      O12443   0.861   7.163   2.771 -0.1474 -0.1970 -0.3171
 2931WAT     H112444   0.913   7.115   2.721  2.0233  0.4709  1.1387
 2931WAT     H212445   0.782   7.129   2.757  0.9021 -2.4909 -1.2471
 2931WAT    EPW12446   0.857   7.151   2.761  0.3283 -0.4372 -0.2394
 2932WAT      O12447   5.685   6.409   5.324 -0.0571 -0.1855  0.7721
 2932WAT     H112448   5.755   6.360   5.343  0.8826  1.1587  0.9677
 2932WAT     H212449   5.715   6.491   5.333 -1.0680  0.4672 -1.2335
 2932WAT    EPW12450   5.700   6.414   5.328 -0.0676  0.1095  0.5047
 2933WAT      O12451   5.001   0.944   6.647  0.8199 -0.7266  0.3573
 2933WAT     H112452   4.973   0.938   6.729  0.7827 -1.5882  0.2900
 2933WAT     H212453   4.958   1.013   6.615  2.4495  1.0122  1.6833
 2933WAT    EPW12454   4.991   0.954   6.654  1.0551 -0.5970  0.5432
 2934WAT      O12455   4.892   4.843   6.399 -0.1240 -0.3295 -0.6725
 2934WAT     H112456   4.920   4.834   6.316  2.0826  1.1569 -0.1963
 2934WAT     H212457   4.893   4.762   6.430  0.8886 -0.6932 -1.5836
 2934WAT    EPW12458   4.897   4.830   6.391  0.3515 -0.1637 -0.7367
 2935WAT      O12459   6.463   5.793   3.465 -0.1065 -0.1381  0.3999
 2935WAT     H112460   6.490   5.710   3.457  1.9757  0.5373 -0.4319
 2935WAT     H212461   6.514   5.825   3.529 -0.4238  0.6723  0.2629
 2935WAT    EPW12462   6.475   5.786   3.473  0.1542  0.0814  0.2568
 2936WAT      O12463   1.267   5.832   2.319  0.3773  0.3354  0.0044
 2936WAT     H112464   1.216   5.778   2.364  0.0375 -0.5261 -1.3505
 2936WAT     H212465   1.348   5.807   2.340  0.2221  0.0644  0.2757
 2936WAT    EPW12466   1.272   5.821   2.329  0.3042  0.1681 -0.1557
 2937WAT      O12467   0.096   1.200   3.396 -0.6449 -0.2279  0.6683
 2937WAT     H112468   0.114   1.271   3.444  1.9837  0.3699 -1.0145
 2937WAT     H212469   0.165   1.191   3.344 -2.2965 -2.1949 -1.4489
 2937WAT    EPW12470   0.109   1.209   3.396 -0.5005 -0.4301  0.1070
 2938WAT      O12471   0.774   2.121   1.659 -0.5706  0.6469 -0.4359
 2938WAT     H112472   0.828   2.126   1.592  0.5241  0.4147  0.4028
 2938WAT     H212473   0.796   2.046   1.699 -2.6778 -0.3842 -1.0281
 2938WAT    EPW12474   0.785   2.111   1.655 -0.7202  0.4603 -0.3995
 2939WAT      O12475   6.688   4.921   4.720  0.1089 -0.0115 -0.1608
 2939WAT     H112476   6.632   4.989   4.723  1.8070  1.5372  4.0032
 2939WAT     H212477   6.647   4.860   4.767 -0.2623 -0.9894 -1.6805
 2939WAT    EPW12478   6.673   4.922   4.727  0.3049  0.0728  0.2298
 2940WAT      O12479   6.470   5.760   5.240 -0.4034 -0.3007 -0.5236
 2940WAT     H112480   6.543   5.724   5.271  0.2792 -1.6014 -3.3050
 2940WAT     H212481   6.408   5.702   5.260 -0.1407 -0.6807 -0.8138
 2940WAT    EPW12482   6.471   5.746   5.247 -0.2638 -0.5490 -0.9773
 2941WAT      O12483   5.357   6.673   5.729  0.2126  0.0597  0.2370
 2941WAT     H112484   5.434   6.643   5.700 -1.3292 -0.9619 -3.5004
 2941WAT     H212485   5.353   6.754   5.698 -0.1179  0.1410  0.4909
 2941WAT    EPW12486   5.368   6.680   5.720 -0.0640 -0.0792 -0.2776
 2942WAT      O12487   6.009   2.561   3.697  0.3584 -1.0219  0.4919
 2942WAT     H112488   6.074   2.511   3.666  1.4757 -0.7761  2.2672
 2942WAT     H212489   6.022   2.560   3.783 -1.3635 -0.0479  0.8058
 2942WAT    EPW12490   6.021   2.553   3.705  0.2691 -0.8417  0.8005
 2943WAT      O12491   6.678   1.938   1.297 -0.2041 -0.2132 -0.2249
 2943WAT     H112492   6.672   1.858   1.263  0.2365 -0.1898 -0.3642
 2943WAT     H212493   6.617   1.984   1.254 -2.4781 -1.1088  1.7812
 2943WAT    EPW12494   6.668   1.933   1.286 -0.4749 -0.3420  0.0509
 2944WAT      O12495   4.875   4.892   4.466  0.0504 -0.1059  0.0715
 2944WAT     H112496   4.800   4.881   4.423  0.5201 -0.3044 -0.7305
 2944WAT     H212497   4.929   4.836   4.427  0.5534 -0.1355  0.7946
 2944WAT    EPW12498   4.872   4.882   4.454  0.1941 -0.1396  0.0599
 2945WAT      O12499   4.478   2.669   1.466 -0.3800 -0.1366 -0.0889
 2945WAT     H112500   4.400   2.707   1.459 -0.0121  0.6180 -0.2537
 2945WAT     H212501   4.498   2.646   1.385 -0.4165 -0.2975 -0.0523
 2945WAT    EPW12502   4.470   2.672   1.453 -0.3310 -0.0489 -0.1079
 2946WAT      O12503   0.325   4.505   0.626 -0.6978  0.3850 -0.6438
 2946WAT     H112504   0.363   4.490   0.549 -3.2792 -0.8188 -1.8102
 2946WAT     H212505   0.240   4.503   0.608 -1.4083  0.9652  2.1097
 2946WAT    EPW12506   0.318   4.502   0.612 -1.1841  0.2929 -0.4094
 2947WAT      O12507   5.937   6.689   4.462  0.1102 -0.5130  0.0263
 2947WAT     H112508   5.955   6.651   4.539 -2.0471  0.5683  1.1522
 2947WAT     H212509   5.861   6.653   4.438 -0.6149  1.0728 -0.2061
 2947WAT    EPW12510   5.929   6.678   4.470 -0.3156 -0.1190  0.1583
 2948WAT      O12511   2.868   7.010   5.618 -0.0467  0.3267  0.1333
 2948WAT     H112512   2.925   6.961   5.662  1.3111  1.6498 -0.0734
 2948WAT     H212513   2.792   6.996   5.659  0.2262 -2.0573 -0.0326
 2948WAT    EPW12514   2.865   7.001   5.630  0.1942  0.1700  0.0783
 2949WAT      O12515   0.706   3.354   4.293  0.2998 -0.1909 -0.1785
 2949WAT     H112516   0.757   3.339   4.362 -0.3533 -0.1945  0.3088
 2949WAT     H212517   0.761   3.386   4.233  0.5505  1.7003  0.9977
 2949WAT    EPW12518   0.722   3.356   4.294  0.2404  0.0880  0.0672
 2950WAT      O12519   1.598   2.547   5.871  0.1411 -0.3852  0.1679
 2950WAT     H112520   1.513   2.564   5.860  0.3717 -0.0338 -1.1915
 2950WAT     H212521   1.598   2.475   5.920 -0.9715 -0.9029 -0.5533
 2950WAT    EPW12522   1.585   2.538   5.877  0.0108 -0.4098 -0.1395
 2951WAT      O12523   5.662   1.409   6.775 -0.0565  0.5716  0.1501
 2951WAT     H112524   5.744   1.437   6.770  0.0343  0.0982 -2.2603
 2951WAT     H212525   5.664   1.350   6.840  0.5605  3.2165  2.7380
 2951WAT    EPW12526   5.674   1.404   6.784  0.0481  0.8924  0.1763
 2952WAT      O12527   1.410   0.895   2.355  0.2843 -0.4401 -0.1262
 2952WAT     H112528   1.483   0.849   2.348  0.8519  0.5120 -0.5820
 2952WAT     H212529   1.355   0.854   2.301  0.7569 -0.6050 -0.4847
 2952WAT    EPW12530   1.412   0.882   2.346  0.4380 -0.3238 -0.2465
 2953WAT      O12531   1.742   2.795   6.399 -0.0524 -0.1599  0.0934
 2953WAT     H112532   1.813   2.842   6.417  0.1110 -0.5431  0.4668
 2953WAT     H212533   1.689   2.852   6.359  0.0798  0.3737  0.6637
 2953WAT    EPW12534   1.745   2.810   6.396 -0.0087 -0.1376  0.2328
 2954WAT      O12535   6.664   3.889   1.269 -0.0770 -0.4541  0.1756
 2954WAT     H112536   6.672   3.805   1.246 -0.6511 -0.9161  1.5641
 2954WAT     H212537   6.728   3.900   1.328 -0.7319 -0.2614  0.8693
 2954WAT    EPW12538   6.675   3.878   1.275 -0.2586 -0.4939  0.4832
 2955WAT      O12539   6.142   4.181   4.401  0.0527 -0.1207  0.3847
 2955WAT     H112540   6.083   4.158   4.340 -1.1069 -0.8759  1.7235
 2955WAT     H212541   6.124   4.265   4.416  0.9602  0.3423 -0.9298
 2955WAT    EPW12542   6.131   4.190   4.394  0.0155 -0.1639  0.3883
 2956WAT      O12543   3.435   0.939   1.607  0.5668 -0.2625  0.4917
 2956WAT     H112544   3.357   0.925   1.569  1.1110 -0.6802 -0.4831
 2956WAT     H212545   3.414   0.987   1.677 -0.9401 -2.5562  1.8014
 2956WAT    EPW12546   3.420   0.944   1.612  0.4246 -0.6630  0.5411
 2957WAT      O12547   1.999   2.339   4.975  0.3219  0.2225 -0.5018
 2957WAT     H112548   2.011   2.367   4.893  0.4030  1.1966 -0.1621
 2957WAT     H212549   2.077   2.308   4.998  0.4625  0.5244 -0.5728
 2957WAT    EPW12550   2.012   2.338   4.966  0.3547  0.4110 -0.4621
 2958WAT      O12551   0.042   2.612   3.126  0.1944  0.3013  0.6768
 2958WAT     H112552   0.034   2.629   3.041  2.7231 -0.1477  0.2501
 2958WAT     H212553   0.045   2.525   3.129 -0.0555  0.3124  1.2433
 2958WAT    EPW12554   0.041   2.602   3.114  0.5310  0.2366  0.6974
 2959WAT      O12555   0.114   3.370   6.880  0.0003  0.1813 -0.1798
 2959WAT     H112556   0.064   3.411   6.821 -0.3346 -0.7403 -0.5650
 2959WAT     H212557   0.119   3.288   6.849  0.0912 -0.2397  0.8954
 2959WAT    EPW12558   0.107   3.364   6.867 -0.0357 -0.0170 -0.0778
 2960WAT      O12559   0.859   6.058   6.430 -0.3356  0.1434  0.0334
 2960WAT     H112560   0.833   6.029   6.352 -1.7483 -2.2198  1.2787
 2960WAT     H212561   0.946   6.065   6.422 -0.5190  0.5640 -1.8962
 2960WAT    EPW12562   0.868   6.055   6.418 -0.5714 -0.1436 -0.0676
 2961WAT      O12563   0.250   3.325   4.875  0.1146 -0.7726  0.0631
 2961WAT     H112564   0.319   3.378   4.886  0.2317 -0.6479 -1.1031
 2961WAT     H212565   0.238   3.290   4.954  0.8666 -0.0090  0.5346
 2961WAT    EPW12566   0.259   3.328   4.888  0.2430 -0.6413 -0.0396
 2962WAT      O12567   1.772   6.178   5.155  0.2445  0.2102 -0.1051
 2962WAT     H112568   1.859   6.177   5.165  0.2662 -1.0260 -0.3019
 2962WAT     H212569   1.743   6.192   5.236  0.6224  2.0759 -0.2422
 2962WAT    EPW12570   1.781   6.180   5.169  0.3036  0.3032 -0.1545
 2963WAT      O12571   3.918   2.027   4.538  0.1117  0.2204  0.0265
 2963WAT     H112572   3.991   2.062   4.572  0.1594 -0.0718  0.2340
 2963WAT     H212573   3.857   2.086   4.556  0.1408  0.0850  0.6164
 2963WAT    EPW12574   3.920   2.041   4.546  0.1230  0.1572  0.1443
 2964WAT      O12575   0.845   5.543   5.225  0.0273  0.8454  0.0045
 2964WAT     H112576   0.779   5.496   5.195 -1.1024  1.9427  0.6555
 2964WAT     H212577   0.915   5.496   5.205 -1.0430 -1.2001  0.8073
 2964WAT    EPW12578   0.845   5.529   5.218 -0.2977  0.7054  0.2192
 2965WAT      O12579   5.478   7.089   4.994 -0.5939 -1.2135 -0.3203
 2965WAT     H112580   5.411   7.138   4.967 -0.3872 -0.3041  0.7506
 2965WAT     H212581   5.440   7.014   5.018 -1.4035 -0.3250  1.2975
 2965WAT    EPW12582   5.463   7.085   4.993 -0.6830 -0.9479  0.0769
 2966WAT      O12583   6.067   3.495   5.555 -0.1475  0.1232  0.0019
 2966WAT     H112584   6.013   3.554   5.590  1.7847  2.3754 -0.5551
 2966WAT     H212585   6.035   3.483   5.475 -1.3079 -0.6509  0.5548
 2966WAT    EPW12586   6.054   3.502   5.548 -0.0335  0.3415  0.0013
 2967WAT      O12587   2.238   5.967   7.332 -0.4423 -0.1548 -0.0812
 2967WAT     H112588   2.188   5.906   7.369 -0.8558  0.3653  0.2275
 2967WAT     H212589   2.280   5.923   7.269 -0.2628 -0.8946  0.5329
 2967WAT    EPW12590   2.237   5.952   7.328 -0.4769 -0.1872  0.0551
 2968WAT      O12591   1.487   4.047   1.942 -0.0264 -0.0676  0.3677
 2968WAT     H112592   1.431   4.102   1.980  1.9177  1.5987  1.0160
 2968WAT     H212593   1.536   4.018   2.008  0.5099 -0.7076 -0.2906
 2968WAT    EPW12594   1.486   4.051   1.957  0.3400  0.0840  0.3662
 2969WAT      O12595   1.294   0.854   2.117  0.0128 -0.0445 -0.0899
 2969WAT     H112596   1.273   0.776   2.084 -0.4639  0.5361 -1.2104
 2969WAT     H212597   1.222   0.901   2.107  0.9174  1.1388 -1.3295
 2969WAT    EPW12598   1.281   0.849   2.111  0.0760  0.2161 -0.4385
 2970WAT      O12599   2.673   6.748   0.508  0.5847  0.0478 -0.4261
 2970WAT     H112600   2.733   6.705   0.555  0.8896 -0.6959 -1.4856
 2970WAT     H212601   2.658   6.819   0.557  0.6914 -0.8222  0.9405
 2970WAT    EPW12602   2.680   6.752   0.522  0.6455 -0.1906 -0.3807
 2971WAT      O12603   0.470   0.817   6.211  0.1453 -0.5808  0.4233
 2971WAT     H112604   0.386   0.811   6.189  0.0540 -0.8983  0.8495
 2971WAT     H212605   0.472   0.887   6.264  0.6183  1.1757 -1.7236
 2971WAT    EPW12606   0.458   0.827   6.216  0.2017 -0.3683  0.1691
 2972WAT      O12607   1.585   3.210   1.592  0.0865 -0.4797 -0.6079
 2972WAT     H112608   1.500   3.232   1.588 -0.7816 -2.2441  3.1839
 2972WAT     H212609   1.620   3.272   1.642  0.9046 -0.1585 -1.5562
 2972WAT    EPW12610   1.577   3.222   1.599  0.0791 -0.6929 -0.1879
 2973WAT      O12611   3.137   0.988   0.910  0.2354 -0.3905  0.0290
 2973WAT     H112612   3.132   0.911   0.951 -0.2547  0.0361  0.8051
 2973WAT     H212613   3.204   0.978   0.855 -1.1352 -2.0698 -1.4358
 2973WAT    EPW12614   3.146   0.975   0.908 -0.0395 -0.5756 -0.0727
 2974WAT      O12615   0.671   3.791   4.269  0.7340 -0.2713 -0.3221
 2974WAT     H112616   0.587   3.811   4.279  0.9731  0.2576  0.7844
 2974WAT     H212617   0.670   3.711   4.234 -0.2169 -0.2650 -0.3203
 2974WAT    EPW12618   0.659   3.782   4.265  0.6288 -0.1923 -0.1584
 2975WAT      O12619   5.443   3.488   5.905 -0.6987 -0.4513  0.0884
 2975WAT     H112620   5.433   3.538   5.834  2.0073  0.4957  0.2794
 2975WAT     H212621   5.425   3.407   5.875 -0.5553  0.0399 -1.4208
 2975WAT    EPW12622   5.439   3.483   5.890 -0.2778 -0.2389 -0.1063
 2976WAT      O12623   3.937   3.252   2.467  0.1315 -0.2434  0.3010
 2976WAT     H112624   3.958   3.182   2.514  1.7863 -0.9861 -1.3766
 2976WAT     H212625   3.905   3.218   2.393 -3.3122  0.8760  1.0935
 2976WAT    EPW12626   3.936   3.237   2.463 -0.1328 -0.1877  0.1702
 2977WAT      O12627   2.168   0.454   1.624  0.0393 -0.7153  0.1914
 2977WAT     H112628   2.094   0.486   1.590  0.1678 -1.4555 -0.8250
 2977WAT     H212629   2.152   0.451   1.710 -0.2238  1.4228  0.2754
 2977WAT    EPW12630   2.155   0.459   1.632  0.0194 -0.5088  0.0536
 2978WAT      O12631   1.714   2.180   3.869 -0.2563 -0.0119  0.2260
 2978WAT     H112632   1.780   2.129   3.844 -0.7620 -0.7507  0.3562
 2978WAT     H212633   1.656   2.123   3.902 -1.2459  0.5324 -0.5270
 2978WAT    EPW12634   1.715   2.164   3.870 -0.4772 -0.0406  0.1340
 2979WAT      O12635   0.755   7.104   6.355 -0.3751 -0.4593  0.9830
 2979WAT     H112636   0.675   7.074   6.338 -0.0167  0.2134 -3.0028
 2979WAT     H212637   0.808   7.045   6.318  0.6246  1.4963 -0.9641
 2979WAT    EPW12638   0.751   7.091   6.347 -0.1745 -0.0710  0.1066
 2980WAT      O12639   1.818   5.981   1.733  0.0151  0.6907  0.1013
 2980WAT     H112640   1.904   5.982   1.716  0.6544 -2.7920  2.1844
 2980WAT     H212641   1.802   6.061   1.765  1.9430  2.1190 -2.1988
 2980WAT    EPW12642   1.828   5.993   1.735  0.3943  0.3873  0.0693
 2981WAT      O12643   3.721   2.906   2.006 -0.5461 -0.2606  0.3088
 2981WAT     H112644   3.686   2.974   2.048  0.4776  0.2438  0.3721
 2981WAT     H212645   3.691   2.837   2.050 -0.4804  0.2144  1.1096
 2981WAT    EPW12646   3.711   2.906   2.019 -0.3852 -0.1159  0.4364
 2982WAT      O12647   1.935   0.585   3.288 -0.2183 -0.0695  0.5543
 2982WAT     H112648   1.937   0.668   3.262 -1.9089  0.0789  0.7640
 2982WAT     H212649   1.888   0.546   3.225  0.1330 -0.7612  0.7218
 2982WAT    EPW12650   1.928   0.592   3.275 -0.4161 -0.1498  0.6100
 2983WAT      O12651   3.806   4.296   4.175 -0.0376  0.6005 -0.1607
 2983WAT     H112652   3.888   4.292   4.207 -0.3507 -0.7775  0.5832
 2983WAT     H212653   3.783   4.212   4.171  0.0704  0.5397 -4.4471
 2983WAT    EPW12654   3.815   4.283   4.179 -0.0679  0.3879 -0.6840
 2984WAT      O12655   1.061   4.050   1.226 -0.0558 -0.2290 -0.1238
 2984WAT     H112656   1.101   4.068   1.150 -0.5110 -0.7355 -0.4909
 2984WAT     H212657   1.000   3.991   1.203  0.8601 -1.6197  0.9124
 2984WAT    EPW12658   1.058   4.044   1.211  0.0123 -0.5092 -0.0250
 2985WAT      O12659   5.011   2.014   4.595 -0.2226 -0.2185 -0.2975
 2985WAT     H112660   5.041   1.987   4.518 -1.0233  0.9504 -1.0623
 2985WAT     H212661   5.083   2.020   4.645  0.5254  0.4083 -1.4027
 2985WAT    EPW12662   5.026   2.011   4.591 -0.2304  0.0467 -0.5737
 2986WAT      O12663   2.827   5.648   4.553  0.1404 -0.0543  0.1951
 2986WAT     H112664   2.903   5.606   4.564  1.5714  2.2334 -0.3314
 2986WAT     H212665   2.768   5.592   4.585  1.9117 -2.3272 -0.2403
 2986WAT    EPW12666   2.829   5.633   4.560  0.6134 -0.0521  0.0530
 2987WAT      O12667   0.086   4.318   4.127 -0.0259  0.2014  0.0099
 2987WAT     H112668   0.095   4.249   4.074 -0.7709  1.5931 -2.0614
 2987WAT     H212669   0.168   4.334   4.154  0.0438 -2.0027  1.3131
 2987WAT    EPW12670   0.100   4.310   4.123 -0.1257  0.0814 -0.1036
 2988WAT      O12671   6.915   4.840   1.013 -0.3434 -0.6631  0.2917
 2988WAT     H112672   6.832   4.856   1.033 -0.4894 -1.4544  0.3601
 2988WAT     H212673   6.948   4.809   1.088  0.1615  0.1376  0.4207
 2988WAT    EPW12674   6.907   4.838   1.027 -0.2903 -0.6617  0.3209
 2989WAT      O12675   4.463   0.317   6.872  0.5714 -0.1646 -0.4027
 2989WAT     H112676   4.455   0.335   6.957  1.3758 -2.2625  0.1562
 2989WAT     H212677   4.536   0.359   6.849  0.6679 -0.0556  0.0871
 2989WAT    EPW12678   4.472   0.326   6.881  0.7045 -0.4584 -0.2478
 2990WAT      O12679   2.289   1.442   2.858  0.4863  0.4542  0.1733
 2990WAT     H112680   2.229   1.445   2.921  0.6349  1.7687  0.2850
 2990WAT     H212681   2.260   1.500   2.799 -0.1565 -1.4178 -1.4765
 2990WAT    EPW12682   2.276   1.451   2.858  0.4133  0.3719 -0.0539
 2991WAT      O12683   3.906   7.092   3.531 -0.1215 -0.1451 -0.6124
 2991WAT     H112684   3.964   7.095   3.466 -1.6022 -0.6967 -2.0317
 2991WAT     H212685   3.931   7.024   3.578  1.2886  0.5797 -0.2446
 2991WAT    EPW12686   3.918   7.083   3.528 -0.1319 -0.1195 -0.7677
 2992WAT      O12687   1.363   0.217   6.924  0.8759 -0.4547  0.3332
 2992WAT     H112688   1.450   0.213   6.932  0.7964 -0.0548  1.4557
 2992WAT     H212689   1.344   0.301   6.939  0.2664 -0.5818  0.3163
 2992WAT    EPW12690   1.373   0.229   6.927  0.7741 -0.4144  0.4965
 2993WAT      O12691   2.997   0.614   0.594 -0.2292  0.5588 -0.2228
 2993WAT     H112692   2.939   0.678   0.586 -0.9549 -0.1894 -1.1334
 2993WAT     H212693   2.987   0.567   0.521  0.8130 -0.1693  0.0669
 2993WAT    EPW12694   2.987   0.616   0.582 -0.1824  0.3407 -0.3146
 2994WAT      O12695   5.234   5.863   1.797  0.3042 -0.0191  0.5850
 2994WAT     H112696   5.302   5.899   1.756 -1.3200 -0.9479 -3.4461
 2994WAT     H212697   5.248   5.778   1.791 -0.6875 -0.2050  0.6399
 2994WAT    EPW12698   5.246   5.856   1.790 -0.0822 -0.1838 -0.0024
 2995WAT      O12699   6.190   2.813   5.281  0.6163  0.3282  0.2064
 2995WAT     H112700   6.179   2.845   5.200  0.6101 -0.2658 -0.0389
 2995WAT     H212701   6.152   2.734   5.276 -0.9841  0.9953  1.3133
 2995WAT    EPW12702   6.183   2.806   5.268  0.3790  0.3390  0.3337
 2996WAT      O12703   5.720   2.061   2.005  0.3030 -0.4168 -0.3629
 2996WAT     H112704   5.636   2.073   2.027  0.7545  0.4994  1.0350
 2996WAT     H212705   5.731   1.975   2.012 -0.1556 -0.3934  0.9570
 2996WAT    EPW12706   5.709   2.050   2.009  0.3020 -0.2780  0.0385
 2997WAT      O12707   3.343   1.675   2.989  0.1963  0.7268 -0.7961
 2997WAT     H112708   3.257   1.663   2.976  0.2476  0.5787 -0.9924
 2997WAT     H212709   3.370   1.600   3.023  0.0725  1.0930  0.1615
 2997WAT    EPW12710   3.334   1.662   2.992  0.1856  0.7591 -0.6837
 2998WAT      O12711   0.156   5.666   2.865 -0.3012  0.1624  0.0251
 2998WAT     H112712   0.112   5.741   2.857 -1.0723 -0.2457  0.3835
 2998WAT     H212713   0.231   5.682   2.822 -0.2202  1.3191  0.5513
 2998WAT    EPW12714   0.161   5.680   2.858 -0.4031  0.2730  0.1558
 2999WAT      O12715   0.639   1.013   6.727  0.3687 -0.4202  0.7482
 2999WAT     H112716   0.662   0.934   6.697  0.0563 -0.7871  1.4353
 2999WAT     H212717   0.713   1.058   6.727  0.2655 -0.1316 -1.3045
 2999WAT    EPW12718   0.653   1.008   6.722  0.3073 -0.4317  0.5464
 3000WAT      O12719   6.666   1.694   0.044 -0.3057 -0.0930 -0.3519
 3000WAT     H112720   6.687   1.610   0.042  0.1284  0.0247 -1.5412
 3000WAT     H212721   6.744   1.735   0.037 -0.4645  0.4264  0.6367
 3000WAT    EPW12722   6.681   1.688   0.043 -0.2651  0.0011 -0.3815
 3001WAT      O12723   4.364   4.843   4.397  0.3808 -0.6116  0.0304
 3001WAT     H112724   4.366   4.783   4.333 -2.5080  0.1687 -0.9157
 3001WAT     H212725   4.350   4.796   4.469 -0.0792 -1.2312 -0.4531
 3001WAT    EPW12726   4.363   4.827   4.398 -0.1139 -0.5878 -0.1808
 3002WAT      O12727   0.443   1.514   2.824  0.3081 -0.2430 -0.3743
 3002WAT     H112728   0.503   1.552   2.774 -0.7073  0.8241 -0.8200
 3002WAT     H212729   0.378   1.497   2.769 -0.6129  0.4670  0.4680
 3002WAT    EPW12730   0.443   1.517   2.808  0.0221  0.0195 -0.3157
 3003WAT      O12731   5.425   5.048   5.229  0.0703 -0.3690  0.3381
 3003WAT     H112732   5.471   5.066   5.157  1.0139 -0.0350  1.0071
 3003WAT     H212733   5.371   4.985   5.204  0.2779 -0.1430 -0.7047
 3003WAT    EPW12734   5.424   5.041   5.215  0.2404 -0.2863  0.2828
 3004WAT      O12735   4.767   6.647   6.753 -0.4954 -0.1803  0.3844
 3004WAT     H112736   4.751   6.712   6.810  2.0333  0.1090  0.8739
 3004WAT     H212737   4.828   6.599   6.793  0.5623 -0.6055 -1.6145
 3004WAT    EPW12738   4.774   6.650   6.767  0.0344 -0.2004  0.1614
 3005WAT      O12739   0.230   6.688   3.298  1.0644 -0.5612 -0.2728
 3005WAT     H112740   0.210   6.621   3.246 -1.1294 -0.5279  0.4337
 3005WAT     H212741   0.295   6.656   3.347  0.0948 -2.2017  0.0281
 3005WAT    EPW12742   0.237   6.673   3.298  0.5971 -0.7986 -0.1240
 3006WAT      O12743   3.954   4.547   2.331  0.0780  0.8427 -0.2112
 3006WAT     H112744   3.900   4.512   2.389  1.5095 -1.1622  0.0219
 3006WAT     H212745   3.902   4.595   2.280 -1.5209  0.9135  1.3990
 3006WAT    EPW12746   3.939   4.549   2.332  0.0533  0.5570  0.0611
 3007WAT      O12747   0.596   0.804   1.847 -0.4978 -0.1563  0.4213
 3007WAT     H112748   0.565   0.885   1.838  0.0783  0.1906  1.3947
 3007WAT     H212749   0.658   0.799   1.786 -1.2881 -0.2723 -0.3980
 3007WAT    EPW12750   0.601   0.815   1.836 -0.5294 -0.1222  0.4441
 3008WAT      O12751   7.259   3.320   4.089  0.0455  0.2960 -0.1576
 3008WAT     H112752   7.251   3.253   4.144  1.9234 -0.5101 -0.7786
 3008WAT     H212753   7.321   3.369   4.125 -1.7994  2.1483  0.6567
 3008WAT    EPW12754   7.267   3.317   4.102  0.0503  0.4505 -0.1291
 3009WAT      O12755   0.626   5.858   0.525  0.1469 -0.3790  0.8051
 3009WAT     H112756   0.711   5.860   0.507 -0.1666 -1.4850 -1.1015
 3009WAT     H212757   0.619   5.908   0.596  1.8821  2.5813 -0.9178
 3009WAT    EPW12758   0.638   5.865   0.533  0.3570 -0.1051  0.2690
 3010WAT      O12759   0.815   2.422   3.431  0.0181 -0.4603  0.4538
 3010WAT     H112760   0.884   2.475   3.437 -1.1805  1.3462 -0.8178
 3010WAT     H212761   0.842   2.349   3.472  2.0763  0.7485  1.4336
 3010WAT    EPW12762   0.829   2.419   3.438  0.1451 -0.0149  0.4107
 3011WAT      O12763   7.033   0.390   6.560 -0.5709  0.1627  0.0714
 3011WAT     H112764   7.104   0.427   6.524 -0.9278 -1.2153 -2.2662
 3011WAT     H212765   7.058   0.307   6.573 -1.9923 -0.6085 -1.7475
 3011WAT    EPW12766   7.047   0.383   6.557 -0.8336 -0.1548 -0.5426
 3012WAT      O12767   4.056   3.639   1.036 -0.5002  0.2884  0.4764
 3012WAT     H112768   4.044   3.554   1.022 -0.5390  0.5519 -1.4410
 3012WAT     H212769   3.975   3.672   1.034 -0.3618  0.6936 -1.8122
 3012WAT    EPW12770   4.042   3.631   1.033 -0.4855  0.3872 -0.1449
 3013WAT      O12771   1.138   1.482   3.232  0.3082 -0.2672 -0.2184
 3013WAT     H112772   1.214   1.524   3.227 -0.4387  1.1109 -0.3979
 3013WAT     H212773   1.108   1.503   3.312  1.1241 -2.6656  0.8067
 3013WAT    EPW12774   1.145   1.491   3.243  0.3184 -0.4179 -0.0935
 3014WAT      O12775   6.476   6.362   0.089  0.1718 -0.3047 -0.2181
 3014WAT     H112776   6.475   6.295   0.033  0.0439 -0.3818 -0.1228
 3014WAT     H212777   6.462   6.324   0.167 -0.3476 -0.1159 -0.2177
 3014WAT    EPW12778   6.474   6.346   0.092  0.0762 -0.2882 -0.2040
 3015WAT      O12779   0.887   1.068   4.385  0.0247  0.4753 -0.0950
 3015WAT     H112780   0.860   1.150   4.374 -0.7958  0.2298  0.0297
 3015WAT     H212781   0.973   1.073   4.372  0.0864  1.4771  0.5975
 3015WAT    EPW12782   0.896   1.081   4.382 -0.0874  0.5870  0.0257
 3016WAT      O12783   0.022   7.103   1.001  0.6242 -0.1238  0.2108
 3016WAT     H112784   0.005   7.017   1.004  0.4611 -0.0733  1.3645
 3016WAT     H212785   0.084   7.113   1.062 -0.8905  0.8687  1.6989
 3016WAT    EPW12786   0.029   7.092   1.011  0.3763  0.0303  0.6010
 3017WAT      O12787   3.345   7.039   5.930 -0.2772  0.0916  0.4318
 3017WAT     H112788   3.358   7.125   5.928 -0.1418  0.0758 -1.9664
 3017WAT     H212789   3.259   7.032   5.947  0.0389  0.5612  2.6317
 3017WAT    EPW12790   3.334   7.051   5.932 -0.2106  0.1586  0.4025
 3018WAT      O12791   4.212   7.104   3.633  0.0111 -0.1189 -0.0794
 3018WAT     H112792   4.258   7.056   3.577 -0.5778 -0.1895 -0.5093
 3018WAT     H212793   4.167   7.045   3.679  1.1640 -0.1203  1.0967
 3018WAT    EPW12794   4.212   7.088   3.632  0.0944 -0.1295  0.0308
 3019WAT      O12795   1.285   6.559   6.613  0.1963  0.2415 -0.0475
 3019WAT     H112796   1.370   6.558   6.630  0.3017 -0.0704 -0.5840
 3019WAT     H212797   1.265   6.475   6.600 -0.4083  0.1858  1.0929
 3019WAT    EPW12798   1.294   6.547   6.614  0.1226  0.1872  0.0417
 3020WAT      O12799   0.262   2.897   3.992  0.2460  0.0914  0.0337
 3020WAT     H112800   0.316   2.885   3.925 -0.4555  1.7196 -0.8896
 3020WAT     H212801   0.289   2.972   4.027 -0.1212 -0.1530  0.8762
 3020WAT    EPW12802   0.274   2.906   3.987  0.0882  0.2958  0.0218
 3021WAT      O12803   3.715   2.169   6.889 -0.1440 -0.4205 -0.1463
 3021WAT     H112804   3.745   2.095   6.854  0.2757 -0.1637 -0.3319
 3021WAT     H212805   3.774   2.228   6.867  0.9368 -0.5040  2.1759
 3021WAT    EPW12806   3.728   2.167   6.881  0.0776 -0.3949  0.1693
 3022WAT      O12807   5.604   0.301   1.525 -0.0193 -0.3656 -0.0217
 3022WAT     H112808   5.584   0.283   1.442 -1.5606 -0.3108  0.3265
 3022WAT     H212809   5.672   0.356   1.518 -0.0011 -0.5219 -1.2347
 3022WAT    EPW12810   5.611   0.306   1.511 -0.2443 -0.3806 -0.1495
 3023WAT      O12811   3.994   0.799   7.076  0.3704  0.0167  0.2769
 3023WAT     H112812   4.037   0.796   7.152  0.6713 -0.0602  0.1089
 3023WAT     H212813   3.934   0.736   7.084 -0.1749  0.6051  0.7857
 3023WAT    EPW12814   3.992   0.789   7.088  0.3343  0.0922  0.3273
 3024WAT      O12815   6.872   1.900   2.519  0.8022 -0.0476  0.1545
 3024WAT     H112816   6.818   1.850   2.472  1.4803 -0.2995 -0.3657
 3024WAT     H212817   6.851   1.880   2.602 -0.5291  0.5451 -0.0264
 3024WAT    EPW12818   6.861   1.890   2.525  0.7057  0.0027  0.0509
 3025WAT      O12819   5.007   7.223   6.031 -0.2896  0.1781  0.2943
 3025WAT     H112820   5.090   7.206   6.053  0.2936  1.3790 -0.8516
 3025WAT     H212821   5.013   7.249   5.948 -1.7039  1.1141  0.4535
 3025WAT    EPW12822   5.020   7.224   6.022 -0.4124  0.4938  0.1485
 3026WAT      O12823   0.828   4.809   4.087  0.3913  0.0604  0.1007
 3026WAT     H112824   0.830   4.773   4.007  1.2021 -0.5604  0.3829
 3026WAT     H212825   0.804   4.743   4.138 -1.2060  0.7333  0.2476
 3026WAT    EPW12826   0.825   4.794   4.083  0.2751  0.0681  0.1641
 3027WAT      O12827   3.615   6.331   0.825 -0.0427 -0.2904  0.3794
 3027WAT     H112828   3.565   6.372   0.884  0.2431  1.1636 -0.3504
 3027WAT     H212829   3.616   6.248   0.854 -1.4658 -0.0195  1.3532
 3027WAT    EPW12830   3.608   6.325   0.838 -0.2107 -0.0356  0.4155
 3028WAT      O12831   4.952   3.864   0.389  0.2492 -0.2712  0.0192
 3028WAT     H112832   4.994   3.813   0.332  1.9934  2.4743 -1.3324
 3028WAT     H212833   5.009   3.928   0.406 -2.8736  3.2243 -1.1896
 3028WAT    EPW12834   4.967   3.866   0.383  0.0455  0.6507 -0.3590
 3029WAT      O12835   3.149   2.409   2.993  0.1537  0.3857 -0.0530
 3029WAT     H112836   3.072   2.412   2.952 -0.0286 -2.2083 -0.0102
 3029WAT     H212837   3.205   2.381   2.932  0.7342  0.5812  0.3721
 3029WAT    EPW12838   3.146   2.406   2.978  0.2126  0.0314  0.0161
 3030WAT      O12839   6.387   0.426   1.086 -0.1597 -0.4105  0.1292
 3030WAT     H112840   6.350   0.469   1.021 -1.1728 -1.8784 -0.3103
 3030WAT     H212841   6.328   0.365   1.107 -0.4991  0.8412  3.3745
 3030WAT    EPW12842   6.373   0.423   1.080 -0.3595 -0.4424  0.5437
 3031WAT      O12843   1.603   2.103   6.670  0.1841  0.5099 -0.1356
 3031WAT     H112844   1.585   2.143   6.745 -0.5188  0.7855 -0.4446
 3031WAT     H212845   1.670   2.050   6.690  0.6180  1.2743  0.4487
 3031WAT    EPW12846   1.611   2.101   6.684  0.1444  0.6635 -0.0950
 3032WAT      O12847   6.034   4.432   2.939 -0.0423 -0.6692 -0.6357
 3032WAT     H112848   5.998   4.439   2.860 -1.5586  0.0062  0.0786
 3032WAT     H212849   5.967   4.416   2.992  0.3980  2.0741  0.9658
 3032WAT    EPW12850   6.019   4.431   2.935 -0.2012 -0.1642 -0.2936
 3033WAT      O12851   4.017   5.176   0.974 -0.5889 -0.0489 -0.2549
 3033WAT     H112852   3.986   5.219   1.043 -1.8508  0.3290 -1.0092
 3033WAT     H212853   4.049   5.239   0.923  0.2968 -0.3203 -0.0459
 3033WAT    EPW12854   4.017   5.192   0.977 -0.6444 -0.0332 -0.3355
 3034WAT      O12855   6.722   3.678   1.772  0.3539 -0.0651 -0.4784
 3034WAT     H112856   6.751   3.722   1.841  0.4310  0.3403 -0.7649
 3034WAT     H212857   6.774   3.705   1.707  1.2088 -1.4864 -0.4272
 3034WAT    EPW12858   6.734   3.689   1.772  0.4916 -0.2152 -0.5132
 3035WAT      O12859   2.407   2.789   2.658  0.5081 -0.1614 -0.4453
 3035WAT     H112860   2.344   2.730   2.669  0.6656 -0.3122 -0.3435
 3035WAT     H212861   2.385   2.830   2.585  0.0982  0.0286 -0.2205
 3035WAT    EPW12862   2.394   2.786   2.649  0.4708 -0.1556 -0.3970
 3036WAT      O12863   2.635   6.627   6.053  0.2277 -0.2379 -0.2656
 3036WAT     H112864   2.588   6.627   5.980 -2.4899  0.4426  1.3644
 3036WAT     H212865   2.666   6.546   6.058 -1.5117 -0.9933 -1.0155
 3036WAT    EPW12866   2.633   6.615   6.043 -0.4307 -0.2490 -0.1356
 3037WAT      O12867   3.662   0.473   4.805 -0.5976 -0.1378  0.5899
 3037WAT     H112868   3.627   0.531   4.750 -0.4919 -1.7755 -1.3240
 3037WAT     H212869   3.613   0.401   4.794  0.1085 -0.8647  1.8597
 3037WAT    EPW12870   3.650   0.471   4.796 -0.4777 -0.4871  0.4947
 3038WAT      O12871   3.273   5.410   5.230 -0.0694  0.3003 -0.1454
 3038WAT     H112872   3.328   5.474   5.250  1.0256 -0.2270 -1.2897
 3038WAT     H212873   3.311   5.339   5.265  0.0292 -0.0717 -0.9688
 3038WAT    EPW12874   3.287   5.409   5.238  0.1069  0.1674 -0.4360
 3039WAT      O12875   2.093   2.023   1.141  0.2496 -0.0561 -0.2895
 3039WAT     H112876   2.013   2.058   1.141 -0.3410 -1.2199  2.1834
 3039WAT     H212877   2.145   2.093   1.146 -0.6570  0.6513 -0.3226
 3039WAT    EPW12878   2.089   2.039   1.142  0.0284 -0.1235  0.0709
 3040WAT      O12879   5.067   5.132   5.067 -0.3267 -0.0375 -0.1730
 3040WAT     H112880   5.084   5.143   5.152 -0.9248  1.4801 -0.2146
 3040WAT     H212881   5.015   5.062   5.066  0.9933 -1.0669  0.5283
 3040WAT    EPW12882   5.062   5.124   5.079 -0.2201  0.0346 -0.0755
 3041WAT      O12883   6.448   5.405   2.920  0.0736 -1.0338  0.8913
 3041WAT     H112884   6.418   5.462   2.979 -0.7793 -0.6483  0.1017
 3041WAT     H212885   6.402   5.423   2.849  1.3952 -1.1993 -0.0456
 3041WAT    EPW12886   6.437   5.416   2.919  0.1428 -1.0013  0.6363
 3042WAT      O12887   5.662   1.143   4.640  0.0482  0.8134  0.2794
 3042WAT     H112888   5.601   1.090   4.671  0.8184 -0.8204 -0.8339
 3042WAT     H212889   5.736   1.099   4.652  0.5050  0.5224 -2.7838
 3042WAT    EPW12890   5.664   1.129   4.646  0.2295  0.5290 -0.3376
 3043WAT      O12891   4.808   2.775   3.665  0.4487 -0.1357  0.1384
 3043WAT     H112892   4.864   2.820   3.715  0.9918  0.2383 -0.7786
 3043WAT     H212893   4.835   2.692   3.673  1.0444  0.0223 -0.1658
 3043WAT    EPW12894   4.820   2.769   3.674  0.6169 -0.0571 -0.0420
 3044WAT      O12895   2.753   3.278   3.428  0.3343 -0.2509  0.3515
 3044WAT     H112896   2.667   3.267   3.443  0.7688 -2.3653  1.7038
 3044WAT     H212897   2.756   3.349   3.377 -2.0878  0.9994  1.7406
 3044WAT    EPW12898   2.740   3.287   3.423  0.0407 -0.3785  0.7565
 3045WAT      O12899   4.999   1.514   3.504 -0.3758  0.1714 -0.0730
 3045WAT     H112900   4.977   1.515   3.589  0.6076  1.8016  0.2021
 3045WAT     H212901   4.943   1.569   3.467 -1.6218 -1.4598 -0.7751
 3045WAT    EPW12902   4.987   1.522   3.511 -0.4146  0.1713 -0.1361
 3046WAT      O12903   6.098   1.016   3.816  0.1276 -0.5115 -0.2119
 3046WAT     H112904   6.060   0.999   3.892 -0.7363  1.1760 -0.2278
 3046WAT     H212905   6.047   0.975   3.758 -2.1297  2.0960 -0.2853
 3046WAT    EPW12906   6.085   1.007   3.819 -0.3334  0.1229 -0.2251
 3047WAT      O12907   6.503   3.521   1.350  0.1854 -0.6387 -0.2694
 3047WAT     H112908   6.466   3.573   1.409 -0.1362 -0.4639 -0.6185
 3047WAT     H212909   6.441   3.461   1.333  0.5951 -1.2090  0.2171
 3047WAT    EPW12910   6.488   3.520   1.356  0.1984 -0.6971 -0.2491
 3048WAT      O12911   0.477   1.879   7.053 -0.3973 -0.4167 -0.3085
 3048WAT     H112912   0.404   1.926   7.054  0.2971  0.7613 -1.1836
 3048WAT     H212913   0.517   1.905   6.980  0.2158 -2.1227 -0.6420
 3048WAT    EPW12914   0.472   1.890   7.042 -0.2042 -0.4947 -0.4870
 3049WAT      O12915   2.429   0.043   0.312 -0.5626 -0.2753 -0.4186
 3049WAT     H112916   2.381   0.088   0.369 -1.3918 -0.4270 -0.9771
 3049WAT     H212917   2.508   0.079   0.319 -0.8788  0.3270  0.1469
 3049WAT    EPW12918   2.433   0.055   0.321 -0.7318 -0.2087 -0.4176
 3050WAT      O12919   3.439   0.447   0.470  0.0941 -0.7680 -0.3165
 3050WAT     H112920   3.425   0.397   0.540 -0.9964  1.4729  1.2018
 3050WAT     H212921   3.377   0.508   0.476 -0.2737 -0.6532 -3.4763
 3050WAT    EPW12922   3.428   0.449   0.481 -0.1213 -0.4200 -0.5590
 3051WAT      O12923   6.236   5.822   1.808 -0.4473 -0.2330  0.8190
 3051WAT     H112924   6.202   5.797   1.885  0.1293  0.2319  1.2376
 3051WAT     H212925   6.318   5.793   1.813  0.5716  2.4984  1.7428
 3051WAT    EPW12926   6.243   5.814   1.820 -0.2116  0.2392  1.0173
 3052WAT      O12927   0.106   3.138   5.734 -0.7458 -0.9102 -0.0358
 3052WAT     H112928   0.162   3.086   5.691  1.8477  2.4283 -1.1870
 3052WAT     H212929   0.063   3.178   5.670 -1.6440 -0.5707  0.7632
 3052WAT    EPW12930   0.108   3.136   5.718 -0.4954 -0.3669 -0.0878
 3053WAT      O12931   2.589   3.142   5.714 -0.1305  0.4034 -0.5446
 3053WAT     H112932   2.577   3.109   5.794 -2.0561 -0.2337 -1.0326
 3053WAT     H212933   2.667   3.180   5.719  0.0649 -0.1331  1.4591
 3053WAT    EPW12934   2.598   3.143   5.727 -0.3861  0.2300 -0.3207
 3054WAT      O12935   2.400   0.022   4.554 -0.6659 -0.0733 -0.3143
 3054WAT     H112936   2.376  -0.013   4.630 -0.9491  0.7149 -0.0352
 3054WAT     H212937   2.325   0.041   4.515 -0.6613  3.8660  1.2252
 3054WAT    EPW12938   2.386   0.020   4.559 -0.7071  0.6251 -0.0456
 3055WAT      O12939   1.318   3.605   3.875 -0.2996 -0.1632 -0.5817
 3055WAT     H112940   1.261   3.611   3.809 -1.2318  0.1284  0.2297
 3055WAT     H212941   1.301   3.528   3.911 -0.7105  0.2384  0.1162
 3055WAT    EPW12942   1.308   3.595   3.870 -0.4980 -0.0608 -0.3588
 3056WAT      O12943   2.742   4.991   6.044 -0.2106 -0.6380 -0.4821
 3056WAT     H112944   2.771   5.071   6.025 -1.5333  0.0538  0.2352
 3056WAT     H212945   2.798   4.963   6.105 -1.0092  0.7155  0.9659
 3056WAT    EPW12946   2.754   4.999   6.050 -0.5240 -0.3359 -0.1623
 3057WAT      O12947   4.679   0.128   5.888  0.2071 -0.3917 -0.3172
 3057WAT     H112948   4.658   0.180   5.820  1.9351  0.9842  0.1187
 3057WAT     H212949   4.714   0.058   5.850  1.0048  0.2943 -0.9009
 3057WAT    EPW12950   4.681   0.125   5.872  0.5802 -0.0871 -0.3390
 3058WAT      O12951   6.611   0.582   1.710 -0.3924  0.2104  0.0525
 3058WAT     H112952   6.532   0.607   1.736 -0.1865 -0.2459  1.1835
 3058WAT     H212953   6.653   0.566   1.785  0.1533 -1.3973 -0.5550
 3058WAT    EPW12954   6.606   0.583   1.725 -0.2814 -0.0945  0.1298
 3059WAT      O12955   6.531   2.161   4.545 -0.4611 -0.4372  0.0011
 3059WAT     H112956   6.506   2.139   4.464 -0.7551  3.0598 -1.0519
 3059WAT     H212957   6.607   2.203   4.532 -0.0815 -0.5399  1.6584
 3059WAT    EPW12958   6.539   2.164   4.531 -0.4485  0.0642  0.0903
 3060WAT      O12959   2.675   0.596   6.234 -0.2788  0.2336 -0.7861
 3060WAT     H112960   2.711   0.662   6.279  1.2388 -0.9387 -0.1705
 3060WAT     H212961   2.657   0.631   6.156  0.7011  1.3325 -0.5487
 3060WAT    EPW12962   2.678   0.611   6.229  0.0901  0.2228 -0.6601
 3061WAT      O12963   7.082   2.105   6.588 -0.7053 -0.3513 -0.9537
 3061WAT     H112964   7.112   2.037   6.542  1.0731 -1.0310  1.0746
 3061WAT     H212965   7.019   2.070   6.637 -0.1072 -0.4408 -0.2453
 3061WAT    EPW12966   7.077   2.089   6.588 -0.3542 -0.4650 -0.5494
 3062WAT      O12967   2.350   0.973   4.685 -0.6059  0.1684  0.5489
 3062WAT     H112968   2.334   0.988   4.600  1.8402 -0.5945 -0.1196
 3062WAT     H212969   2.362   1.053   4.718  0.6377  0.3721 -0.3427
 3062WAT    EPW12970   2.349   0.987   4.677 -0.0609  0.0858  0.3184
 3063WAT      O12971   0.707   3.899   2.439 -0.3287 -0.1445 -0.0335
 3063WAT     H112972   0.735   3.859   2.512  0.9231  1.9096  0.6973
 3063WAT     H212973   0.761   3.870   2.378 -0.8479 -1.2280 -0.0140
 3063WAT    EPW12974   0.719   3.888   2.441 -0.2205 -0.0011  0.0773
 3064WAT      O12975   4.629   5.141   5.841 -0.3345  0.5012  0.1010
 3064WAT     H112976   4.609   5.056   5.842 -3.4951  1.0281  3.4656
 3064WAT     H212977   4.699   5.146   5.893  0.4596 -0.0969 -0.8837
 3064WAT    EPW12978   4.636   5.129   5.849 -0.6841  0.4907  0.4526
 3065WAT      O12979   3.545   5.464   2.868 -0.1042 -0.2961  0.0907
 3065WAT     H112980   3.588   5.489   2.940 -0.5491  0.3955  0.1367
 3065WAT     H212981   3.464   5.449   2.897 -0.6165  1.2035 -0.4375
 3065WAT    EPW12982   3.540   5.466   2.883 -0.2456  0.0276  0.0195
 3066WAT      O12983   1.754   4.931   3.318 -0.1970  0.0150  0.4688
 3066WAT     H112984   1.817   4.922   3.259  1.3870 -1.4575  2.2635
 3066WAT     H212985   1.685   4.895   3.280  0.6716 -0.5466 -0.6271
 3066WAT    EPW12986   1.753   4.925   3.303  0.1653 -0.2855  0.5721
 3067WAT      O12987   6.711   0.060   6.972  0.1798 -0.3761 -0.4662
 3067WAT     H112988   6.633   0.035   7.001 -0.3023  0.7932 -0.6822
 3067WAT     H212989   6.752  -0.015   6.955 -0.9941 -1.0056 -0.6032
 3067WAT    EPW12990   6.706   0.045   6.974 -0.0648 -0.2964 -0.5183
 3068WAT      O12991   5.586   1.520   2.873  0.1417  0.0097 -0.2851
 3068WAT     H112992   5.500   1.534   2.867 -0.4376  0.7958  4.9588
 3068WAT     H212993   5.617   1.596   2.903  2.3788 -0.7634 -0.4282
 3068WAT    EPW12994   5.578   1.533   2.877  0.3866  0.0116  0.4684
 3069WAT      O12995   0.403   2.405   4.108  0.4801  0.1487  0.2556
 3069WAT     H112996   0.340   2.409   4.047 -0.7548 -2.0541  1.2704
 3069WAT     H212997   0.422   2.320   4.112  0.7747  0.2723  2.6826
 3069WAT    EPW12998   0.396   2.393   4.100  0.3412 -0.1584  0.7640
 3070WAT      O12999   6.471   4.728   5.368 -0.1788 -0.0826 -0.0357
 3070WAT     H113000   6.530   4.693   5.314  0.7226 -0.3951  1.0973
 3070WAT     H213001   6.450   4.662   5.421  1.0219  0.8371  1.6984
 3070WAT    EPW13002   6.477   4.713   5.368  0.1317  0.0071  0.3879
 3071WAT      O13003   0.880   5.019   5.941 -0.1498  0.6183  0.9412
 3071WAT     H113004   0.925   4.946   5.926  0.5248  1.0314  0.8832
 3071WAT     H213005   0.834   5.031   5.868  0.2444  0.6096  0.6909
 3071WAT    EPW13006   0.880   5.010   5.928  0.0081  0.6780  0.8956
 3072WAT      O13007   3.217   2.311   7.129  0.1789  0.1555  0.3464
 3072WAT     H113008   3.164   2.375   7.154  0.4804  0.3088  0.6003
 3072WAT     H213009   3.264   2.346   7.065  1.3605  0.6616  1.4687
 3072WAT    EPW13010   3.216   2.326   7.123  0.3980  0.2529  0.5497
 3073WAT      O13011   3.489   5.838   6.539 -0.0935  0.0064  0.3298
 3073WAT     H113012   3.518   5.881   6.469 -1.7540  1.3411  0.4085
 3073WAT     H213013   3.517   5.756   6.526 -0.5256  0.1686 -1.9815
 3073WAT    EPW13014   3.498   5.832   6.527 -0.4026  0.2275 -0.0000
 3074WAT      O13015   1.449   0.215   2.324  0.2694  0.3818 -0.2062
 3074WAT     H113016   1.494   0.143   2.302 -0.5657 -0.5133  0.9389
 3074WAT     H213017   1.403   0.232   2.252  1.9216  0.9635 -1.1912
 3074WAT    EPW13018   1.449   0.207   2.310  0.3901  0.3355 -0.1825
 3075WAT      O13019   3.660   4.305   1.144 -0.5978 -0.0036 -0.2152
 3075WAT     H113020   3.735   4.323   1.103 -0.9035  2.5753  0.1863
 3075WAT     H213021   3.685   4.291   1.227 -0.3409 -1.7582 -0.5563
 3075WAT    EPW13022   3.675   4.306   1.151 -0.6050  0.1182 -0.2063
 3076WAT      O13023   2.087   1.076   7.357  0.6544  0.4280 -0.2842
 3076WAT     H113024   2.101   1.128   7.289  1.2272  0.7537  0.0777
 3076WAT     H213025   2.155   1.022   7.357  1.7452  1.7043  1.1858
 3076WAT    EPW13026   2.099   1.076   7.347  0.9002  0.6647 -0.0136
 3077WAT      O13027   6.434   4.271   6.569 -0.6250  0.4020 -0.0301
 3077WAT     H113028   6.367   4.263   6.624 -0.6453  0.1491 -0.0902
 3077WAT     H213029   6.455   4.356   6.574  0.0180  0.1958  1.1298
 3077WAT    EPW13030   6.427   4.282   6.578 -0.5330  0.3342  0.1323
 3078WAT      O13031   0.666   4.086   5.950  0.7881  0.0649 -0.5500
 3078WAT     H113032   0.701   4.012   5.981 -0.5613  0.2397  1.6067
 3078WAT     H213033   0.590   4.092   5.993 -0.1659  1.5913 -2.3180
 3078WAT    EPW13034   0.660   4.076   5.961  0.4478  0.3162 -0.4926
 3079WAT      O13035   1.701   5.288   3.695  0.4285 -0.6535  0.4740
 3079WAT     H113036   1.782   5.255   3.696  0.7734  0.1347  1.9680
 3079WAT     H213037   1.688   5.312   3.778 -1.4865 -1.0758  0.3450
 3079WAT    EPW13038   1.711   5.286   3.707  0.1966 -0.5995  0.6756
 3080WAT      O13039   0.721   5.238   3.130  0.0800  0.3307 -0.0637
 3080WAT     H113040   0.713   5.173   3.188  0.3910  0.2622 -0.0970
 3080WAT     H213041   0.748   5.198   3.057 -0.9021  0.3319 -0.4425
 3080WAT    EPW13042   0.724   5.223   3.128 -0.0191  0.3208 -0.1246
 3081WAT      O13043   2.546   6.201   4.711 -0.2818 -0.0405 -0.4488
 3081WAT     H113044   2.471   6.173   4.747 -1.0839 -0.8303 -2.5743
 3081WAT     H213045   2.532   6.285   4.697 -0.0151  0.2480  0.8466
 3081WAT    EPW13046   2.533   6.209   4.714 -0.3609 -0.1146 -0.5714
 3082WAT      O13047   6.584   0.484   6.076  0.0789  0.1332  0.0345
 3082WAT     H113048   6.513   0.496   6.026  1.2372 -0.7886 -1.9625
 3082WAT     H213049   6.554   0.438   6.143 -1.2264 -0.2033 -0.7414
 3082WAT    EPW13050   6.569   0.479   6.078  0.0572 -0.0527 -0.3751
 3083WAT      O13051   5.792   0.994   2.416  0.4686 -0.0595 -0.1235
 3083WAT     H113052   5.806   1.079   2.424  2.1681 -0.4807  2.5489
 3083WAT     H213053   5.705   0.988   2.417  0.2838  1.6488 -1.3227
 3083WAT    EPW13054   5.781   1.005   2.417  0.6923  0.1306  0.0941
 3084WAT      O13055   0.841   4.298   6.978 -0.2007 -0.5892  0.2247
 3084WAT     H113056   0.905   4.239   6.982 -0.1124 -0.5949 -0.9299
 3084WAT     H213057   0.793   4.272   6.910 -1.3187 -0.4573  0.9340
 3084WAT    EPW13058   0.843   4.285   6.968 -0.3528 -0.5706  0.1589
 3085WAT      O13059   4.002   1.273   5.395  0.3246 -0.4811 -0.5786
 3085WAT     H113060   3.939   1.252   5.338  0.3281 -0.2068 -0.6855
 3085WAT     H213061   3.973   1.347   5.431  1.0851  0.2444 -1.4083
 3085WAT    EPW13062   3.988   1.281   5.391  0.4375 -0.3334 -0.7170
 3086WAT      O13063   3.924   0.247   3.543  0.2385  0.1560 -0.0523
 3086WAT     H113064   3.895   0.195   3.607 -3.3414  1.1003 -0.6406
 3086WAT     H213065   4.010   0.250   3.556 -0.2110  0.5433  4.8993
 3086WAT    EPW13066   3.932   0.240   3.554 -0.3567  0.3527  0.5923
 3087WAT      O13067   6.938   4.026   4.218 -0.3043 -0.0956  0.1942
 3087WAT     H113068   6.892   4.087   4.260  1.3164  2.0273 -0.9054
 3087WAT     H213069   6.921   4.042   4.134  1.2613 -0.1738 -0.1751
 3087WAT    EPW13070   6.929   4.037   4.212  0.1664  0.2065 -0.0228
 3088WAT      O13071   5.234   4.994   4.350 -0.5480 -0.3194  0.4869
 3088WAT     H113072   5.288   5.056   4.319 -1.3704 -0.2564 -0.9290
 3088WAT     H213073   5.194   5.033   4.417 -2.8500  1.6871 -1.8433
 3088WAT    EPW13074   5.236   5.009   4.355 -1.0095 -0.0137 -0.0665
 3089WAT      O13075   5.707   1.109   5.793  0.1398 -0.1806 -0.5428
 3089WAT     H113076   5.641   1.065   5.829  0.2611  0.2378  0.2152
 3089WAT     H213077   5.725   1.063   5.721 -0.2228 -0.9517 -0.1600
 3089WAT    EPW13078   5.700   1.096   5.788  0.1041 -0.2327 -0.3743
 3090WAT      O13079   4.952   5.083   0.890  0.3288 -0.3137  0.2572
 3090WAT     H113080   4.996   5.110   0.819  2.5550 -2.3699  0.7466
 3090WAT     H213081   4.916   5.156   0.920  2.9067  1.4492 -0.5789
 3090WAT    EPW13082   4.953   5.098   0.884  1.0385 -0.3570  0.2060
 3091WAT      O13083   6.096   1.105   7.059 -0.4797  0.4167 -0.0019
 3091WAT     H113084   6.010   1.119   7.063 -0.3629  0.9032  1.8784
 3091WAT     H213085   6.113   1.062   7.133  0.7957 -0.3958 -0.7274
 3091WAT    EPW13086   6.086   1.101   7.071 -0.2740  0.3685  0.1687
 3092WAT      O13087   1.275   0.951   4.902  0.6474  0.1358 -0.1277
 3092WAT     H113088   1.272   0.890   4.964  0.1254  0.6004  0.3162
 3092WAT     H213089   1.194   0.950   4.868  1.1399 -0.6782 -1.3743
 3092WAT    EPW13090   1.262   0.942   4.906  0.6430  0.0842 -0.2463
 3093WAT      O13091   5.155   0.940   2.839 -0.1084  0.1650 -0.8256
 3093WAT     H113092   5.097   0.987   2.884  0.9912 -0.4037  1.2805
 3093WAT     H213093   5.107   0.906   2.774 -2.1110 -0.1868  0.7405
 3093WAT    EPW13094   5.139   0.942   2.836 -0.2418  0.0290 -0.2831
 3094WAT      O13095   6.803   5.342   3.367 -0.2563 -0.1702  0.5550
 3094WAT     H113096   6.810   5.279   3.427 -1.2103 -1.3120 -0.4739
 3094WAT     H213097   6.855   5.314   3.302 -0.3535  0.3285  0.2577
 3094WAT    EPW13098   6.812   5.329   3.366 -0.4116 -0.2652  0.3591
 3095WAT      O13099   6.348   6.465   0.441  0.5785 -0.3547  0.4536
 3095WAT     H113100   6.381   6.535   0.400 -0.0097  0.0213  0.6178
 3095WAT     H213101   6.336   6.492   0.523 -0.9426 -0.1999  0.2044
 3095WAT    EPW13102   6.351   6.479   0.447  0.2669 -0.2763  0.4410
 3096WAT      O13103   2.428   1.819   7.161 -0.1838  0.2086  0.3388
 3096WAT     H113104   2.346   1.842   7.180 -0.3361 -1.1620  1.4821
 3096WAT     H213105   2.420   1.746   7.114  0.3654 -0.3370  1.0501
 3096WAT    EPW13106   2.415   1.812   7.157 -0.1252 -0.0745  0.6127
 3097WAT      O13107   0.300   2.731   4.538  0.3077 -0.5288  0.5928
 3097WAT     H113108   0.334   2.679   4.476 -1.8222 -0.6313 -0.5926
 3097WAT     H213109   0.237   2.775   4.495 -0.1204  0.6365  2.3235
 3097WAT    EPW13110   0.296   2.730   4.522 -0.0702 -0.3718  0.6733
 3098WAT      O13111   5.113   6.373   1.032  0.4563 -0.5172  0.5298
 3098WAT     H113112   5.110   6.288   1.011  0.5855 -0.2036 -0.8186
 3098WAT     H213113   5.192   6.398   1.007  0.4437  0.0027  0.9744
 3098WAT    EPW13114   5.124   6.364   1.026  0.4735 -0.3941  0.3963
 3099WAT      O13115   4.464   6.123   3.580  0.0416 -0.6211 -0.0414
 3099WAT     H113116   4.441   6.080   3.508 -0.4148  2.3768 -1.8700
 3099WAT     H213117   4.390   6.128   3.626 -0.7488  0.8756 -1.3772
 3099WAT    EPW13118   4.450   6.117   3.576 -0.1426  0.0429 -0.5088
 3100WAT      O13119   4.367   0.001   4.546 -0.0806 -0.6847  0.4779
 3100WAT     H113120   4.326   0.037   4.478 -0.4354  0.2014  1.1406
 3100WAT     H213121   4.451   0.006   4.525 -0.2444 -1.5799 -0.4462
 3100WAT    EPW13122   4.373   0.007   4.533 -0.1572 -0.6861  0.4393
 3101WAT      O13123   1.529   4.947   2.964  0.2127 -0.2366 -0.5881
 3101WAT     H113124   1.524   4.915   3.045 -0.2942  0.5297 -0.3125
 3101WAT     H213125   1.593   4.899   2.928  0.4439 -0.5907  0.2568
 3101WAT    EPW13126   1.538   4.935   2.971  0.1720 -0.1757 -0.4226
 3102WAT      O13127   6.510   0.399   6.889  0.0215  0.3470  0.4281
 3102WAT     H113128   6.498   0.317   6.863 -0.9238  0.1239  1.4808
 3102WAT     H213129   6.498   0.446   6.817 -0.4763 -0.3765  0.0356
 3102WAT    EPW13130   6.506   0.394   6.875 -0.1917  0.2072  0.5257
 3103WAT      O13131   3.729   3.017   4.389 -0.1678 -0.0753 -0.6031
 3103WAT     H113132   3.748   3.072   4.454 -2.9783  0.1494  0.1261
 3103WAT     H213133   3.760   3.058   4.318  0.0202  1.2491  0.2111
 3103WAT    EPW13134   3.737   3.032   4.388 -0.5552  0.1535 -0.3751
 3104WAT      O13135   6.397   1.038   5.162 -0.2151 -1.1890  0.1689
 3104WAT     H113136   6.409   1.042   5.075 -0.0629  1.2443  0.2350
 3104WAT     H213137   6.322   1.082   5.174  0.4957 -0.2417  1.3604
 3104WAT    EPW13138   6.388   1.045   5.151 -0.0876 -0.6896  0.3546
 3105WAT      O13139   0.020   4.547   3.129 -0.8011  0.0857  0.3002
 3105WAT     H113140  -0.062   4.559   3.103 -0.9001 -0.9627  0.0625
 3105WAT     H213141   0.025   4.461   3.140  0.2412  0.1472  0.4004
 3105WAT    EPW13142   0.009   4.536   3.127 -0.6618 -0.0601  0.2799
 3106WAT      O13143   6.131   3.741   2.331  0.0897 -0.3115  0.1715
 3106WAT     H113144   6.053   3.779   2.340  0.2384 -0.3269  1.7405
 3106WAT     H213145   6.116   3.659   2.355  1.0653  0.2363  2.9261
 3106WAT    EPW13146   6.117   3.735   2.336  0.2558 -0.2328  0.8102
 3107WAT      O13147   4.231   6.100   5.757  0.1251  0.0338  0.3786
 3107WAT     H113148   4.146   6.082   5.766 -0.0612 -0.3897 -1.6995
 3107WAT     H213149   4.268   6.060   5.826 -1.0847 -2.1357 -0.1204
 3107WAT    EPW13150   4.224   6.091   5.768 -0.0811 -0.3492 -0.0021
 3108WAT      O13151   1.957   4.898   2.877 -0.4287  0.4161 -0.4811
 3108WAT     H113152   1.890   4.843   2.868 -0.3903  0.1961  0.4834
 3108WAT     H213153   1.939   4.940   2.951  0.7635 -0.0218  0.0845
 3108WAT    EPW13154   1.944   4.896   2.886 -0.2469  0.3189 -0.2551
 3109WAT      O13155   1.855   5.034   4.198  0.8160  0.2982  0.0058
 3109WAT     H113156   1.895   5.037   4.276 -1.7090  0.4454  1.3782
 3109WAT     H213157   1.870   4.952   4.171  2.0090  0.3459  0.4321
 3109WAT    EPW13158   1.863   5.022   4.205  0.6192  0.3270  0.2715
 3110WAT      O13159   6.613   5.988   4.533 -0.1642  0.3003  0.0848
 3110WAT     H113160   6.699   5.982   4.552  0.1427  0.8673 -1.0538
 3110WAT     H213161   6.584   5.907   4.546  0.1574  0.4583  2.2198
 3110WAT    EPW13162   6.622   5.975   4.538 -0.0714  0.4074  0.2320
 3111WAT      O13163   1.584   2.770   3.603  0.7018 -0.4575  0.1238
 3111WAT     H113164   1.635   2.796   3.669 -0.0091 -0.9061  0.8654
 3111WAT     H213165   1.529   2.837   3.592  2.0275  0.4343 -1.3163
 3111WAT    EPW13166   1.583   2.784   3.611  0.7926 -0.3920  0.0206
 3112WAT      O13167   6.464   4.661   1.977  0.3416  0.4422  0.8721
 3112WAT     H113168   6.494   4.651   1.896 -1.3907 -0.5253  0.2903
 3112WAT     H213169   6.403   4.599   1.984 -0.5508  1.4263  2.4153
 3112WAT    EPW13170   6.459   4.650   1.966 -0.0461  0.4447  1.0141
 3113WAT      O13171   1.484   5.094   2.375  0.2122 -0.8111  0.2901
 3113WAT     H113172   1.429   5.159   2.396  0.8937 -0.6465  1.6975
 3113WAT     H213173   1.556   5.136   2.349 -0.3108 -1.0243 -1.5848
 3113WAT    EPW13174   1.487   5.110   2.374  0.2356 -0.8183  0.2211
 3114WAT      O13175   3.988   1.917   2.656 -0.4493 -0.2508  0.0691
 3114WAT     H113176   3.941   1.864   2.606 -1.2049  0.8867 -0.4690
 3114WAT     H213177   3.931   1.977   2.682  0.6604  1.1045 -0.4919
 3114WAT    EPW13178   3.973   1.918   2.653 -0.3970  0.1174 -0.0932
 3115WAT      O13179   6.896   4.339   2.587 -0.2610  0.1879 -0.0815
 3115WAT     H113180   6.875   4.333   2.502  1.3425 -0.5155 -0.4666
 3115WAT     H213181   6.853   4.273   2.623  2.1110 -2.0733 -1.0760
 3115WAT    EPW13182   6.886   4.329   2.580  0.3263 -0.2501 -0.2853
 3116WAT      O13183   0.018   1.906   5.874 -0.3867 -0.1121  0.3941
 3116WAT     H113184  -0.060   1.884   5.907 -0.0468  1.8928  2.9075
 3116WAT     H213185   0.063   1.933   5.945  1.9748  0.4801 -1.2051
 3116WAT    EPW13186   0.013   1.907   5.890  0.0123  0.2716  0.5292
 3117WAT      O13187   2.564   4.721   6.765 -0.5532 -0.4403  0.5271
 3117WAT     H113188   2.596   4.773   6.828 -2.0086  1.6115 -0.2969
 3117WAT     H213189   2.635   4.685   6.730  0.6791  1.7878  0.5427
 3117WAT    EPW13190   2.579   4.724   6.769 -0.5862  0.1919  0.4077
 3118WAT      O13191   6.073   0.792   1.996  0.9308  0.2969 -0.2713
 3118WAT     H113192   5.998   0.799   1.951 -0.9433 -1.2600  2.3315
 3118WAT     H213193   6.119   0.734   1.951  0.1069  0.4356 -1.3280
 3118WAT    EPW13194   6.069   0.785   1.983  0.5322  0.0874 -0.0429
 3119WAT      O13195   3.293   7.098   2.920  0.2315 -0.2893  0.1638
 3119WAT     H113196   3.222   7.074   2.965  0.4649 -1.6972 -0.1626
 3119WAT     H213197   3.275   7.071   2.839 -0.1312  2.0875 -0.6358
 3119WAT    EPW13198   3.280   7.090   2.914  0.2124 -0.1461 -0.0026
 3120WAT      O13199   7.131   4.987   4.007  0.3062 -0.3317  0.1086
 3120WAT     H113200   7.121   5.073   4.017  2.1219  0.0113 -0.6647
 3120WAT     H213201   7.216   4.977   3.993  0.2215 -2.3272  0.6636
 3120WAT    EPW13202   7.142   4.998   4.006  0.5619 -0.5758  0.0764
 3121WAT      O13203   0.139   1.180   0.392  0.1347 -0.6180  0.0295
 3121WAT     H113204   0.205   1.123   0.389 -0.1958 -1.2830  2.6104
 3121WAT     H213205   0.156   1.228   0.463 -1.1486  0.5253 -0.3792
 3121WAT    EPW13206   0.151   1.179   0.402 -0.1037 -0.5474  0.3504
 3122WAT      O13207   0.277   5.843   5.553 -0.3580 -0.7556 -0.1954
 3122WAT     H113208   0.286   5.757   5.565  0.9616 -0.7047 -0.6014
 3122WAT     H213209   0.294   5.876   5.632 -0.0393 -0.8400 -0.2246
 3122WAT    EPW13210   0.281   5.835   5.566 -0.1160 -0.7605 -0.2597
 3123WAT      O13211   5.543   2.545   6.452  0.2547 -0.2493  0.2450
 3123WAT     H113212   5.540   2.476   6.504  0.4715 -0.9018 -0.5884
 3123WAT     H213213   5.614   2.589   6.479  0.4053 -0.6185  0.4494
 3123WAT    EPW13214   5.553   2.541   6.463  0.3090 -0.4002  0.1521
 3124WAT      O13215   2.811   5.818   0.611 -0.0304 -0.0899 -0.2058
 3124WAT     H113216   2.823   5.821   0.525 -0.2501 -1.1369 -0.2962
 3124WAT     H213217   2.891   5.825   0.644  0.0488  0.3538 -0.4914
 3124WAT    EPW13218   2.825   5.819   0.603 -0.0511 -0.1790 -0.2613
 3125WAT      O13219   1.067   2.433   3.864  0.6048 -0.5690  0.3977
 3125WAT     H113220   1.120   2.458   3.929  0.1018  0.9712  0.2505
 3125WAT     H213221   1.079   2.493   3.803 -1.1152 -0.3180  0.2589
 3125WAT    EPW13222   1.076   2.445   3.865  0.2764 -0.3044  0.3555
 3126WAT      O13223   4.901   4.076   5.113 -0.1796 -0.2030 -0.4622
 3126WAT     H113224   4.920   4.148   5.159  0.0524 -1.3858  1.4045
 3126WAT     H213225   4.836   4.101   5.061  0.3492  1.5228 -0.3674
 3126WAT    EPW13226   4.894   4.091   5.112 -0.0672 -0.1228 -0.1724
 3127WAT      O13227   4.221   5.463   4.386  0.6080 -0.0213 -0.3759
 3127WAT     H113228   4.250   5.381   4.379 -1.3854 -0.9147  0.9002
 3127WAT     H213229   4.191   5.482   4.307  3.1868  0.4237 -1.3402
 3127WAT    EPW13230   4.221   5.454   4.374  0.6945 -0.0875 -0.3298
 3128WAT      O13231   1.467   2.141   1.160  0.4112 -0.5690 -0.3289
 3128WAT     H113232   1.466   2.220   1.197 -0.0597 -0.6783 -0.1087
 3128WAT     H213233   1.446   2.158   1.077  1.8139 -0.2817 -0.6553
 3128WAT    EPW13234   1.464   2.155   1.153  0.5488 -0.5427 -0.3446
 3129WAT      O13235   6.504   1.417   0.224 -0.0143 -0.2626 -0.0997
 3129WAT     H113236   6.584   1.400   0.256 -0.1526 -0.7218 -0.0014
 3129WAT     H213237   6.521   1.450   0.145  0.2960  0.1417  0.1289
 3129WAT    EPW13238   6.519   1.420   0.217  0.0111 -0.2707 -0.0514
 3130WAT      O13239   4.991   0.627   2.904 -0.2376  0.4458 -0.3483
 3130WAT     H113240   5.032   0.700   2.929  0.5209 -0.0433 -0.1198
 3130WAT     H213241   5.029   0.565   2.952 -1.1178 -0.0567 -0.2847
 3130WAT    EPW13242   5.003   0.628   2.915 -0.2556  0.2993 -0.3052
 3131WAT      O13243   3.117   3.946   4.093 -0.2023  0.7304 -0.1158
 3131WAT     H113244   3.031   3.954   4.107 -0.1967 -0.1543  0.5494
 3131WAT     H213245   3.150   3.947   4.174  0.1689 -1.3003 -0.2030
 3131WAT    EPW13246   3.109   3.947   4.107 -0.1467  0.2997 -0.0304
 3132WAT      O13247   2.953   2.010   0.955  0.0054  0.2241 -0.3003
 3132WAT     H113248   2.974   2.074   0.901  0.9525  0.0348 -0.1819
 3132WAT     H213249   2.909   1.954   0.905  0.0274  0.5090 -0.6385
 3132WAT    EPW13250   2.950   2.011   0.940  0.1485  0.2382 -0.3328
 3133WAT      O13251   4.304   0.905   3.109  0.7150 -0.0938  0.2085
 3133WAT     H113252   4.281   0.852   3.175  0.5786 -0.4646 -0.1366
 3133WAT     H213253   4.233   0.906   3.059  1.2793 -0.8852 -0.6338
 3133WAT    EPW13254   4.290   0.897   3.112  0.7782 -0.2655  0.0331
 3134WAT      O13255   5.958   4.367   5.859  0.2519  0.2402 -0.6286
 3134WAT     H113256   5.908   4.429   5.824  0.0410  0.4102 -0.0398
 3134WAT     H213257   5.946   4.377   5.945  0.7947 -0.1359 -0.5042
 3134WAT    EPW13258   5.949   4.378   5.866  0.3009  0.2098 -0.5233
 3135WAT      O13259   5.132   3.418   7.154  0.3874 -0.1606 -0.1316
 3135WAT     H113260   5.132   3.454   7.075 -0.0207  1.8070  0.7116
 3135WAT     H213261   5.086   3.345   7.143 -0.5154  0.5705 -1.5125
 3135WAT    EPW13262   5.125   3.412   7.141  0.1938  0.2381 -0.2110
 3136WAT      O13263   1.239   0.418   6.710 -0.3184  0.2741 -0.7265
 3136WAT     H113264   1.216   0.499   6.684 -0.0445  0.7695  0.4930
 3136WAT     H213265   1.224   0.420   6.796  2.4013 -0.0231 -0.1605
 3136WAT    EPW13266   1.233   0.431   6.719  0.1238  0.3034 -0.4627
 3137WAT      O13267   4.428   4.448   7.199  0.2665 -0.0051 -0.2450
 3137WAT     H113268   4.478   4.475   7.132  1.2441  1.9926  1.2110
 3137WAT     H213269   4.353   4.490   7.186 -0.2645 -1.1480 -1.1047
 3137WAT    EPW13270   4.424   4.458   7.187  0.3325  0.1212 -0.1569
 3138WAT      O13271   1.900   5.777   7.025 -0.5797  0.0912  0.2999
 3138WAT     H113272   1.870   5.850   6.988 -1.5506 -0.8468 -0.8783
 3138WAT     H213273   1.985   5.779   7.008 -1.0243 -0.4765 -2.4950
 3138WAT    EPW13274   1.908   5.788   7.017 -0.7888 -0.1312 -0.2870
 3139WAT      O13275   3.416   0.866   4.523 -0.1932 -0.1921  0.6617
 3139WAT     H113276   3.406   0.834   4.442  1.2671  1.2498 -0.1614
 3139WAT     H213277   3.334   0.879   4.550 -0.7230 -0.9486 -0.4784
 3139WAT    EPW13278   3.403   0.863   4.515 -0.0558 -0.0909  0.3717
 3140WAT      O13279   3.105   4.121   1.192 -0.6790 -0.2126 -0.2909
 3140WAT     H113280   3.052   4.164   1.246 -0.7832  0.9990 -1.3060
 3140WAT     H213281   3.149   4.185   1.151  1.6523 -1.1541  0.5574
 3140WAT    EPW13282   3.104   4.137   1.194 -0.3500 -0.1727 -0.3156
 3141WAT      O13283   2.957   3.442   5.606  0.8699 -0.4673  0.3044
 3141WAT     H113284   3.037   3.414   5.626  1.0534 -0.2982 -0.1802
 3141WAT     H213285   2.960   3.528   5.625  0.6986 -0.5247  0.5998
 3141WAT    EPW13286   2.969   3.451   5.612  0.8717 -0.4508  0.2764
 3142WAT      O13287   5.229   5.393   3.722  0.2318 -0.7057  0.0805
 3142WAT     H113288   5.221   5.380   3.636  1.7309  1.1630 -0.4130
 3142WAT     H213289   5.218   5.479   3.731 -2.4384 -1.1088  2.1530
 3142WAT    EPW13290   5.226   5.404   3.711  0.0588 -0.4892  0.3138
 3143WAT      O13291   6.763   1.989   5.589  0.1183 -0.2262  0.1476
 3143WAT     H113292   6.821   1.949   5.537 -0.9461 -0.3641 -0.9663
 3143WAT     H213293   6.694   1.936   5.588  0.2030 -0.4620  2.0908
 3143WAT    EPW13294   6.762   1.976   5.581 -0.0264 -0.2814  0.2701
 3144WAT      O13295   1.665   5.368   3.944  0.0105 -0.1614  0.0320
 3144WAT     H113296   1.742   5.391   3.979  0.8794  0.4942 -2.1268
 3144WAT     H213297   1.634   5.309   4.000  2.4977 -1.1079  0.5548
 3144WAT    EPW13298   1.672   5.362   3.957  0.5062 -0.2043 -0.2097
 3145WAT      O13299   2.178   6.806   5.442  0.1516 -0.0006  0.3636
 3145WAT     H113300   2.164   6.832   5.524  0.2666 -0.5670  0.5737
 3145WAT     H213301   2.254   6.843   5.420  0.3807 -0.2616  0.7028
 3145WAT    EPW13302   2.187   6.815   5.451  0.2024 -0.1228  0.4448
 3146WAT      O13303   5.089   3.862   3.435  0.3909  0.4922  0.5189
 3146WAT     H113304   5.162   3.836   3.394  0.4052  0.7451  0.3801
 3146WAT     H213305   5.113   3.933   3.477  0.5956 -0.2597  1.7073
 3146WAT    EPW13306   5.103   3.868   3.435  0.4233  0.4185  0.6740
 3147WAT      O13307   0.095   6.925   0.144  0.1154 -0.4369 -0.2861
 3147WAT     H113308   0.144   6.855   0.157  1.4404  0.6449  0.7240
 3147WAT     H213309   0.149   6.992   0.158 -1.4805  0.8028  0.2593
 3147WAT    EPW13310   0.110   6.924   0.148  0.0754 -0.0940 -0.0563
 3148WAT      O13311   6.476   4.037   0.425  0.1938 -0.0635  0.0270
 3148WAT     H113312   6.515   4.099   0.378 -1.8809  1.3216  0.0460
 3148WAT     H213313   6.476   3.968   0.372  0.7709  0.5103 -0.7452
 3148WAT    EPW13314   6.482   4.036   0.410 -0.0274  0.2259 -0.0843
 3149WAT      O13315   1.692   4.664   7.369  0.6430 -0.3495 -0.7623
 3149WAT     H113316   1.775   4.682   7.349  0.1937  1.1806 -1.4082
 3149WAT     H213317   1.651   4.666   7.292 -0.3591  1.1630 -0.2242
 3149WAT    EPW13318   1.699   4.667   7.355  0.4286  0.1000 -0.7782
 3150WAT      O13319   1.211   3.029   5.009 -0.1580  0.1835 -0.1726
 3150WAT     H113320   1.240   2.949   5.028 -0.6652  0.1254  0.3452
 3150WAT     H213321   1.182   3.021   4.927 -1.5102 -0.5338  0.3429
 3150WAT    EPW13322   1.211   3.016   4.999 -0.4327  0.0690 -0.0200
 3151WAT      O13323   3.165   0.090   6.409 -0.5759  0.1931  0.0534
 3151WAT     H113324   3.125   0.045   6.346  0.2122  0.4134 -0.6134
 3151WAT     H213325   3.228   0.133   6.368  0.1777  0.0837  1.0399
 3151WAT    EPW13326   3.168   0.089   6.394 -0.3481  0.2095  0.1006
 3152WAT      O13327   5.101   6.210   7.237 -0.0763 -0.0972 -0.5300
 3152WAT     H113328   5.132   6.215   7.156  1.1485 -0.7292 -0.1281
 3152WAT     H213329   5.098   6.293   7.263 -1.3400  0.1802 -1.5187
 3152WAT    EPW13330   5.105   6.223   7.229 -0.0820 -0.1496 -0.6167
 3153WAT      O13331   3.641   5.558   3.722  0.5726 -0.3073 -0.6750
 3153WAT     H113332   3.563   5.585   3.751  1.6176  0.4526  1.6237
 3153WAT     H213333   3.697   5.612   3.761  2.4396 -2.4735 -0.1951
 3153WAT    EPW13334   3.638   5.570   3.732  1.0028 -0.5151 -0.2646
 3154WAT      O13335   1.284   2.337   0.580 -0.6255  0.9854 -0.4123
 3154WAT     H113336   1.311   2.256   0.564 -1.2788  0.5394  0.6275
 3154WAT     H213337   1.283   2.374   0.502  1.6210  0.6274 -0.6929
 3154WAT    EPW13338   1.288   2.330   0.566 -0.3902  0.8666 -0.3002
 3155WAT      O13339   0.073   5.119   7.164  0.1655 -0.1061  0.0896
 3155WAT     H113340   0.125   5.161   7.220 -0.4767 -0.2215  0.7874
 3155WAT     H213341   0.011   5.177   7.145  0.5219  0.0162 -0.7012
 3155WAT    EPW13342   0.071   5.134   7.170  0.1233 -0.1050  0.0759
 3156WAT      O13343   3.485   1.007   6.840 -0.5479  0.1455 -0.0532
 3156WAT     H113344   3.485   0.962   6.765 -3.6481 -0.3538  0.1064
 3156WAT     H213345   3.436   1.077   6.821  0.2358  1.0026  1.0127
 3156WAT    EPW13346   3.477   1.010   6.826 -0.8901  0.1984  0.1278
 3157WAT      O13347   1.085   6.127   6.829 -0.3443 -0.2911 -0.2037
 3157WAT     H113348   1.009   6.084   6.826 -0.6850 -0.1357  2.8208
 3157WAT     H213349   1.076   6.179   6.898  2.0466  0.7022 -0.5507
 3157WAT    EPW13350   1.073   6.128   6.839 -0.0415 -0.1214  0.1918
 3158WAT      O13351   6.022   3.057   6.654  0.2366  0.4025  0.8954
 3158WAT     H113352   6.103   3.077   6.629  0.0489 -0.2965 -0.3428
 3158WAT     H213353   5.972   3.110   6.605 -0.1538 -1.2403 -0.5823
 3158WAT    EPW13354   6.027   3.068   6.643  0.1512  0.0566  0.4942
 3159WAT      O13355   0.236   5.562   5.660 -0.1758  0.1931 -0.4782
 3159WAT     H113356   0.260   5.479   5.665 -1.5120 -0.1401  1.7918
 3159WAT     H213357   0.164   5.560   5.611 -0.2928 -0.0123 -0.2969
 3159WAT    EPW13358   0.229   5.550   5.653 -0.3905  0.1135 -0.1161
 3160WAT      O13359   3.926   3.552   0.421 -0.1450  0.7212 -0.3472
 3160WAT     H113360   3.982   3.572   0.358  0.3437 -2.0933 -0.9629
 3160WAT     H213361   3.970   3.569   0.494 -0.2053  2.6991 -0.7199
 3160WAT    EPW13362   3.940   3.557   0.423 -0.0817  0.5976 -0.4932
 3161WAT      O13363   3.463   3.818   0.162 -0.1091 -0.0511 -0.2425
 3161WAT     H113364   3.472   3.733   0.145 -0.6907  0.2062 -2.0952
 3161WAT     H213365   3.395   3.841   0.113 -1.4050  1.0463  1.9569
 3161WAT    EPW13366   3.454   3.809   0.152 -0.3864  0.1490 -0.1913
 3162WAT      O13367   3.969   5.145   1.413 -0.7025 -0.1645 -0.3525
 3162WAT     H113368   3.976   5.066   1.378 -1.4107  0.2967 -1.5975
 3162WAT     H213369   4.034   5.148   1.471 -0.8405 -1.7495 -0.0798
 3162WAT    EPW13370   3.979   5.134   1.417 -0.8275 -0.3305 -0.4961
 3163WAT      O13371   6.129   4.422   3.949  0.5851  0.1664 -0.5004
 3163WAT     H113372   6.144   4.490   4.002 -1.8218  1.6959 -1.6243
 3163WAT     H213373   6.195   4.425   3.892  2.3677 -0.5829  1.3793
 3163WAT    EPW13374   6.141   4.432   3.949  0.4929  0.2817 -0.3887
 3164WAT      O13375   6.891   5.628   3.382  0.0413 -0.2864 -0.2119
 3164WAT     H113376   6.819   5.671   3.360  0.5750  0.8800  0.2433
 3164WAT     H213377   6.869   5.544   3.373 -1.9619 -0.0454  1.6603
 3164WAT    EPW13378   6.877   5.622   3.378 -0.1758 -0.0785  0.1319
 3165WAT      O13379   4.542   2.465   7.366  0.2262 -0.4166 -0.2223
 3165WAT     H113380   4.544   2.476   7.279  1.2216  0.3044 -0.1173
 3165WAT     H213381   4.622   2.489   7.392  0.3566 -1.8259  0.7639
 3165WAT    EPW13382   4.554   2.470   7.357  0.3925 -0.5183 -0.0611
 3166WAT      O13383   0.521   7.111   0.339 -0.3306  0.1702  0.3614
 3166WAT     H113384   0.459   7.079   0.286  0.5307 -2.2340  0.6674
 3166WAT     H213385   0.486   7.185   0.370 -3.1632 -1.2088  0.7643
 3166WAT    EPW13386   0.507   7.117   0.335 -0.6218 -0.3886  0.4661
 3167WAT      O13387   3.785   2.903   6.876 -0.7135 -0.4756 -0.2832
 3167WAT     H113388   3.763   2.953   6.944 -0.2736 -1.9252  0.9486
 3167WAT     H213389   3.827   2.959   6.824 -0.2517  0.4597  1.0308
 3167WAT    EPW13390   3.788   2.919   6.878 -0.5803 -0.5516  0.0929
 3168WAT      O13391   0.651   0.462   1.680 -0.0541  0.2827 -0.3184
 3168WAT     H113392   0.586   0.462   1.738 -0.8061  0.8662 -1.1235
 3168WAT     H213393   0.613   0.493   1.607  1.4528  2.0912 -0.4126
 3168WAT    EPW13394   0.636   0.467   1.677  0.0574  0.6361 -0.4512
 3169WAT      O13395   6.268   0.650   0.357  0.0195 -0.5590  0.0770
 3169WAT     H113396   6.228   0.577   0.385  0.7544 -0.3155  1.9373
 3169WAT     H213397   6.294   0.630   0.276 -0.2569 -2.1761  0.3548
 3169WAT    EPW13398   6.266   0.636   0.349  0.0872 -0.7619  0.3929
 3170WAT      O13399   1.000   5.467   4.904 -0.5849 -0.2186 -0.0360
 3170WAT     H113400   1.071   5.475   4.954 -0.7984 -0.1574  0.2660
 3170WAT     H213401   0.952   5.407   4.947 -0.5207 -0.5881 -0.4706
 3170WAT    EPW13402   1.003   5.459   4.918 -0.6070 -0.2641 -0.0556
 3171WAT      O13403   1.970   2.327   2.273  0.3238 -0.0982  0.5127
 3171WAT     H113404   1.930   2.323   2.195  0.1508  0.1136  0.5899
 3171WAT     H213405   2.055   2.319   2.253  0.2150 -1.0857  0.3929
 3171WAT    EPW13406   1.977   2.325   2.259  0.2822 -0.2128  0.5064
 3172WAT      O13407   4.220   2.110   0.057  0.2709 -0.0602 -0.4284
 3172WAT     H113408   4.236   2.039   0.105  1.1210  0.0394 -0.5537
 3172WAT     H213409   4.275   2.169   0.089 -0.4986  0.5903 -0.2548
 3172WAT    EPW13410   4.230   2.108   0.069  0.2828  0.0506 -0.4212
 3173WAT      O13411   2.611   4.240   4.648 -0.4999  0.2221 -0.1110
 3173WAT     H113412   2.552   4.258   4.709  0.2113 -0.1635  0.7133
 3173WAT     H213413   2.682   4.217   4.694  0.2822  0.6421 -1.0663
 3173WAT    EPW13414   2.613   4.239   4.664 -0.2793  0.2272 -0.1303
 3174WAT      O13415   5.427   3.278   5.055 -0.5405  0.1351  0.6182
 3174WAT     H113416   5.445   3.342   4.998 -0.6790 -1.7656 -1.7144
 3174WAT     H213417   5.358   3.309   5.099  0.1009  2.0216  0.3835
 3174WAT    EPW13418   5.419   3.292   5.053 -0.4662  0.1330  0.2390
 3175WAT      O13419   0.070   2.750   6.258  0.2320 -0.2317  0.2109
 3175WAT     H113420   0.028   2.675   6.273  1.8088 -0.8903  1.7787
 3175WAT     H213421   0.024   2.808   6.304  0.4872 -0.7845  1.2137
 3175WAT    EPW13422   0.057   2.747   6.267  0.5026 -0.4107  0.5906
 3176WAT      O13423   6.105   1.870   5.638  0.3904 -0.0377  0.1728
 3176WAT     H113424   6.166   1.808   5.643 -0.5526 -0.8919  2.2026
 3176WAT     H213425   6.144   1.934   5.595  2.0849 -1.2605 -0.2037
 3176WAT    EPW13426   6.120   1.870   5.632  0.5014 -0.3445  0.4171
 3177WAT      O13427   0.450   1.634   6.905 -0.8073 -0.1340  0.3607
 3177WAT     H113428   0.534   1.615   6.894 -0.5288 -0.2039  2.3219
 3177WAT     H213429   0.451   1.712   6.943 -1.7824  1.3741 -2.4285
 3177WAT    EPW13430   0.463   1.642   6.909 -0.9102  0.0784  0.2384
 3178WAT      O13431   1.655   5.953   5.024 -0.2457  0.0107 -0.2325
 3178WAT     H113432   1.623   5.998   4.956 -1.4602  0.3981  0.5602
 3178WAT     H213433   1.676   6.015   5.081 -2.1752 -0.3828  0.9821
 3178WAT    EPW13434   1.653   5.969   5.022 -0.7101  0.0098  0.0640
 3179WAT      O13435   2.939   2.859   5.554 -0.1607  0.4947 -0.1576
 3179WAT     H113436   3.018   2.823   5.541 -0.9135 -1.0397 -0.7876
 3179WAT     H213437   2.927   2.908   5.484  0.2119  0.7109 -0.0747
 3179WAT    EPW13438   2.949   2.861   5.542 -0.2169  0.3000 -0.2384
 3180WAT      O13439   1.779   0.843   5.618 -0.7095  0.0792  0.3910
 3180WAT     H113440   1.794   0.925   5.594 -0.9143  0.0519  0.1611
 3180WAT     H213441   1.854   0.802   5.600 -0.9507  0.0017 -0.4763
 3180WAT    EPW13442   1.792   0.849   5.612 -0.7754  0.0637  0.2289
 3181WAT      O13443   7.151   0.446   2.319  0.2347  0.2314  0.0979
 3181WAT     H113444   7.214   0.501   2.295  1.0396 -1.4862 -2.1331
 3181WAT     H213445   7.079   0.481   2.286  0.7047  0.1205 -1.1081
 3181WAT    EPW13446   7.150   0.459   2.310  0.4230 -0.0387 -0.4098
 3182WAT      O13447   4.339   3.192   2.116  0.2550 -0.0881 -0.4086
 3182WAT     H113448   4.347   3.110   2.088  1.6566  0.3186 -1.3300
 3182WAT     H213449   4.282   3.228   2.060 -0.8692 -0.5677  0.3899
 3182WAT    EPW13450   4.332   3.185   2.104  0.2960 -0.0989 -0.4267
 3183WAT      O13451   2.148   1.423   4.313  0.3418  0.3246 -0.2747
 3183WAT     H113452   2.139   1.491   4.259 -2.4141  1.6852  1.7269
 3183WAT     H213453   2.079   1.373   4.296 -0.8282  0.9812  2.1300
 3183WAT    EPW13454   2.137   1.426   4.302 -0.2381  0.6226  0.3762
 3184WAT      O13455   0.796   1.699   1.548 -0.0742 -0.3633  0.7936
 3184WAT     H113456   0.768   1.760   1.604 -0.6462 -0.1432  0.2808
 3184WAT     H213457   0.878   1.684   1.573 -0.4939 -0.6737  2.0330
 3184WAT    EPW13458   0.804   1.706   1.560 -0.2207 -0.3766  0.9009
 3185WAT      O13459   3.558   5.608   0.988  0.0311  0.3600 -0.6178
 3185WAT     H113460   3.483   5.627   1.029 -0.1348 -0.8977 -0.3125
 3185WAT     H213461   3.573   5.525   1.010  0.6697  0.0923 -1.9917
 3185WAT    EPW13462   3.549   5.599   0.997  0.1009  0.1347 -0.7756
 3186WAT      O13463   2.089   5.520   2.622  0.4182 -0.3873  0.7734
 3186WAT     H113464   2.094   5.599   2.658 -0.3259 -0.1557  0.3998
 3186WAT     H213465   2.020   5.484   2.661  0.8672 -0.9280  1.0794
 3186WAT    EPW13466   2.080   5.526   2.633  0.3746 -0.4330  0.7634
 3187WAT      O13467   6.562   4.330   0.031 -0.4427 -0.4718 -0.1563
 3187WAT     H113468   6.538   4.279  -0.036  0.5104  0.2974 -1.1173
 3187WAT     H213469   6.504   4.396   0.028  1.2352  1.0567 -2.0833
 3187WAT    EPW13470   6.550   4.333   0.021 -0.0540 -0.1324 -0.5829
 3188WAT      O13471   6.997   0.151   2.199 -0.1602  0.6488  0.0402
 3188WAT     H113472   7.041   0.123   2.129 -1.9346 -1.0829 -0.4617
 3188WAT     H213473   7.039   0.115   2.266 -1.1692 -1.6429 -0.4739
 3188WAT    EPW13474   7.010   0.142   2.198 -0.5714  0.0545 -0.1099
 3189WAT      O13475   1.952   3.887   5.871  0.1002  0.3189  0.2031
 3189WAT     H113476   1.976   3.911   5.952  1.4651 -0.2711  0.0117
 3189WAT     H213477   1.945   3.800   5.877  0.1268  0.2802 -0.2860
 3189WAT    EPW13478   1.955   3.878   5.884  0.3058  0.2261  0.1026
 3190WAT      O13479   4.802   5.270   6.866  0.3455 -0.0804 -0.1026
 3190WAT     H113480   4.870   5.312   6.900  1.2817 -0.1913 -1.7091
 3190WAT     H213481   4.838   5.203   6.824 -0.7747 -0.2998 -0.7644
 3190WAT    EPW13482   4.818   5.267   6.865  0.3183 -0.1292 -0.4377
 3191WAT      O13483   2.455   0.399   6.569 -0.2610  0.1555 -0.1780
 3191WAT     H113484   2.449   0.319   6.534  0.2690 -0.1861  0.4850
 3191WAT     H213485   2.448   0.452   6.500  0.2208 -0.4805 -0.7321
 3191WAT    EPW13486   2.453   0.395   6.554 -0.1116  0.0111 -0.1619
 3192WAT      O13487   4.582   3.372   2.181  0.2267 -0.1846 -0.6265
 3192WAT     H113488   4.563   3.392   2.263  2.0638 -0.1568 -0.1603
 3192WAT     H213489   4.527   3.306   2.163  0.2170 -0.6230  0.8495
 3192WAT    EPW13490   4.571   3.365   2.190  0.4966 -0.2453 -0.3396
 3193WAT      O13491   7.103   6.961   6.224 -0.5294  0.1994 -0.1467
 3193WAT     H113492   7.178   6.989   6.257 -0.2552 -0.8776  0.1726
 3193WAT     H213493   7.063   7.034   6.198  0.6552  0.7697 -0.3940
 3193WAT    EPW13494   7.108   6.976   6.225 -0.3139  0.1246 -0.1361
 3194WAT      O13495   0.350   4.486   5.228  0.1247 -0.6776  0.1989
 3194WAT     H113496   0.430   4.464   5.201  1.0105  0.8270  1.4165
 3194WAT     H213497   0.314   4.523   5.158  1.0387 -0.0497  0.0542
 3194WAT    EPW13498   0.356   4.488   5.214  0.3906 -0.3626  0.3574
 3195WAT      O13499   7.216   1.075   0.150 -0.4996 -0.1762  0.6024
 3195WAT     H113500   7.143   1.049   0.110  0.0925 -0.5566 -0.2668
 3195WAT     H213501   7.257   1.000   0.168  0.8879  0.0827 -1.2762
 3195WAT    EPW13502   7.211   1.060   0.147 -0.2072 -0.1941  0.1965
 3196WAT      O13503   4.230   4.999   4.239  0.0694  0.2533  0.1733
 3196WAT     H113504   4.260   4.944   4.300  0.4529 -1.3603 -1.3972
 3196WAT     H213505   4.274   4.976   4.167 -1.4713  1.0346 -1.0868
 3196WAT    EPW13506   4.241   4.987   4.237 -0.1015  0.1304 -0.2448
 3197WAT      O13507   3.267   5.893   5.796  0.5859 -0.1670  0.3177
 3197WAT     H113508   3.225   5.822   5.769 -1.3381  0.6800  0.9421
 3197WAT     H213509   3.251   5.952   5.733  0.1046  0.4127  0.9703
 3197WAT    EPW13510   3.259   5.892   5.783  0.2306  0.0438  0.5063
 3198WAT      O13511   1.817   4.421   3.411 -0.4381 -0.2971  0.6093
 3198WAT     H113512   1.782   4.343   3.429  1.4960 -1.1648  0.8011
 3198WAT     H213513   1.898   4.415   3.441 -0.4856  2.1331  1.4327
 3198WAT    EPW13514   1.824   4.409   3.418 -0.1594 -0.0663  0.7592
 3199WAT      O13515   6.654   1.317   2.088  0.2872 -0.0937 -0.1648
 3199WAT     H113516   6.603   1.388   2.082  0.1657 -0.1432  0.2629
 3199WAT     H213517   6.734   1.350   2.100  0.3886 -0.0130 -0.9613
 3199WAT    EPW13518   6.658   1.332   2.089  0.2842 -0.0891 -0.2193
 3200WAT      O13519   5.707   5.954   1.474 -0.2228  0.2567  0.1565
 3200WAT     H113520   5.694   5.875   1.507 -2.4767  0.7104  0.5548
 3200WAT     H213521   5.763   5.940   1.409  0.9351 -1.3293  1.4206
 3200WAT    EPW13522   5.713   5.940   1.469 -0.3847  0.0894  0.4021
 3201WAT      O13523   2.183   0.352   6.258 -0.1002 -0.0503 -0.1772
 3201WAT     H113524   2.164   0.343   6.343 -2.8860 -0.7115 -0.7811
 3201WAT     H213525   2.229   0.425   6.255  0.4120 -0.2136  1.9421
 3201WAT    EPW13526   2.187   0.361   6.270 -0.4361 -0.1721  0.0467
 3202WAT      O13527   1.361   5.651   2.712  0.1053 -0.5297 -0.0934
 3202WAT     H113528   1.395   5.594   2.767  0.6832  0.0226  0.1373
 3202WAT     H213529   1.431   5.689   2.676 -0.2619 -0.8466 -1.1717
 3202WAT    EPW13530   1.376   5.648   2.715  0.1365 -0.4950 -0.2186
 3203WAT      O13531   2.276   3.058   4.819  0.5915 -0.4262  0.4602
 3203WAT     H113532   2.211   3.019   4.862  0.8902 -0.1021  1.2258
 3203WAT     H213533   2.256   3.143   4.824 -0.5543 -0.4615 -2.0064
 3203WAT    EPW13534   2.264   3.065   4.826  0.4663 -0.3835  0.2089
 3204WAT      O13535   2.218   6.621   1.071 -0.1104 -0.2019 -0.1127
 3204WAT     H113536   2.206   6.632   1.156 -2.7724  1.6584 -0.6016
 3204WAT     H213537   2.291   6.573   1.066  0.0307 -0.5171  3.1635
 3204WAT    EPW13538   2.227   6.616   1.083 -0.4828  0.0263  0.2990
 3205WAT      O13539   5.387   4.346   3.758 -0.0308 -0.1460  0.2413
 3205WAT     H113540   5.460   4.319   3.720 -0.8117 -0.2053 -1.2962
 3205WAT     H213541   5.326   4.332   3.697 -1.0662  1.4391  0.8434
 3205WAT    EPW13542   5.389   4.340   3.743 -0.2991  0.0794  0.1032
 3206WAT      O13543   6.235   4.650   2.454  0.0947 -0.3884  0.5214
 3206WAT     H113544   6.230   4.725   2.409  0.1244  1.0060  2.7173
 3206WAT     H213545   6.155   4.616   2.444  0.0282 -0.0208 -0.3949
 3206WAT    EPW13546   6.222   4.656   2.446  0.0893 -0.1281  0.7104
 3207WAT      O13547   1.205   0.795   7.173  0.4173  0.1106  0.5918
 3207WAT     H113548   1.239   0.743   7.235 -4.4088 -2.0879  1.8859
 3207WAT     H213549   1.184   0.868   7.217 -0.6288 -0.4259  1.0441
 3207WAT    EPW13550   1.207   0.798   7.189 -0.4502 -0.2934  0.8498
 3208WAT      O13551   3.453   3.206   2.198  0.2593 -0.1378 -0.1422
 3208WAT     H113552   3.426   3.205   2.281  1.3962 -0.0169  0.2497
 3208WAT     H213553   3.434   3.126   2.169 -0.3424 -0.1109  0.1568
 3208WAT    EPW13554   3.446   3.194   2.206  0.3383 -0.1160 -0.0402
 3209WAT      O13555   5.356   4.794   2.146  0.5173  0.5841  0.2339
 3209WAT     H113556   5.327   4.875   2.160  3.7131  1.7194  1.1784
 3209WAT     H213557   5.429   4.790   2.193  0.7380 -2.7322 -0.1542
 3209WAT    EPW13558   5.362   4.806   2.155  1.0220  0.2619  0.3161
 3210WAT      O13559   5.161   4.039   3.631  0.3402 -0.1889  0.1318
 3210WAT     H113560   5.130   4.107   3.677  1.8762  1.3504 -0.9637
 3210WAT     H213561   5.239   4.025   3.666 -0.6434 -2.7135  1.5671
 3210WAT    EPW13562   5.168   4.047   3.643  0.4218 -0.3345  0.1820
 3211WAT      O13563   6.195   3.251   4.950  0.6510  0.4047 -0.1556
 3211WAT     H113564   6.236   3.248   4.873 -0.9530 -0.7899 -1.0135
 3211WAT     H213565   6.144   3.321   4.943  0.8823  0.5925  0.0276
 3211WAT    EPW13566   6.194   3.261   4.938  0.4482  0.2560 -0.2553
 3212WAT      O13567   0.018   0.280   4.427  0.2712 -0.2824 -0.3118
 3212WAT     H113568   0.056   0.251   4.500  0.1711  1.2889  0.4195
 3212WAT     H213569   0.057   0.357   4.413 -0.1909 -0.2478 -1.5313
 3212WAT    EPW13570   0.029   0.287   4.436  0.1882 -0.0451 -0.3839
 3213WAT      O13571   2.459   4.185   0.740  0.0892 -0.0642 -0.5139
 3213WAT     H113572   2.439   4.240   0.804  0.1650 -0.2618 -0.3194
 3213WAT     H213573   2.398   4.200   0.680  0.8260  1.1108 -1.0063
 3213WAT    EPW13574   2.447   4.195   0.740  0.2092  0.0802 -0.5579
 3214WAT      O13575   0.036   2.447   0.035 -0.4344  0.4782  0.0985
 3214WAT     H113576   0.023   2.456   0.121 -0.0088 -2.2675  0.5483
 3214WAT     H213577  -0.041   2.416   0.006 -0.4645  1.0628 -0.4460
 3214WAT    EPW13578   0.023   2.443   0.043 -0.3760  0.1590  0.0845
 3215WAT      O13579   5.176   0.293   3.870  0.5134  0.0906 -0.9858
 3215WAT     H113580   5.156   0.211   3.895  0.3882  0.6735  0.9773
 3215WAT     H213581   5.230   0.281   3.803  0.9171 -1.6304 -0.4113
 3215WAT    EPW13582   5.181   0.279   3.864  0.5546 -0.0775 -0.6109
 3216WAT      O13583   0.105   2.274   6.657 -0.1250 -0.3500  0.5547
 3216WAT     H113584   0.066   2.342   6.617  2.8155  0.1335 -1.8152
 3216WAT     H213585   0.126   2.306   6.735 -0.8224  0.6983  0.3419
 3216WAT    EPW13586   0.102   2.289   6.663  0.2064 -0.1237  0.1732
 3217WAT      O13587   3.978   3.605   4.343 -0.0191  0.3077 -0.0850
 3217WAT     H113588   3.919   3.569   4.397 -0.4657 -1.1094 -1.4302
 3217WAT     H213589   4.047   3.618   4.394  0.1943 -2.5869  0.5423
 3217WAT    EPW13590   3.979   3.601   4.358 -0.0535 -0.3292 -0.1910
 3218WAT      O13591   2.201   3.656   5.315  0.4655 -0.4111  0.1888
 3218WAT     H113592   2.246   3.709   5.263 -0.0083 -1.1230 -0.9745
 3218WAT     H213593   2.198   3.700   5.390 -0.6077  1.5846 -0.9495
 3218WAT    EPW13594   2.207   3.670   5.319  0.2369 -0.2215 -0.1512
 3219WAT      O13595   6.069   5.129   5.515 -0.6061  0.0283 -0.1741
 3219WAT     H113596   6.083   5.130   5.429 -0.2315  1.9213 -0.1449
 3219WAT     H213597   6.133   5.080   5.546 -0.4705 -0.2982 -0.9419
 3219WAT    EPW13598   6.080   5.122   5.507 -0.5307  0.2597 -0.2832
 3220WAT      O13599   1.186   0.444   2.491 -0.1309  0.6415  0.2383
 3220WAT     H113600   1.168   0.478   2.413 -0.5621  1.3125  0.6184
 3220WAT     H213601   1.222   0.511   2.535  1.7289 -0.1869  0.0747
 3220WAT    EPW13602   1.189   0.459   2.486  0.0801  0.6183  0.2703
 3221WAT      O13603   3.920   7.122   4.959  0.3468  0.2990  0.1205
 3221WAT     H113604   3.983   7.062   4.969  0.3706  0.6336  2.6437
 3221WAT     H213605   3.959   7.196   4.981 -0.0255  1.1349 -1.7896
 3221WAT    EPW13606   3.935   7.124   4.963  0.2953  0.4719  0.2111
 3222WAT      O13607   3.142   0.819   7.103  0.0773  0.4119 -0.0215
 3222WAT     H113608   3.153   0.899   7.071 -0.3173 -0.0262 -1.3252
 3222WAT     H213609   3.213   0.807   7.153  0.6702  1.1828 -0.6494
 3222WAT    EPW13610   3.154   0.829   7.106  0.1066  0.4611 -0.3068
 3223WAT      O13611   4.962   3.575   0.374 -0.2141 -0.5592  0.0458
 3223WAT     H113612   5.049   3.580   0.376 -0.2569  0.1967  0.1999
 3223WAT     H213613   4.945   3.525   0.304  0.3515 -1.0935  0.2820
 3223WAT    EPW13614   4.972   3.568   0.364 -0.1369 -0.5265  0.1034
 3224WAT      O13615   6.889   1.961   6.285  0.0727  0.7382 -0.0051
 3224WAT     H113616   6.879   1.981   6.369  0.9031 -0.4455  0.4002
 3224WAT     H213617   6.846   1.885   6.276  0.3759  0.6213 -0.5392
 3224WAT    EPW13618   6.881   1.953   6.296  0.2402  0.5461 -0.0242
 3225WAT      O13619   0.680   4.238   3.068  0.3676  0.3411  0.3527
 3225WAT     H113620   0.623   4.287   3.024 -0.5346  0.9662  2.0989
 3225WAT     H213621   0.680   4.274   3.148  2.4567 -0.2956  0.6913
 3225WAT    EPW13622   0.672   4.250   3.074  0.5429  0.3394  0.6606
 3226WAT      O13623   1.095   5.389   5.278  0.3532  0.0350  0.2386
 3226WAT     H113624   1.127   5.331   5.220  0.6354 -1.4284  1.7697
 3226WAT     H213625   1.137   5.463   5.258  0.9498 -0.5940 -0.9767
 3226WAT    EPW13626   1.106   5.391   5.267  0.4830 -0.2741  0.2853
 3227WAT      O13627   4.999   3.996   7.381 -0.8300 -0.1528  0.1455
 3227WAT     H113628   4.956   3.987   7.306  0.0008 -0.4798 -0.3090
 3227WAT     H213629   5.078   4.025   7.356 -1.0849  1.4411  1.0263
 3227WAT    EPW13630   5.004   3.999   7.366 -0.7449  0.0343  0.2084
 3228WAT      O13631   0.542   5.954   2.938 -0.1435 -0.0824  0.1209
 3228WAT     H113632   0.514   5.882   2.980  2.3790 -1.4908 -0.3894
 3228WAT     H213633   0.614   5.926   2.896  0.4788  2.5737 -0.7548
 3228WAT    EPW13634   0.549   5.939   2.938  0.3210  0.1019 -0.0838
 3229WAT      O13635   4.559   4.017   5.111 -0.0156  0.3526  0.2960
 3229WAT     H113636   4.510   3.961   5.065  0.7802 -1.1676  1.2263
 3229WAT     H213637   4.607   4.056   5.049 -1.3902  0.8881 -0.4844
 3229WAT    EPW13638   4.559   4.014   5.095 -0.1011  0.2071  0.3181
 3230WAT      O13639   4.800   1.977   2.998  0.4081 -0.6541 -0.1315
 3230WAT     H113640   4.847   1.940   3.062  0.0186 -0.7707  0.0907
 3230WAT     H213641   4.719   1.950   3.014  0.2495 -0.3822 -0.4619
 3230WAT    EPW13642   4.795   1.968   3.010  0.3271 -0.6312 -0.1475
 3231WAT      O13643   6.141   4.227   1.000 -0.2611  0.8223  0.1593
 3231WAT     H113644   6.146   4.146   0.968  0.2976 -0.1552  2.5789
 3231WAT     H213645   6.196   4.272   0.950 -1.2067 -0.0508 -1.7763
 3231WAT    EPW13646   6.150   4.222   0.988 -0.3182  0.5489  0.2308
 3232WAT      O13647   0.095   3.307   3.192  0.3536 -0.5905  0.3483
 3232WAT     H113648   0.018   3.267   3.193 -0.2777  0.5636  0.2359
 3232WAT     H213649   0.097   3.350   3.268  0.1330  0.6926 -0.3395
 3232WAT    EPW13650   0.084   3.307   3.203  0.2277 -0.2304  0.2301
 3233WAT      O13651   1.266   6.158   4.772 -0.3177  0.4877 -0.2140
 3233WAT     H113652   1.191   6.189   4.740 -0.5336 -0.6733 -0.8720
 3233WAT     H213653   1.250   6.149   4.857 -0.4190  1.6494 -0.1010
 3233WAT    EPW13654   1.253   6.161   4.780 -0.3646  0.4878 -0.2945
 3234WAT      O13655   6.140   5.236   0.927  0.2416 -0.0740  0.6840
 3234WAT     H113656   6.185   5.186   0.872  1.3927  0.3099  1.2342
 3234WAT     H213657   6.072   5.186   0.950 -0.3185 -0.2110 -1.1062
 3234WAT    EPW13658   6.136   5.222   0.923  0.3289 -0.0375  0.5009
 3235WAT      O13659   3.708   4.960   3.178  0.3904 -0.5751  0.1258
 3235WAT     H113660   3.696   4.964   3.091 -3.6757  0.5647  0.5166
 3235WAT     H213661   3.671   4.885   3.201 -0.4619  0.0842  1.0138
 3235WAT    EPW13662   3.701   4.950   3.168 -0.3361 -0.3093  0.3147
 3236WAT      O13663   3.774   0.486   3.981  0.1894  0.3146 -0.2141
 3236WAT     H113664   3.776   0.474   3.895 -0.0121  1.6520 -0.4268
 3236WAT     H213665   3.834   0.430   4.011  1.1891  0.7284 -1.3418
 3236WAT    EPW13666   3.783   0.476   3.973  0.3073  0.5733 -0.4121
 3237WAT      O13667   6.222   7.125   2.686 -0.1418 -0.1194 -0.5023
 3237WAT     H113668   6.281   7.142   2.748 -0.7972 -1.1153  0.4309
 3237WAT     H213669   6.158   7.181   2.704  1.3332  2.5930 -2.8820
 3237WAT    EPW13670   6.222   7.136   2.698 -0.0207  0.1342 -0.7160
 3238WAT      O13671   5.686   1.238   2.550  0.4678  0.0536  0.0376
 3238WAT     H113672   5.731   1.308   2.523  0.9867  0.0087  0.7549
 3238WAT     H213673   5.738   1.202   2.610 -0.0618 -0.6088  0.1094
 3238WAT    EPW13674   5.701   1.243   2.555  0.4662 -0.0509  0.1542
 3239WAT      O13675   0.695   4.704   5.031 -0.0722 -0.1919  0.4527
 3239WAT     H113676   0.782   4.697   5.030 -0.0017  0.6762 -0.4771
 3239WAT     H213677   0.680   4.788   5.049 -0.6004  0.6011 -2.9730
 3239WAT    EPW13678   0.705   4.715   5.034 -0.1398  0.0535 -0.1907
 3240WAT      O13679   5.315   1.703   7.102  0.1656 -0.2414 -0.0642
 3240WAT     H113680   5.284   1.759   7.043  0.0530 -0.4933 -0.2445
 3240WAT     H213681   5.401   1.720   7.102 -0.0491  1.0046  1.0054
 3240WAT    EPW13682   5.323   1.714   7.093  0.1173 -0.0945  0.0671
 3241WAT      O13683   3.362   0.341   5.698  0.6234  0.2334  0.2342
 3241WAT     H113684   3.429   0.315   5.650  0.0193 -1.4716  0.2676
 3241WAT     H213685   3.399   0.385   5.764  1.7612 -1.3121  0.6549
 3241WAT    EPW13686   3.377   0.344   5.701  0.7022 -0.2467  0.3012
 3242WAT      O13687   2.728   1.738   4.138 -0.6801 -0.4819  0.1549
 3242WAT     H113688   2.665   1.776   4.184 -0.6568 -0.0575 -0.1537
 3242WAT     H213689   2.688   1.670   4.100 -2.1195  1.9669 -3.3192
 3242WAT    EPW13690   2.713   1.734   4.139 -0.8893 -0.0574 -0.4039
 3243WAT      O13691   6.209   4.061   2.670 -0.2307 -0.2547 -0.0523
 3243WAT     H113692   6.189   4.115   2.736 -1.1872  0.0977 -0.6229
 3243WAT     H213693   6.132   4.037   2.639  0.1875 -1.6829 -0.0515
 3243WAT    EPW13694   6.195   4.065   2.675 -0.3102 -0.4136 -0.1365
 3244WAT      O13695   2.913   6.087   2.881  0.6373  0.5603  0.0333
 3244WAT     H113696   2.887   6.135   2.813 -0.6920 -0.7980 -0.4616
 3244WAT     H213697   2.997   6.071   2.863  0.4374  0.6276 -1.0470
 3244WAT    EPW13698   2.921   6.092   2.868  0.4114  0.3696 -0.1994
 3245WAT      O13699   1.728   5.209   5.014  0.4901  0.4504 -0.2082
 3245WAT     H113700   1.725   5.153   5.081  2.0868 -0.5042 -0.8671
 3245WAT     H213701   1.649   5.202   4.978 -0.0783  0.2849  1.0195
 3245WAT    EPW13702   1.716   5.200   5.019  0.6420  0.2850 -0.1241
 3246WAT      O13703   7.182   5.251   3.361 -0.1838 -0.4985 -0.1808
 3246WAT     H113704   7.234   5.319   3.379 -0.4422  0.0288 -1.3129
 3246WAT     H213705   7.238   5.185   3.349  0.1989 -0.0959 -0.6932
 3246WAT    EPW13706   7.198   5.251   3.362 -0.1654 -0.3611 -0.4237
 3247WAT      O13707   4.905   2.610   4.825  0.0972  0.2575 -0.7828
 3247WAT     H113708   4.972   2.569   4.862 -1.1202 -1.3442 -0.2238
 3247WAT     H213709   4.933   2.692   4.816  1.2116  0.2631  1.8354
 3247WAT    EPW13710   4.919   2.616   4.829  0.0820  0.0217 -0.3135
 3248WAT      O13711   4.887   6.030   3.950 -0.0730 -0.5885  0.2420
 3248WAT     H113712   4.914   6.070   3.877  1.0652 -2.7216 -0.5821
 3248WAT     H213713   4.800   6.043   3.949  0.1978  1.5215 -0.1159
 3248WAT    EPW13714   4.878   6.038   3.939  0.1351 -0.5919  0.0674
 3249WAT      O13715   1.239   3.880   0.337 -0.4137  0.6203 -1.0989
 3249WAT     H113716   1.224   3.803   0.375 -1.7841  0.7854 -1.2468
 3249WAT     H213717   1.307   3.865   0.285 -0.9350 -0.6196 -1.4504
 3249WAT    EPW13718   1.246   3.867   0.335 -0.6931  0.4616 -1.1727
 3250WAT      O13719   3.050   1.575   4.784 -0.3750  0.1104  0.7800
 3250WAT     H113720   3.082   1.655   4.767  0.0811 -0.5904 -2.3091
 3250WAT     H213721   3.119   1.532   4.816  0.4362  0.0340 -0.9472
 3250WAT    EPW13722   3.065   1.581   4.786 -0.1878 -0.0044  0.0685
 3251WAT      O13723   4.644   1.862   6.552 -0.6533 -0.3848 -0.3985
 3251WAT     H113724   4.697   1.796   6.532  0.4153  0.6688 -1.2376
 3251WAT     H213725   4.626   1.897   6.474  0.8515  1.8070  0.1464
 3251WAT    EPW13726   4.649   1.858   6.537 -0.2731  0.0946 -0.4419
 3252WAT      O13727   6.116   4.942   3.576 -0.1085 -0.2553 -0.3244
 3252WAT     H113728   6.198   4.940   3.546  0.4999  0.6917  1.1131
 3252WAT     H213729   6.067   4.939   3.504  1.2334  1.1327 -1.3646
 3252WAT    EPW13730   6.121   4.941   3.561  0.1796  0.0896 -0.2657
 3253WAT      O13731   3.361   2.229   1.521 -0.5268 -0.1776 -0.2830
 3253WAT     H113732   3.353   2.196   1.602 -3.1341 -2.3143 -1.2588
 3253WAT     H213733   3.391   2.161   1.475  0.2694  0.8211 -1.2877
 3253WAT    EPW13734   3.364   2.214   1.526 -0.7943 -0.3457 -0.5755
 3254WAT      O13735   4.685   6.758   1.834 -0.0979 -0.2286 -0.2754
 3254WAT     H113736   4.675   6.730   1.752  1.2086 -1.8745  0.0849
 3254WAT     H213737   4.772   6.763   1.843 -0.2326  0.1873  0.9308
 3254WAT    EPW13738   4.696   6.755   1.823  0.0752 -0.4103 -0.0440
 3255WAT      O13739   0.198   4.328   3.603  0.4260  0.0392  0.1493
 3255WAT     H113740   0.125   4.371   3.584 -0.4905 -2.3551 -2.5159
 3255WAT     H213741   0.170   4.259   3.649  1.3070  0.0864  0.7920
 3255WAT    EPW13742   0.183   4.324   3.607  0.4208 -0.3075 -0.1495
 3256WAT      O13743   6.935   1.055   4.501 -0.4698  0.2561  0.1986
 3256WAT     H113744   6.878   1.120   4.518 -1.6590  0.4228 -3.5381
 3256WAT     H213745   6.886   0.983   4.504  0.6011 -0.5034  3.1058
 3256WAT    EPW13746   6.919   1.054   4.504 -0.4873  0.1685  0.0761
 3257WAT      O13747   6.421   5.770   4.430 -0.1236  0.1653  0.0740
 3257WAT     H113748   6.378   5.695   4.420 -1.0326  0.7029 -0.1406
 3257WAT     H213749   6.502   5.750   4.406 -0.6811 -0.3756 -1.5012
 3257WAT    EPW13750   6.426   5.756   4.425 -0.3403  0.1648 -0.1904
 3258WAT      O13751   7.166   0.361   5.798  0.5038  0.7556  0.2308
 3258WAT     H113752   7.181   0.283   5.835  1.4051  1.4916  1.4999
 3258WAT     H213753   7.229   0.368   5.738  1.5732  1.2278  1.3512
 3258WAT    EPW13754   7.178   0.351   5.795  0.7949  0.9341  0.5838
 3259WAT      O13755   0.564   2.240   2.019  0.4871 -0.0690  0.2671
 3259WAT     H113756   0.494   2.243   1.967  1.2104  0.0034 -0.7159
 3259WAT     H213757   0.542   2.292   2.086 -0.0168  0.7399 -0.5065
 3259WAT    EPW13758   0.550   2.248   2.021  0.5195  0.0612  0.0076
 3260WAT      O13759   6.195   5.008   2.781  0.9615  0.7985  0.3197
 3260WAT     H113760   6.183   4.933   2.824 -1.1342  1.6046  1.2596
 3260WAT     H213761   6.132   5.007   2.721  3.9272 -0.4159 -3.2018
 3260WAT    EPW13762   6.184   4.996   2.779  1.0900  0.7382 -0.0617
 3261WAT      O13763   5.066   4.029   3.216  0.8175  0.3868  0.2002
 3261WAT     H113764   5.061   3.960   3.269  0.0740 -0.4193 -0.8714
 3261WAT     H213765   5.129   4.007   3.159  0.0538  0.2299 -0.6084
 3261WAT    EPW13766   5.075   4.016   3.215  0.5948  0.2446 -0.0775
 3262WAT      O13767   1.363   4.769   4.545 -0.2305  0.6086 -0.0848
 3262WAT     H113768   1.369   4.856   4.545 -0.1372  0.6110 -1.0491
 3262WAT     H213769   1.383   4.747   4.463 -2.9388 -0.1344 -0.6632
 3262WAT    EPW13770   1.367   4.779   4.533 -0.6168  0.4992 -0.3127
 3263WAT      O13771   5.792   2.921   3.030 -0.3084 -0.6287  0.2406
 3263WAT     H113772   5.705   2.921   3.030 -0.3403  0.7049  0.8185
 3263WAT     H213773   5.813   3.006   3.033  0.9660 -0.9129  2.9762
 3263WAT    EPW13774   5.783   2.934   3.031 -0.1249 -0.4736  0.7301
 3264WAT      O13775   4.606   4.418   0.692  0.1452 -0.2008  0.2187
 3264WAT     H113776   4.676   4.460   0.724 -1.0980  2.7856 -0.5604
 3264WAT     H213777   4.575   4.374   0.761  0.2413  2.1647  1.9068
 3264WAT    EPW13778   4.612   4.418   0.707 -0.0243  0.5898  0.3530
 3265WAT      O13779   6.588   4.940   2.332  0.2210 -0.2706 -0.1732
 3265WAT     H113780   6.590   4.868   2.282  0.6397 -1.1357  1.0302
 3265WAT     H213781   6.527   4.921   2.392  1.4502 -0.3081  1.1113
 3265WAT    EPW13782   6.579   4.926   2.334  0.4644 -0.4039  0.1943
 3266WAT      O13783   2.390   0.559   6.787  0.2430 -0.2394  0.1045
 3266WAT     H113784   2.413   0.500   6.727  0.9989 -0.5555  0.6863
 3266WAT     H213785   2.445   0.544   6.853  0.7073  1.3830  0.1153
 3266WAT    EPW13786   2.401   0.548   6.788  0.4233 -0.0464  0.1920
 3267WAT      O13787   2.441   6.686   5.875  0.7688 -0.0477 -0.5025
 3267WAT     H113788   2.393   6.745   5.918  0.7748 -0.3736 -0.0308
 3267WAT     H213789   2.383   6.628   5.847  0.9546 -1.1273  1.1597
 3267WAT    EPW13790   2.426   6.686   5.877  0.7971 -0.2553 -0.1873
 3268WAT      O13791   2.387   0.132   5.480  1.0530 -0.8995 -0.2677
 3268WAT     H113792   2.307   0.099   5.488  0.4939  0.3143 -0.5918
 3268WAT     H213793   2.399   0.178   5.553  0.0887  1.6231 -1.5752
 3268WAT    EPW13794   2.377   0.134   5.492  0.8280 -0.3476 -0.5087
 3269WAT      O13795   0.231   0.319   0.562  0.4586  0.0361 -0.1226
 3269WAT     H113796   0.231   0.352   0.482  0.7237 -1.2495 -0.6720
 3269WAT     H213797   0.281   0.248   0.556  0.9018  0.1850  1.2987
 3269WAT    EPW13798   0.238   0.314   0.550  0.5632 -0.1318  0.0062
 3270WAT      O13799   0.267   1.110   2.624  0.4450 -0.2231  0.5955
 3270WAT     H113800   0.239   1.192   2.623  0.6525 -0.0917  2.2965
 3270WAT     H213801   0.353   1.118   2.634  0.6846 -0.6613 -0.8686
 3270WAT    EPW13802   0.275   1.123   2.626  0.5110 -0.2684  0.6305
 3271WAT      O13803   4.719   4.113   4.501 -0.5856  0.4517  0.3057
 3271WAT     H113804   4.804   4.127   4.487 -0.1390 -1.5395  0.7487
 3271WAT     H213805   4.707   4.141   4.583  0.1852 -1.1822  1.0276
 3271WAT    EPW13806   4.729   4.120   4.511 -0.4058 -0.0838  0.4778
 3272WAT      O13807   1.905   3.947   6.147 -0.0493  0.5391  0.0531
 3272WAT     H113808   1.858   3.878   6.172 -1.8906  1.4283 -0.7863
 3272WAT     H213809   1.943   3.974   6.221 -0.2939 -0.5994  0.6212
 3272WAT    EPW13810   1.904   3.941   6.162 -0.3574  0.5023  0.0130
 3273WAT      O13811   1.764   7.108   6.972  0.5737  0.7667 -0.0210
 3273WAT     H113812   1.833   7.147   7.008  0.5671  2.0858 -1.3262
 3273WAT     H213813   1.713   7.175   6.948 -0.8769 -0.1576  0.3395
 3273WAT    EPW13814   1.767   7.124   6.974  0.3585  0.8250 -0.1606
 3274WAT      O13815   0.960   0.618   6.245 -0.5175  0.1372 -0.7252
 3274WAT     H113816   0.932   0.538   6.223  1.0919 -1.5158  2.5176
 3274WAT     H213817   0.887   0.661   6.267 -1.2188 -1.4999  0.3201
 3274WAT    EPW13818   0.945   0.613   6.245 -0.3833 -0.3488 -0.0917
 3275WAT      O13819   3.559   3.973   0.404  0.2070  0.3106 -0.1407
 3275WAT     H113820   3.565   3.931   0.481  0.9385 -0.2874 -0.5007
 3275WAT     H213821   3.549   3.908   0.347 -2.7620  0.8623 -0.3865
 3275WAT    EPW13822   3.559   3.957   0.407 -0.1235  0.3037 -0.2302
 3276WAT      O13823   3.139   4.694   3.959  0.0117  0.0578  0.8154
 3276WAT     H113824   3.213   4.673   3.999  1.0585 -0.6006 -1.3463
 3276WAT     H213825   3.164   4.742   3.891 -1.4131 -0.9415 -0.4981
 3276WAT    EPW13826   3.153   4.698   3.955 -0.0441 -0.1871  0.3021
 3277WAT      O13827   4.671   2.881   1.441  0.9033  0.3311  0.0981
 3277WAT     H113828   4.673   2.952   1.492 -1.1209  1.3856 -1.1914
 3277WAT     H213829   4.606   2.833   1.474  1.3098 -0.2660  0.0654
 3277WAT    EPW13830   4.662   2.884   1.453  0.6644  0.3986 -0.0972
 3278WAT      O13831   0.887   6.767   0.277  0.1624 -0.2267 -0.0507
 3278WAT     H113832   0.824   6.784   0.334 -0.5594 -0.7491 -0.6691
 3278WAT     H213833   0.874   6.826   0.214  1.4450  0.8725  0.6611
 3278WAT    EPW13834   0.876   6.778   0.276  0.2453 -0.1415 -0.0369
 3279WAT      O13835   5.596   3.102   3.947 -0.1276  0.1772  0.2272
 3279WAT     H113836   5.654   3.167   3.940  0.5733 -0.6138 -2.0346
 3279WAT     H213837   5.603   3.060   3.872 -1.1311 -2.0806  1.3052
 3279WAT    EPW13838   5.606   3.106   3.935 -0.1723 -0.2732  0.0523
 3280WAT      O13839   0.415   4.482   3.653  0.4173  0.2221  0.0987
 3280WAT     H113840   0.397   4.566   3.638 -0.3714  0.3252  1.3814
 3280WAT     H213841   0.337   4.443   3.648  0.9859 -0.7603 -2.1484
 3280WAT    EPW13842   0.401   4.488   3.650  0.3848  0.0922 -0.0438
 3281WAT      O13843   0.954   4.328   0.756 -0.0437  0.3989 -0.2576
 3281WAT     H113844   0.874   4.363   0.765  0.6065  1.8775  0.1240
 3281WAT     H213845   0.943   4.267   0.695 -1.7527 -0.4213  0.8094
 3281WAT    EPW13846   0.940   4.324   0.748 -0.2001  0.4961 -0.0436
 3282WAT      O13847   5.036   5.357   1.979 -0.1659  0.1103 -0.0797
 3282WAT     H113848   5.055   5.319   1.903  2.9996 -0.2523  0.7410
 3282WAT     H213849   5.104   5.410   1.993 -0.5941  0.1249  2.5249
 3282WAT    EPW13850   5.049   5.359   1.970  0.2385  0.0589  0.4263
 3283WAT      O13851   2.790   5.252   4.500  0.3362  0.4260  0.2683
 3283WAT     H113852   2.860   5.206   4.477  0.0722 -0.1281  0.5526
 3283WAT     H213853   2.728   5.192   4.509 -1.0032  1.1489 -2.8044
 3283WAT    EPW13854   2.791   5.236   4.498  0.0993  0.4509 -0.1436
 3284WAT      O13855   0.196   7.230   5.725  0.5715 -0.3171 -0.1916
 3284WAT     H113856   0.280   7.229   5.751  0.8216  0.4064 -0.9064
 3284WAT     H213857   0.202   7.216   5.639  0.1734  2.0151 -0.6637
 3284WAT    EPW13858   0.210   7.228   5.716  0.5496  0.1343 -0.3669
 3285WAT      O13859   4.194   0.125   7.177  0.1095  0.5376 -0.3956
 3285WAT     H113860   4.169   0.083   7.250  0.5794 -1.6297 -1.3964
 3285WAT     H213861   4.278   0.144   7.192  0.1128  0.4101 -0.2477
 3285WAT    EPW13862   4.202   0.122   7.190  0.1794  0.1986 -0.5216
 3286WAT      O13863   7.099   1.681   7.033  0.4540 -0.3303  0.8066
 3286WAT     H113864   7.160   1.689   6.970 -0.4785 -1.5854 -0.3337
 3286WAT     H213865   7.113   1.750   7.084  1.4796  0.5725 -0.5995
 3286WAT    EPW13866   7.110   1.692   7.031  0.4677 -0.3824  0.4304
 3287WAT      O13867   4.762   7.043   0.058  0.2285 -0.1820 -0.3640
 3287WAT     H113868   4.734   6.961   0.049  0.6634 -0.4296  0.4250
 3287WAT     H213869   4.806   7.058  -0.016 -1.6435  0.1066 -1.4793
 3287WAT    EPW13870   4.765   7.033   0.045  0.0162 -0.1759 -0.4122
 3288WAT      O13871   0.794   1.395   0.213 -0.7702 -0.2715 -0.0453
 3288WAT     H113872   0.868   1.351   0.196  0.3333  1.4026  0.1312
 3288WAT     H213873   0.742   1.335   0.247 -0.2301 -1.9837 -1.9869
 3288WAT    EPW13874   0.797   1.380   0.215 -0.5274 -0.2771 -0.3060
 3289WAT      O13875   3.924   2.365   5.875  0.2900 -0.1980 -0.2736
 3289WAT     H113876   3.894   2.417   5.812 -0.6464  0.9276  1.0368
 3289WAT     H213877   3.856   2.316   5.896  0.2529  0.2025  0.5959
 3289WAT    EPW13878   3.910   2.366   5.869  0.1462  0.0275  0.0484
 3290WAT      O13879   1.276   5.487   0.919  0.1120  0.0106  0.1943
 3290WAT     H113880   1.351   5.498   0.962  1.3574  1.3572 -2.0953
 3290WAT     H213881   1.240   5.567   0.920 -0.2623 -0.1404 -0.4176
 3290WAT    EPW13882   1.281   5.501   0.925  0.2407  0.1872 -0.2343
 3291WAT      O13883   6.757   5.149   5.424 -0.2544 -0.1601 -0.0209
 3291WAT     H113884   6.809   5.196   5.476  0.5975 -0.4915 -0.5489
 3291WAT     H213885   6.811   5.088   5.391 -1.3836 -1.7389  0.9015
 3291WAT    EPW13886   6.773   5.147   5.427 -0.2954 -0.4423  0.0373
 3292WAT      O13887   2.730   0.992   0.133  0.0954  0.1764  0.2989
 3292WAT     H113888   2.770   1.008   0.057  1.2651  0.1797  0.9082
 3292WAT     H213889   2.650   1.025   0.121 -0.5452 -1.8089 -1.7605
 3292WAT    EPW13890   2.724   0.999   0.120  0.1736 -0.1164  0.0847
 3293WAT      O13891   5.100   6.418   1.375  0.0189 -0.6779  0.1919
 3293WAT     H113892   5.085   6.349   1.426 -0.2245 -0.7511  0.0202
 3293WAT     H213893   5.186   6.413   1.360  0.1000 -0.6305  0.6282
 3293WAT    EPW13894   5.111   6.407   1.381 -0.0051 -0.6817  0.2310
 3294WAT      O13895   1.951   2.122   2.433 -0.1508 -0.3214  0.1162
 3294WAT     H113896   2.038   2.114   2.439  0.1400  2.5942  1.1245
 3294WAT     H213897   1.940   2.186   2.375 -1.5278  0.5154  1.2371
 3294WAT    EPW13898   1.962   2.130   2.425 -0.3112  0.2329  0.4307
 3295WAT      O13899   3.491   5.321   1.034  0.4126  0.5371  0.0723
 3295WAT     H113900   3.539   5.264   1.079  0.1929  2.0484  2.3993
 3295WAT     H213901   3.413   5.318   1.072  0.3632  2.2611  0.1933
 3295WAT    EPW13902   3.487   5.313   1.046  0.3729  1.0150  0.4339
 3296WAT      O13903   0.986   6.997   6.211 -0.3626  0.3789  0.0365
 3296WAT     H113904   1.032   7.067   6.190  0.5847 -0.2289  0.0183
 3296WAT     H213905   0.967   6.961   6.134 -1.0913  0.7572  0.0323
 3296WAT    EPW13906   0.990   7.002   6.197 -0.3303  0.3450  0.0332
 3297WAT      O13907   6.501   0.618   3.726  0.6394 -0.5703 -0.0241
 3297WAT     H113908   6.561   0.679   3.745  1.1747 -1.0607 -0.1368
 3297WAT     H213909   6.519   0.596   3.644  0.4206 -0.8523  0.0030
 3297WAT    EPW13910   6.513   0.624   3.717  0.6862 -0.6844 -0.0367
 3298WAT      O13911   4.888   4.875   3.065  0.2012  0.3649  0.1997
 3298WAT     H113912   4.924   4.845   3.139  0.0270  0.3315  0.2716
 3298WAT     H213913   4.832   4.935   3.093 -0.0196  0.2011  0.1084
 3298WAT    EPW13914   4.885   4.879   3.080  0.1429  0.3358  0.1969
 3299WAT      O13915   4.880   3.814   3.628 -0.2193 -0.1199  0.6386
 3299WAT     H113916   4.955   3.824   3.583 -0.7272 -1.1842 -0.5044
 3299WAT     H213917   4.821   3.801   3.565 -2.0734  3.9814  1.2062
 3299WAT    EPW13918   4.882   3.814   3.612 -0.5682  0.3287  0.5536
 3300WAT      O13919   7.032   4.889   4.276  0.1299  0.5074  0.4604
 3300WAT     H113920   7.087   4.822   4.264  1.3356  1.4017  0.8188
 3300WAT     H213921   7.047   4.940   4.206 -0.7990  0.4023  0.1721
 3300WAT    EPW13922   7.043   4.887   4.264  0.1708  0.6240  0.4707
 3301WAT      O13923   5.130   0.345   2.414 -0.1644  0.0213 -0.2518
 3301WAT     H113924   5.085   0.349   2.339  0.8284 -1.0151 -0.9465
 3301WAT     H213925   5.085   0.288   2.462 -1.2223  1.2603  0.2647
 3301WAT    EPW13926   5.117   0.337   2.410 -0.1740  0.0512 -0.2781
 3302WAT      O13927   3.088   0.222   5.786 -0.2685 -0.4510  0.2894
 3302WAT     H113928   3.138   0.251   5.721 -0.2145  0.1839  0.6034
 3302WAT     H213929   3.025   0.178   5.745 -0.2225 -0.0836 -0.1979
 3302WAT    EPW13930   3.086   0.220   5.770 -0.2537 -0.3029  0.2638
 3303WAT      O13931   5.031   1.365   0.277 -0.0878  0.2240 -0.6951
 3303WAT     H113932   5.080   1.354   0.348  0.7123 -0.4924 -1.3368
 3303WAT     H213933   5.039   1.289   0.235 -0.9851  0.4439 -1.2876
 3303WAT    EPW13934   5.040   1.352   0.281 -0.1021  0.1506 -0.8774
 3304WAT      O13935   5.564   0.866   6.299 -0.3600 -0.0492 -0.5692
 3304WAT     H113936   5.493   0.907   6.327 -0.6327 -1.4697  1.0396
 3304WAT     H213937   5.542   0.782   6.303  1.3641 -0.5301 -0.0483
 3304WAT    EPW13938   5.550   0.859   6.304 -0.1456 -0.3301 -0.2546
 3305WAT      O13939   2.923   1.228   3.689  0.5696 -0.3078 -0.2995
 3305WAT     H113940   2.934   1.243   3.774  0.2801 -0.5205 -0.2237
 3305WAT     H213941   2.985   1.169   3.670  2.2908  1.5265 -0.7837
 3305WAT    EPW13942   2.934   1.221   3.699  0.7811 -0.0683 -0.3598
 3306WAT      O13943   7.117   1.774   1.271 -0.3428 -0.0212  0.1750
 3306WAT     H113944   7.049   1.828   1.264 -1.3309 -1.1922  0.4457
 3306WAT     H213945   7.180   1.825   1.303 -1.4075  0.8356  0.9943
 3306WAT    EPW13946   7.116   1.789   1.275 -0.6460 -0.0676  0.3360
 3307WAT      O13947   7.044   6.805   6.998  0.7676  0.0545 -0.9209
 3307WAT     H113948   7.004   6.734   7.030  0.0969  0.9378  0.2860
 3307WAT     H213949   6.978   6.861   6.984  1.3001  0.5022 -1.7210
 3307WAT    EPW13950   7.028   6.803   7.000  0.7472  0.2511 -0.8608
 3308WAT      O13951   1.018   1.967   6.012  0.3534 -0.2162  0.1165
 3308WAT     H113952   1.051   2.045   6.031 -1.9622  0.8719  0.0422
 3308WAT     H213953   1.002   1.972   5.926 -0.7158 -0.3575  0.2902
 3308WAT    EPW13954   1.020   1.979   6.002 -0.1466 -0.0764  0.1312
 3309WAT      O13955   5.332   2.187   6.567 -0.8980  0.3198  0.3176
 3309WAT     H113956   5.286   2.217   6.634 -2.3469  0.7341 -0.8238
 3309WAT     H213957   5.413   2.216   6.583 -0.9972 -0.3601  2.3230
 3309WAT    EPW13958   5.338   2.195   6.580 -1.1267  0.2806  0.4452
 3310WAT      O13959   6.666   3.569   3.135 -0.3583 -0.0554  0.0088
 3310WAT     H113960   6.693   3.489   3.114 -1.5659 -0.6399  0.5368
 3310WAT     H213961   6.652   3.607   3.058 -0.5930 -0.6663 -0.2590
 3310WAT    EPW13962   6.668   3.563   3.120 -0.5713 -0.2320  0.0472
 3311WAT      O13963   4.320   0.848   7.354 -0.0477  0.2296 -0.1023
 3311WAT     H113964   4.340   0.870   7.272 -1.0211 -1.4326 -0.8373
 3311WAT     H213965   4.239   0.880   7.364  0.0375  0.3540  0.1747
 3311WAT    EPW13966   4.311   0.856   7.343 -0.1789  0.0025 -0.1699
 3312WAT      O13967   3.585   2.810   3.422 -0.7737 -0.8196 -0.3931
 3312WAT     H113968   3.591   2.754   3.488 -0.5046 -0.4242 -0.0788
 3312WAT     H213969   3.625   2.769   3.356  0.1263 -0.6747  0.0479
 3312WAT    EPW13970   3.592   2.796   3.422 -0.6010 -0.7398 -0.2815
 3313WAT      O13971   5.357   1.913   6.643  0.6552 -0.3706  0.0856
 3313WAT     H113972   5.355   1.999   6.627  2.8395 -0.1520  0.7333
 3313WAT     H213973   5.442   1.893   6.642  0.4885 -1.8615  3.3078
 3313WAT    EPW13974   5.369   1.923   6.640  0.9532 -0.5586  0.6572
 3314WAT      O13975   5.749   6.841   5.711  0.0784 -0.1805  0.2609
 3314WAT     H113976   5.808   6.846   5.646 -1.4101 -0.4973 -1.1815
 3314WAT     H213977   5.716   6.761   5.702 -1.5875  0.4926  0.0799
 3314WAT    EPW13978   5.753   6.830   5.700 -0.3876 -0.1279  0.0211
 3315WAT      O13979   0.993   5.242   6.054 -0.2459  0.6536 -0.1850
 3315WAT     H113980   0.945   5.171   6.040  0.4414  0.2437 -0.5202
 3315WAT     H213981   1.074   5.217   6.031  0.0025  1.5407 -0.3203
 3315WAT    EPW13982   0.998   5.228   6.048 -0.1077  0.7241 -0.2545
 3316WAT      O13983   5.473   2.330   1.107 -0.0239  0.6824 -0.4202
 3316WAT     H113984   5.404   2.378   1.084 -0.3943  0.0177 -0.7248
 3316WAT     H213985   5.489   2.282   1.035 -0.0594 -0.1035  0.0892
 3316WAT    EPW13986   5.465   2.330   1.093 -0.0839  0.4681 -0.3900
 3317WAT      O13987   7.170   1.864   4.436 -0.4734  0.1169  0.0291
 3317WAT     H113988   7.248   1.837   4.407  0.2680  2.3171 -0.2088
 3317WAT     H213989   7.116   1.798   4.414  1.4755 -2.1420  1.4794
 3317WAT    EPW13990   7.173   1.850   4.428 -0.0760  0.1083  0.2082
 3318WAT      O13991   5.845   2.763   3.686 -0.2155  0.1874  0.5698
 3318WAT     H113992   5.899   2.825   3.717  1.1556 -0.2518 -0.7987
 3318WAT     H213993   5.891   2.690   3.695  0.4007  0.0632 -2.5983
 3318WAT    EPW13994   5.860   2.762   3.692  0.0781  0.1042 -0.1004
 3319WAT      O13995   3.338   3.253   4.423  0.5736  0.0680 -0.1691
 3319WAT     H113996   3.335   3.175   4.462  1.4377 -0.2925 -0.7707
 3319WAT     H213997   3.280   3.301   4.467 -0.0378 -0.9409  0.1471
 3319WAT    EPW13998   3.329   3.249   4.435  0.6110 -0.1343 -0.2113
 3320WAT      O13999   4.479   5.459   4.509  0.5362  0.5385  0.5211
 3320WAT     H114000   4.415   5.463   4.450  0.7938 -0.3088  0.1560
 3320WAT     H214001   4.441   5.488   4.582 -0.0347  0.7931  0.1380
 3320WAT    EPW14002   4.464   5.464   4.511  0.4899  0.4509  0.4106
 3321WAT      O14003   1.785   0.257   2.314  0.2777 -0.1168 -0.7018
 3321WAT     H114004   1.841   0.193   2.334 -1.1276 -0.7553  1.5383
 3321WAT     H214005   1.727   0.218   2.262  0.4423 -0.1613 -0.8518
 3321WAT    EPW14006   1.784   0.242   2.309  0.0944 -0.2177 -0.3930
 3322WAT      O14007   0.507   6.464   2.435 -0.1940 -0.1183 -0.0742
 3322WAT     H114008   0.519   6.393   2.387  2.0466  1.5328 -2.2215
 3322WAT     H214009   0.565   6.521   2.402 -2.2515  2.9081  1.0831
 3322WAT    EPW14010   0.518   6.462   2.423 -0.1669  0.5727 -0.2204
 3323WAT      O14011   5.737   4.976   1.631 -0.2924  0.1069  0.1906
 3323WAT     H114012   5.805   4.958   1.580  0.6194 -1.2690  1.7957
 3323WAT     H214013   5.675   4.921   1.603 -0.6707  1.0839 -1.0040
 3323WAT    EPW14014   5.738   4.965   1.619 -0.2136  0.0480  0.2513
 3324WAT      O14015   1.680   1.611   6.175  0.1995  0.5623  0.7580
 3324WAT     H114016   1.755   1.655   6.181  1.7204 -1.8835  0.8582
 3324WAT     H214017   1.683   1.555   6.242 -1.8626  0.5674  0.9105
 3324WAT    EPW14018   1.692   1.610   6.186  0.1196  0.2017  0.7953
 3325WAT      O14019   1.185   1.653   2.495 -0.4506  0.0658  0.2822
 3325WAT     H114020   1.222   1.662   2.573  3.3249  0.2582 -1.2957
 3325WAT     H214021   1.185   1.734   2.462 -0.4441 -0.2320 -0.4934
 3325WAT    EPW14022   1.191   1.666   2.501  0.1080  0.0502 -0.0654
 3326WAT      O14023   2.214   3.492   3.852  0.1496  0.4388  0.4173
 3326WAT     H114024   2.156   3.427   3.858  0.7496 -0.2444 -0.9182
 3326WAT     H214025   2.165   3.563   3.865 -0.8521 -0.1665  0.0888
 3326WAT    EPW14026   2.198   3.493   3.855  0.0903  0.2485  0.1715
 3327WAT      O14027   5.248   6.270   5.524  0.8441  0.1574  0.2243
 3327WAT     H114028   5.196   6.330   5.488  0.4013  0.2069  0.9308
 3327WAT     H214029   5.214   6.195   5.497  1.1418  0.2001 -0.3043
 3327WAT    EPW14030   5.236   6.268   5.515  0.8226  0.1710  0.2506
 3328WAT      O14031   4.390   7.085   2.581  0.1714  0.4297  0.3425
 3328WAT     H114032   4.476   7.097   2.592  0.1864 -0.6326  1.5556
 3328WAT     H214033   4.357   7.164   2.592  1.0073  0.9358 -0.5326
 3328WAT    EPW14034   4.398   7.098   2.584  0.2971  0.3475  0.3924
 3329WAT      O14035   5.969   0.324   3.963 -0.3322  0.1005  0.1274
 3329WAT     H114036   5.966   0.279   3.888 -0.5843 -2.1825  1.4191
 3329WAT     H214037   6.009   0.270   4.018  2.7447  2.8925  0.9600
 3329WAT    EPW14038   5.974   0.310   3.960  0.0851  0.1757  0.4412
 3330WAT      O14039   3.323   4.677   5.990  0.2126 -0.1244  0.1571
 3330WAT     H114040   3.299   4.610   6.040  2.1838 -0.9710  0.0970
 3330WAT     H214041   3.340   4.640   5.913  1.8467  0.2977  0.2654
 3330WAT    EPW14042   3.322   4.662   5.986  0.7451 -0.1871  0.1642
 3331WAT      O14043   3.021   0.361   6.284 -0.3831 -0.3163 -0.2372
 3331WAT     H114044   3.088   0.387   6.333 -0.2387 -2.0142  0.5547
 3331WAT     H214045   3.054   0.359   6.203  0.3804 -0.6436  0.0743
 3331WAT    EPW14046   3.035   0.364   6.279 -0.2490 -0.6155 -0.0742
 3332WAT      O14047   1.823   3.108   2.564 -0.0537 -0.0051 -0.6285
 3332WAT     H114048   1.818   3.106   2.477 -0.8971 -1.4658 -0.5798
 3332WAT     H214049   1.872   3.178   2.580 -2.4515  2.2462 -2.1660
 3332WAT    EPW14050   1.829   3.118   2.553 -0.5325  0.1117 -0.8484
 3333WAT      O14051   3.760   0.675   3.568 -0.2147  0.3449 -0.1194
 3333WAT     H114052   3.835   0.714   3.549 -0.1646  0.3005 -0.0120
 3333WAT     H214053   3.711   0.739   3.601 -0.3341  0.4424 -0.4799
 3333WAT    EPW14054   3.764   0.690   3.570 -0.2249  0.3527 -0.1568
 3334WAT      O14055   6.134   0.030   0.509 -0.5275  0.3503 -0.4202
 3334WAT     H114056   6.086   0.103   0.499  0.0359  0.7013 -0.6231
 3334WAT     H214057   6.162   0.013   0.428 -0.4572  0.0421 -0.3319
 3334WAT    EPW14058   6.131   0.038   0.495 -0.4339  0.3566 -0.4371
 3335WAT      O14059   1.049   1.872   1.477 -0.1326 -0.1007 -0.5092
 3335WAT     H114060   1.117   1.818   1.468  2.1122  2.4170  0.0064
 3335WAT     H214061   1.000   1.855   1.408  0.7142 -2.4239 -0.6098
 3335WAT    EPW14062   1.052   1.862   1.465  0.3241 -0.0719 -0.4479
 3336WAT      O14063   6.358   0.752   2.714  0.2305  0.7641 -0.6361
 3336WAT     H114064   6.303   0.718   2.655 -2.8817  0.2602  2.2390
 3336WAT     H214065   6.339   0.837   2.712 -3.0349  0.3216  2.2076
 3336WAT    EPW14066   6.347   0.760   2.705 -0.7116  0.6243  0.2087
 3337WAT      O14067   1.801   5.183   6.384  0.4694 -0.3789 -0.5003
 3337WAT     H114068   1.791   5.267   6.362  0.2019 -1.0419 -3.1691
 3337WAT     H214069   1.887   5.174   6.392  0.5761 -0.0871 -1.2747
 3337WAT    EPW14070   1.812   5.194   6.382  0.4456 -0.4337 -1.0089
 3338WAT      O14071   2.153   1.801   1.648 -0.4560  0.1872  0.2289
 3338WAT     H114072   2.196   1.864   1.690 -1.3386  1.2932 -0.4561
 3338WAT     H214073   2.217   1.757   1.608  0.1993  0.5701  0.8126
 3338WAT    EPW14074   2.169   1.804   1.648 -0.4896  0.4071  0.2140
 3339WAT      O14075   2.793   5.935   4.540 -0.2108 -0.3758 -0.2524
 3339WAT     H114076   2.771   5.851   4.544 -1.7217  0.0214  0.4664
 3339WAT     H214077   2.809   5.956   4.624  1.3015 -0.2173 -0.5547
 3339WAT    EPW14078   2.792   5.926   4.553 -0.2106 -0.2937 -0.1908
 3340WAT      O14079   3.133   2.626   5.599 -0.1505 -0.2781  0.0007
 3340WAT     H114080   3.117   2.596   5.679 -1.2312  0.8832  0.2570
 3340WAT     H214081   3.212   2.595   5.580 -0.1161 -1.0322  1.2839
 3340WAT    EPW14082   3.142   2.617   5.608 -0.3050 -0.2179  0.2281
 3341WAT      O14083   6.868   0.328   1.193 -0.3554  0.6689  0.0791
 3341WAT     H114084   6.932   0.349   1.249 -0.0463 -0.2701  0.1028
 3341WAT     H214085   6.880   0.242   1.181 -0.3775  0.8681 -1.4764
 3341WAT    EPW14086   6.880   0.318   1.200 -0.3130  0.5596 -0.1472
 3342WAT      O14087   5.898   5.864   6.773  0.0838  0.4073 -0.0103
 3342WAT     H114088   5.964   5.921   6.782 -1.4298  2.2408  0.2094
 3342WAT     H214089   5.846   5.902   6.714 -1.6610 -0.0552  1.1565
 3342WAT    EPW14090   5.900   5.878   6.766 -0.3975  0.6098  0.1945
 3343WAT      O14091   6.556   3.843   6.103  0.1606  0.0069 -0.2301
 3343WAT     H114092   6.632   3.838   6.145  0.0095  1.1687  0.2198
 3343WAT     H214093   6.515   3.770   6.128  0.4548  0.2019  0.9108
 3343WAT    EPW14094   6.561   3.832   6.113  0.1817  0.2073  0.0049
 3344WAT      O14095   5.691   1.245   4.355 -0.0511  0.0012  0.3998
 3344WAT     H114096   5.710   1.212   4.433  0.5929  1.6549  0.9961
 3344WAT     H214097   5.616   1.289   4.369 -0.3906 -0.3883 -0.1355
 3344WAT    EPW14098   5.683   1.247   4.369 -0.0061  0.1880  0.4088
 3345WAT      O14099   6.526   5.551   7.352 -0.2309 -0.7206  0.1605
 3345WAT     H114100   6.611   5.563   7.335 -0.2285 -1.8621 -0.7254
 3345WAT     H214101   6.507   5.476   7.313 -2.1892  0.5730 -1.6139
 3345WAT    EPW14102   6.536   5.542   7.344 -0.5198 -0.6981 -0.2325
 3346WAT      O14103   0.453   2.493   4.730  0.0483  0.2078  0.1357
 3346WAT     H114104   0.475   2.537   4.801  1.0736 -0.9699  0.5832
 3346WAT     H214105   0.505   2.525   4.668  1.0903 -0.6313  0.5545
 3346WAT    EPW14106   0.464   2.504   4.731  0.3537 -0.0901  0.2637
 3347WAT      O14107   6.665   4.692   3.996 -0.3490  0.0010  0.4013
 3347WAT     H114108   6.683   4.689   4.081  2.2232 -1.4158 -0.0872
 3347WAT     H214109   6.723   4.750   3.966 -0.5998 -0.2142 -0.5097
 3347WAT    EPW14110   6.676   4.700   4.004 -0.0061 -0.2401  0.1946
 3348WAT      O14111   5.426   1.055   2.777 -0.4705  0.0166 -0.1254
 3348WAT     H114112   5.436   1.074   2.692  0.0831 -1.2693 -0.3747
 3348WAT     H214113   5.343   1.028   2.781 -0.4314 -0.1359 -0.3038
 3348WAT    EPW14114   5.415   1.054   2.765 -0.3829 -0.1958 -0.1886
 3349WAT      O14115   1.128   3.534   2.708 -0.6334 -0.1273  0.2703
 3349WAT     H114116   1.199   3.567   2.669 -1.2645  1.1343  0.1455
 3349WAT     H214117   1.099   3.600   2.758 -1.6948 -0.6265  0.3501
 3349WAT    EPW14118   1.134   3.549   2.709 -0.8834 -0.0147  0.2637
 3350WAT      O14119   4.761   2.679   4.497  0.6218 -0.3490  0.1180
 3350WAT     H114120   4.725   2.750   4.532  0.3846 -0.7832  0.7795
 3350WAT     H214121   4.778   2.628   4.566 -1.9161 -2.2198 -0.4830
 3350WAT    EPW14122   4.758   2.682   4.512  0.2119 -0.6895  0.1270
 3351WAT      O14123   7.008   1.716   0.881 -0.7262 -0.3149  0.0952
 3351WAT     H114124   7.057   1.677   0.942  0.7656  1.0221 -0.1759
 3351WAT     H214125   7.028   1.673   0.808  0.2550  0.3598 -0.0523
 3351WAT    EPW14126   7.018   1.704   0.879 -0.3609 -0.0177  0.0334
 3352WAT      O14127   5.224   1.087   2.574  0.0018  0.4878  0.2766
 3352WAT     H114128   5.149   1.096   2.617 -1.7124  0.9824 -2.5585
 3352WAT     H214129   5.227   1.002   2.555  0.2259  0.4514  0.4647
 3352WAT    EPW14130   5.214   1.075   2.578 -0.2183  0.5555 -0.1144
 3353WAT      O14131   6.074   0.502   2.763  0.4479 -0.4501 -0.1773
 3353WAT     H114132   6.068   0.428   2.718  1.1614 -0.0225 -1.0324
 3353WAT     H214133   6.105   0.559   2.704  0.8412  0.2831  0.7063
 3353WAT    EPW14134   6.078   0.500   2.747  0.6114 -0.2786 -0.1731
 3354WAT      O14135   5.229   7.086   2.168  0.1093 -0.2507  0.4118
 3354WAT     H114136   5.229   7.152   2.225  1.2639  0.8665 -0.7998
 3354WAT     H214137   5.314   7.074   2.151 -0.2051 -0.1295 -1.4865
 3354WAT    EPW14138   5.242   7.094   2.174  0.2334 -0.0678 -0.0476
 3355WAT      O14139   2.197   6.883   0.987  0.8490 -0.0148  0.7518
 3355WAT     H114140   2.173   6.873   0.904 -0.0192 -1.5270  1.1354
 3355WAT     H214141   2.186   6.803   1.021  0.5712  0.7066  2.4656
 3355WAT    EPW14142   2.192   6.869   0.980  0.6797 -0.1316  1.0616
 3356WAT      O14143   1.593   3.861   2.826  0.1739  0.2251  0.4034
 3356WAT     H114144   1.664   3.810   2.820  2.0732  2.7592 -1.0834
 3356WAT     H214145   1.568   3.871   2.743 -1.5860 -0.1251  0.8679
 3356WAT    EPW14146   1.600   3.855   2.813  0.1945  0.5477  0.2524
 3357WAT      O14147   6.741   7.214   1.831 -1.0493  0.5086  0.8583
 3357WAT     H114148   6.708   7.138   1.801 -0.2251 -1.3707  4.2072
 3357WAT     H214149   6.671   7.261   1.849 -1.7771 -1.0231  2.2458
 3357WAT    EPW14150   6.726   7.210   1.829 -1.0350  0.0047  1.5580
 3358WAT      O14151   6.097   6.486   2.289  0.4696  0.3435  0.0141
 3358WAT     H114152   6.016   6.509   2.266  1.1550  0.5190 -2.5378
 3358WAT     H214153   6.093   6.482   2.376 -1.6370  2.7514  0.1689
 3358WAT    EPW14154   6.084   6.489   2.299  0.2597  0.7251 -0.3400
 3359WAT      O14155   0.160   2.493   4.391  0.5691  0.3225 -0.5481
 3359WAT     H114156   0.244   2.513   4.383  1.1009 -1.4145  0.0049
 3359WAT     H214157   0.143   2.508   4.476  0.0874  1.4317 -0.8337
 3359WAT    EPW14158   0.170   2.498   4.403  0.5765  0.2297 -0.5086
 3360WAT      O14159   6.714   1.731   6.323 -1.0345 -0.3612 -0.3817
 3360WAT     H114160   6.769   1.688   6.375  0.4012  1.3968 -0.3581
 3360WAT     H214161   6.652   1.758   6.377 -0.0903  0.5717  0.2632
 3360WAT    EPW14162   6.713   1.728   6.338 -0.6830  0.0363 -0.2830
 3361WAT      O14163   5.672   4.312   0.762 -0.3516  0.4959 -0.3170
 3361WAT     H114164   5.743   4.277   0.800  0.4129  0.6569 -1.5449
 3361WAT     H214165   5.703   4.346   0.688 -1.1320  3.4453  0.5779
 3361WAT    EPW14166   5.687   4.312   0.757 -0.3539  0.9554 -0.3662
 3362WAT      O14167   6.056   6.875   2.367 -0.0892  0.6523  0.6387
 3362WAT     H114168   6.014   6.913   2.301  0.1764 -0.1795 -0.0313
 3362WAT     H214169   6.139   6.903   2.358  0.1610 -0.2375 -0.0077
 3362WAT    EPW14170   6.062   6.884   2.356 -0.0130  0.3980  0.4442
 3363WAT      O14171   2.430   0.573   6.341 -0.4034  0.3970 -0.1969
 3363WAT     H114172   2.510   0.584   6.309 -0.7383  0.6799 -0.9809
 3363WAT     H214173   2.403   0.655   6.357  0.5657  0.2233  3.0085
 3363WAT    EPW14174   2.438   0.587   6.338 -0.3097  0.4131  0.1608
 3364WAT      O14175   5.462   5.912   6.341  0.0156 -0.0617  0.1718
 3364WAT     H114176   5.430   5.845   6.295 -0.7882 -1.2895  2.3478
 3364WAT     H214177   5.398   5.931   6.397  0.4888  2.1448  0.0501
 3364WAT    EPW14178   5.448   5.905   6.342 -0.0332  0.0829  0.4753
 3365WAT      O14179   5.574   1.373   5.237 -0.0827 -0.2967  0.0083
 3365WAT     H114180   5.557   1.322   5.306 -0.1856 -0.8176 -0.3956
 3365WAT     H214181   5.558   1.454   5.267 -0.0129 -0.5071  0.6259
 3365WAT    EPW14182   5.569   1.378   5.252 -0.0876 -0.4047  0.0399
 3366WAT      O14183   7.279   2.989   6.023 -0.2129 -0.2810 -0.3422
 3366WAT     H114184   7.204   3.023   5.994 -0.3798  2.0019  2.3065
 3366WAT     H214185   7.253   2.926   6.078 -0.0927 -0.8332 -0.9101
 3366WAT    EPW14186   7.264   2.985   6.027 -0.2198 -0.0253 -0.0348
 3367WAT      O14187   2.566   5.583   3.105 -0.1129 -0.1377 -0.4512
 3367WAT     H114188   2.571   5.501   3.077  0.8698 -0.2123 -0.0970
 3367WAT     H214189   2.645   5.598   3.140 -0.9378  0.2655  1.3619
 3367WAT    EPW14190   2.578   5.573   3.106 -0.0896 -0.0892 -0.1311
 3368WAT      O14191   4.520   1.270   0.138  0.1180 -0.1932 -0.6493
 3368WAT     H114192   4.453   1.290   0.189  0.6172 -0.2843  0.0646
 3368WAT     H214193   4.588   1.306   0.178  0.5962 -0.7199 -0.9667
 3368WAT    EPW14194   4.520   1.278   0.151  0.2624 -0.2844 -0.5907
 3369WAT      O14195   0.150   4.053   4.442  0.1534  0.1394  0.2697
 3369WAT     H114196   0.201   4.064   4.372 -0.5631 -1.0987 -0.4915
 3369WAT     H214197   0.071   4.037   4.408 -0.6378  1.3488  1.4061
 3369WAT    EPW14198   0.146   4.052   4.427 -0.0693  0.1351  0.3251
 3370WAT      O14199   5.205   2.102   4.794 -0.3018 -0.4563  0.4199
 3370WAT     H114200   5.264   2.110   4.730 -0.7146 -0.6960 -0.0004
 3370WAT     H214201   5.227   2.027   4.833  0.2936 -0.0265  0.9245
 3370WAT    EPW14202   5.217   2.092   4.790 -0.2748 -0.4282  0.4324
 3371WAT      O14203   7.156   5.179   6.704 -0.0157  0.1213  0.1094
 3371WAT     H114204   7.160   5.124   6.636 -2.9530 -0.3260  0.1389
 3371WAT     H214205   7.174   5.128   6.773  1.7113  0.2910 -0.1719
 3371WAT    EPW14206   7.159   5.163   6.704 -0.1945  0.0803  0.0722
 3372WAT      O14207   6.441   0.215   3.457 -0.3602 -0.4159 -0.0299
 3372WAT     H114208   6.373   0.160   3.462 -0.0886 -0.7750 -0.3076
 3372WAT     H214209   6.411   0.287   3.497 -0.7724 -0.7045  0.1928
 3372WAT    EPW14210   6.427   0.218   3.464 -0.3810 -0.5115 -0.0380
 3373WAT      O14211   5.581   6.315   3.369 -0.1966  0.2014 -0.4255
 3373WAT     H114212   5.594   6.400   3.359  0.4520  0.1963  0.3236
 3373WAT     H214213   5.631   6.278   3.308  0.5333  0.3131  0.1006
 3373WAT    EPW14214   5.590   6.322   3.358  0.0071  0.2172 -0.2371
 3374WAT      O14215   2.337   6.014   5.528  0.1445  0.0272 -0.3652
 3374WAT     H114216   2.375   5.937   5.546  1.8261  0.9071  0.0444
 3374WAT     H214217   2.266   6.014   5.578  0.5323 -0.9483  0.2102
 3374WAT    EPW14218   2.332   6.003   5.538  0.4502  0.0130 -0.2197
 3375WAT      O14219   5.365   2.411   5.362  0.2016  0.2131 -0.2894
 3375WAT     H114220   5.445   2.404   5.396  1.0264 -0.2598 -2.2136
 3375WAT     H214221   5.323   2.341   5.393  0.7366  0.0916  0.1760
 3375WAT    EPW14222   5.371   2.400   5.372  0.4024  0.1253 -0.5049
 3376WAT      O14223   1.940   6.553   6.692  0.5547  0.1108 -0.0539
 3376WAT     H114224   1.959   6.493   6.632 -1.0888 -1.3521  0.7938
 3376WAT     H214225   1.943   6.628   6.648 -0.6719 -0.8985 -2.0044
 3376WAT    EPW14226   1.943   6.555   6.677  0.1307 -0.2544 -0.2168
 3377WAT      O14227   2.099   1.354   1.198  0.1351  0.8298 -0.1891
 3377WAT     H114228   2.119   1.306   1.267  0.2710  0.8636 -0.2041
 3377WAT     H214229   2.012   1.361   1.201  0.1565  0.9914  0.0834
 3377WAT    EPW14230   2.089   1.348   1.208  0.1583  0.8587 -0.1511
 3378WAT      O14231   1.662   5.194   3.340 -0.3654 -0.1675 -0.2488
 3378WAT     H114232   1.697   5.115   3.323 -2.7489 -1.5239  0.7373
 3378WAT     H214233   1.604   5.178   3.402 -0.5976  2.5112  0.3275
 3378WAT    EPW14234   1.659   5.180   3.346 -0.7518  0.0278 -0.0180
 3379WAT      O14235   0.161   3.603   1.676  0.6288 -0.5971 -0.1075
 3379WAT     H114236   0.169   3.590   1.762 -1.7543  1.6531  0.5903
 3379WAT     H214237   0.190   3.685   1.666 -0.0886 -0.4702 -1.2424
 3379WAT    EPW14238   0.166   3.614   1.687  0.1708 -0.2460 -0.1721
 3380WAT      O14239   4.817   5.859   2.879 -1.0869  0.1337 -0.8300
 3380WAT     H114240   4.735   5.876   2.852 -0.9646  2.2798 -0.0543
 3380WAT     H214241   4.835   5.926   2.932  0.6079 -1.1600  0.3254
 3380WAT    EPW14242   4.807   5.872   2.883 -0.8185  0.2596 -0.5448
 3381WAT      O14243   0.899   2.555   7.252  0.2110  0.3244 -0.4638
 3381WAT     H114244   0.893   2.587   7.333  1.3697 -0.5299 -0.0215
 3381WAT     H214245   0.851   2.482   7.255 -1.6877  1.4501 -1.2309
 3381WAT    EPW14246   0.891   2.549   7.265  0.1016  0.3645 -0.5118
 3382WAT      O14247   4.834   0.692   7.339 -0.0707  0.3148  0.2863
 3382WAT     H114248   4.781   0.622   7.338 -0.5504  0.6768  0.4307
 3382WAT     H214249   4.914   0.657   7.347 -0.1507 -0.3213 -1.2244
 3382WAT    EPW14250   4.838   0.676   7.340 -0.1534  0.2743  0.0845
 3383WAT      O14251   1.215   5.238   5.052 -0.5286  0.3088  0.1458
 3383WAT     H114252   1.293   5.264   5.022 -1.3811  1.5726 -1.1329
 3383WAT     H214253   1.211   5.154   5.028 -0.3148  0.7306 -1.5279
 3383WAT    EPW14254   1.226   5.229   5.044 -0.6229  0.5578 -0.2903
 3384WAT      O14255   3.249   3.369   3.048  0.1817  0.4882 -0.3559
 3384WAT     H114256   3.323   3.409   3.072  0.2015  0.7841 -0.8894
 3384WAT     H214257   3.200   3.434   3.016 -1.2205  0.7337  1.9914
 3384WAT    EPW14258   3.253   3.385   3.047 -0.0225  0.5682 -0.0880
 3385WAT      O14259   3.117   1.080   0.603  0.4872 -0.0899 -0.6237
 3385WAT     H114260   3.101   1.066   0.518 -2.1250 -1.9392  0.0373
 3385WAT     H214261   3.038   1.095   0.636  1.3675 -0.0265  1.5934
 3385WAT    EPW14262   3.103   1.080   0.595  0.2313 -0.3537 -0.1985
 3386WAT      O14263   6.160   4.739   2.885  0.1455  0.1035  0.1395
 3386WAT     H114264   6.076   4.728   2.861  0.5085 -3.5160 -0.0560
 3386WAT     H214265   6.157   4.734   2.972  0.0664  1.1316  0.2028
 3386WAT    EPW14266   6.147   4.737   2.894  0.1874 -0.2793  0.1200
 3387WAT      O14267   1.631   0.108   1.953  0.7892 -0.0520 -0.0373
 3387WAT     H114268   1.569   0.090   1.894  0.1515  2.9050 -0.4130
 3387WAT     H214269   1.700   0.132   1.905  0.8728  0.5852  0.3876
 3387WAT    EPW14270   1.632   0.109   1.937  0.7074  0.4789 -0.0300
 3388WAT      O14271   1.055   5.274   3.425  0.0230  0.2261  0.2022
 3388WAT     H114272   1.024   5.347   3.387  1.5094  0.8861  0.1693
 3388WAT     H214273   1.129   5.301   3.462 -0.1017 -0.9921  1.3845
 3388WAT    EPW14274   1.061   5.289   3.425  0.2241  0.1437  0.3720
 3389WAT      O14275   1.182   6.304   6.614  0.1170  0.2943  0.1174
 3389WAT     H114276   1.158   6.272   6.692  0.6390 -0.4986 -0.0297
 3389WAT     H214277   1.145   6.250   6.557 -0.0503  0.7230 -0.1835
 3389WAT    EPW14278   1.173   6.291   6.617  0.1694  0.2405  0.0512
 3390WAT      O14279   5.881   5.433   5.877  0.2425  0.2354 -0.5989
 3390WAT     H114280   5.799   5.410   5.862  0.3757 -1.8563  1.3491
 3390WAT     H214281   5.876   5.519   5.891 -1.8678 -0.0477  0.8579
 3390WAT    EPW14282   5.868   5.442   5.876 -0.0496 -0.1154 -0.0959
 3391WAT      O14283   0.465   1.155   5.780 -0.4182  0.0719 -0.4110
 3391WAT     H114284   0.501   1.231   5.756  0.3535 -0.3104 -0.4986
 3391WAT     H214285   0.476   1.105   5.709  3.7445 -1.7423  1.1663
 3391WAT    EPW14286   0.472   1.159   5.766  0.3107 -0.2526 -0.1910
 3392WAT      O14287   4.186   1.436   5.221  0.2293 -0.4372 -0.3812
 3392WAT     H114288   4.132   1.391   5.272  0.3715  1.4968  1.6081
 3392WAT     H214289   4.248   1.463   5.275  0.5455  1.4814 -1.6003
 3392WAT    EPW14290   4.187   1.433   5.236  0.2970  0.1319 -0.2674
 3393WAT      O14291   2.388   6.679   0.489 -0.1995 -0.2501  0.1399
 3393WAT     H114292   2.458   6.722   0.517  0.4430 -0.5276 -0.9964
 3393WAT     H214293   2.397   6.599   0.523  1.2808 -1.0016 -1.8267
 3393WAT    EPW14294   2.400   6.673   0.498  0.1141 -0.4021 -0.3185
 3394WAT      O14295   1.745   6.112   3.603  0.5865  0.8666  0.7738
 3394WAT     H114296   1.707   6.158   3.667 -0.5996  3.2997 -1.4436
 3394WAT     H214297   1.830   6.125   3.615  0.4393  0.5035  2.3284
 3394WAT    EPW14298   1.752   6.121   3.614  0.3896  1.1724  0.6759
 3395WAT      O14299   7.227   7.026   2.241  0.0073  0.2295  0.4467
 3395WAT     H114300   7.223   6.954   2.291 -0.4536 -0.5366 -0.6536
 3395WAT     H214301   7.162   7.014   2.184 -2.3558  3.1239  2.2645
 3395WAT    EPW14302   7.217   7.013   2.240 -0.4099  0.5439  0.5527
 3396WAT      O14303   4.535   1.615   3.893 -0.1101 -0.2897  0.6574
 3396WAT     H114304   4.548   1.620   3.979  0.8987  1.1478  0.4654
 3396WAT     H214305   4.475   1.677   3.878  0.4023  0.1157  0.2247
 3396WAT    EPW14306   4.528   1.625   3.903  0.1146 -0.0175  0.5651
 3397WAT      O14307   6.652   4.446   4.868 -0.6805 -0.1511  0.3114
 3397WAT     H114308   6.566   4.451   4.855 -0.7924  0.8379  1.1889
 3397WAT     H214309   6.660   4.385   4.929 -0.8329  0.1747  0.6646
 3397WAT    EPW14310   6.641   4.438   4.875 -0.7196  0.0432  0.4932
 3398WAT      O14311   2.969   3.283   7.004  0.3683 -0.5993 -0.3599
 3398WAT     H114312   2.946   3.273   7.087  1.7370 -2.2179 -0.1323
 3398WAT     H214313   2.948   3.207   6.967  0.9565 -0.3660 -1.1951
 3398WAT    EPW14314   2.963   3.271   7.011  0.6574 -0.8039 -0.4496
 3399WAT      O14315   6.942   6.417   4.993 -0.4411  0.3728  0.1144
 3399WAT     H114316   6.868   6.371   4.991  0.4553 -1.1645  0.5821
 3399WAT     H214317   6.945   6.448   5.075 -1.1982  1.5868 -0.2894
 3399WAT    EPW14318   6.931   6.415   5.005 -0.4205  0.3250  0.1238
 3400WAT      O14319   3.427   6.425   4.350  0.5069  0.4683 -0.3886
 3400WAT     H114320   3.436   6.495   4.299 -0.0257  0.3036 -0.7159
 3400WAT     H214321   3.450   6.359   4.297  2.1609  0.4728  0.2581
 3400WAT    EPW14322   3.432   6.426   4.334  0.6726  0.4447 -0.3414
 3401WAT      O14323   2.548   5.904   3.403 -0.6797 -0.2346 -0.1874
 3401WAT     H114324   2.635   5.904   3.402 -0.6760 -0.4566 -0.0341
 3401WAT     H214325   2.529   5.928   3.485 -0.7564 -0.6150 -0.0912
 3401WAT    EPW14326   2.558   5.907   3.415 -0.6905 -0.3236 -0.1505
 3402WAT      O14327   3.197   3.068   1.451 -0.2417 -0.0798  0.3847
 3402WAT     H114328   3.207   3.147   1.416  1.0800 -0.3663  0.0547
 3402WAT     H214329   3.131   3.034   1.405  0.0594  0.3414 -0.3788
 3402WAT    EPW14330   3.189   3.075   1.439 -0.0019 -0.0599  0.2232
 3403WAT      O14331   1.104   3.461   1.475  0.0891 -0.3293  0.9258
 3403WAT     H114332   1.064   3.427   1.405  1.5582  1.3320 -0.8390
 3403WAT     H214333   1.039   3.474   1.531 -1.1713 -1.6479 -0.1268
 3403WAT    EPW14334   1.088   3.458   1.473  0.1200 -0.2787  0.5096
 3404WAT      O14335   2.966   4.656   2.364  0.0567 -0.2793 -0.2435
 3404WAT     H114336   2.928   4.701   2.300 -0.3367  0.0063  0.1875
 3404WAT     H214337   2.931   4.689   2.436  1.2100  0.0952  0.1776
 3404WAT    EPW14338   2.955   4.668   2.365  0.1689 -0.1818 -0.1176
 3405WAT      O14339   6.584   6.323   1.264  0.1010 -0.9790 -0.3672
 3405WAT     H114340   6.653   6.377   1.260 -0.6995  0.0849 -0.1587
 3405WAT     H214341   6.587   6.281   1.187  0.9126 -0.8679 -0.4051
 3405WAT    EPW14342   6.595   6.324   1.252  0.1027 -0.8055 -0.3420
 3406WAT      O14343   3.078   2.664   1.691 -0.0974  0.2048  0.6757
 3406WAT     H114344   3.095   2.592   1.738 -0.0764 -0.2646 -0.0356
 3406WAT     H214345   2.996   2.653   1.664 -0.1327  0.5028  0.6573
 3406WAT    EPW14346   3.069   2.652   1.694 -0.0995  0.1795  0.5679
 3407WAT      O14347   6.583   1.763   5.581  0.7076 -0.6051 -0.2488
 3407WAT     H114348   6.596   1.750   5.496 -0.8555 -0.2400 -0.5786
 3407WAT     H214349   6.498   1.744   5.593  0.5572  0.5758  0.9489
 3407WAT    EPW14350   6.572   1.758   5.570  0.4545 -0.3768 -0.1206
 3408WAT      O14351   1.807   2.816   4.413  0.5661  0.0003 -0.1108
 3408WAT     H114352   1.769   2.880   4.369 -0.9592  0.0089  1.1443
 3408WAT     H214353   1.786   2.832   4.496  1.4701 -1.2471  0.3985
 3408WAT    EPW14354   1.798   2.828   4.419  0.4743 -0.1827  0.1499
 3409WAT      O14355   4.975   0.183   2.576 -0.1438  0.1307  0.5341
 3409WAT     H114356   4.965   0.103   2.543 -3.8030 -0.5989  2.8519
 3409WAT     H214357   5.037   0.173   2.636 -0.2835 -0.8843  0.5175
 3409WAT    EPW14358   4.983   0.170   2.580 -0.7050 -0.1270  0.8741
 3410WAT      O14359   5.475   3.553   7.060 -0.4899  0.0800  0.2785
 3410WAT     H114360   5.526   3.484   7.078  1.1568  1.1972  0.1463
 3410WAT     H214361   5.527   3.621   7.077 -2.3774  1.3385  1.3645
 3410WAT    EPW14362   5.490   3.553   7.065 -0.5255  0.4309  0.4194
 3411WAT      O14363   5.897   6.389   5.627 -0.3188 -0.4625 -0.0755
 3411WAT     H114364   5.879   6.317   5.581 -2.8675  0.0639 -0.0380
 3411WAT     H214365   5.843   6.384   5.695  0.8491  0.5621  0.9861
 3411WAT    EPW14366   5.886   6.377   5.631 -0.5228 -0.2334  0.0869
 3412WAT      O14367   1.102   1.800   1.753  0.4308  0.0266 -0.3055
 3412WAT     H114368   1.083   1.875   1.712 -1.3156 -0.2065  0.0209
 3412WAT     H214369   1.092   1.740   1.690  0.9091 -0.0402 -0.3247
 3412WAT    EPW14370   1.098   1.802   1.738  0.2435 -0.0177 -0.2601
 3413WAT      O14371   5.196   3.227   4.288 -0.2931  0.1222 -0.1056
 3413WAT     H114372   5.246   3.285   4.329 -0.9719 -0.8203  2.2268
 3413WAT     H214373   5.253   3.183   4.238  0.3214  2.2986 -1.4734
 3413WAT    EPW14374   5.212   3.229   4.286 -0.3026  0.3045  0.0369
 3414WAT      O14375   7.149   3.319   4.666  0.0510  0.1428  0.0820
 3414WAT     H114376   7.168   3.255   4.610 -2.1337 -0.6505  0.1583
 3414WAT     H214377   7.106   3.279   4.730 -1.3834  1.6562  0.1476
 3414WAT    EPW14378   7.145   3.304   4.667 -0.4836  0.2492  0.1030
 3415WAT      O14379   6.581   1.881   4.680 -0.1798 -0.1229  0.2362
 3415WAT     H114380   6.544   1.893   4.758  1.2113  1.0687  0.7514
 3415WAT     H214381   6.537   1.935   4.628 -0.4144 -0.1323  0.4221
 3415WAT    EPW14382   6.569   1.891   4.684 -0.0089  0.0517  0.3398
 3416WAT      O14383   0.311   0.414   0.305 -0.0192  0.0568  1.2649
 3416WAT     H114384   0.395   0.400   0.288 -0.1575  0.5104  0.0974
 3416WAT     H214385   0.282   0.455   0.234 -1.7207 -1.9356  0.6970
 3416WAT    EPW14386   0.319   0.418   0.292 -0.2910 -0.1705  1.0085
 3417WAT      O14387   5.622   3.795   1.946 -0.3190 -0.4841 -0.1645
 3417WAT     H114388   5.625   3.712   1.919 -1.0224 -0.9381  1.0623
 3417WAT     H214389   5.557   3.795   2.004 -0.0459  0.8347  0.1709
 3417WAT    EPW14390   5.613   3.783   1.951 -0.3826 -0.3563  0.0663
 3418WAT      O14391   7.199   4.132   2.177  0.5459  0.2024  0.4985
 3418WAT     H114392   7.208   4.110   2.261 -0.8411 -0.8122  0.4043
 3418WAT     H214393   7.265   4.090   2.137 -0.6513 -1.9670  0.6586
 3418WAT    EPW14394   7.210   4.123   2.183  0.1642 -0.2680  0.5082
 3419WAT      O14395   7.238   1.217   1.643  0.7838 -0.4763 -0.2040
 3419WAT     H114396   7.251   1.140   1.605  0.3340 -0.8276  0.3366
 3419WAT     H214397   7.317   1.254   1.642  0.9160 -0.7629 -0.8384
 3419WAT    EPW14398   7.252   1.211   1.637  0.7369 -0.5705 -0.2179
 3420WAT      O14399   6.242   3.077   1.350  0.6860 -0.6203  0.4217
 3420WAT     H114400   6.247   3.042   1.270 -2.5503  0.4108 -0.3615
 3420WAT     H214401   6.157   3.079   1.367  1.1935  0.0415  3.5904
 3420WAT    EPW14402   6.230   3.072   1.341  0.2829 -0.3702  0.7741
 3421WAT      O14403   5.127   0.247   0.621  0.0423 -0.4688  0.6305
 3421WAT     H114404   5.102   0.165   0.638  0.4096 -0.9793 -1.1118
 3421WAT     H214405   5.052   0.292   0.622 -0.2927 -1.0185  0.5759
 3421WAT    EPW14406   5.112   0.242   0.624  0.0471 -0.6254  0.3651
 3422WAT      O14407   3.869   1.400   6.099  0.0394 -0.2555  0.2804
 3422WAT     H114408   3.861   1.472   6.147  0.3149  1.6982 -2.3789
 3422WAT     H214409   3.789   1.365   6.102 -0.6668  1.2618  0.0934
 3422WAT    EPW14410   3.856   1.406   6.106 -0.0243  0.2572 -0.1400
 3423WAT      O14411   6.460   4.361   2.184  0.3317  0.1552  0.1652
 3423WAT     H114412   6.474   4.279   2.210  0.8449  0.1244 -0.1834
 3423WAT     H214413   6.486   4.409   2.251 -1.1423  0.0141  0.8728
 3423WAT    EPW14414   6.466   4.356   2.198  0.1898  0.1298  0.2182
 3424WAT      O14415   5.569   6.990   6.801  0.1120  0.6067  0.0825
 3424WAT     H114416   5.628   6.968   6.862  0.8464  1.7166 -0.2020
 3424WAT     H214417   5.593   6.943   6.732  0.6442  1.0078 -0.0138
 3424WAT    EPW14418   5.582   6.980   6.800  0.2991  0.8299  0.0263
 3425WAT      O14419   4.471   7.154   3.297 -0.7752  0.4362 -0.3697
 3425WAT     H114420   4.398   7.119   3.265 -0.2962 -0.5699 -0.3989
 3425WAT     H214421   4.470   7.132   3.381  0.5486 -1.5072 -0.8101
 3425WAT    EPW14422   4.460   7.146   3.304 -0.5089  0.0005 -0.4391
 3426WAT      O14423   0.652   5.615   1.636  0.1830  0.2633 -0.1369
 3426WAT     H114424   0.656   5.549   1.693 -0.8913 -0.1038 -0.4500
 3426WAT     H214425   0.667   5.577   1.559 -2.1915 -0.0244 -0.5516
 3426WAT    EPW14426   0.655   5.600   1.633 -0.3265  0.1666 -0.2444
 3427WAT      O14427   5.947   5.090   5.031 -0.4911  0.0124  0.3682
 3427WAT     H114428   5.919   5.138   4.964  0.0297 -0.0128  0.1282
 3427WAT     H214429   5.989   5.025   4.993  2.0509  1.3416  0.7059
 3427WAT    EPW14430   5.949   5.088   5.016 -0.0387  0.2050  0.3826
 3428WAT      O14431   4.705   4.261   3.122 -0.0206 -0.1819  0.0816
 3428WAT     H114432   4.761   4.306   3.073  0.8552 -3.1247 -1.8544
 3428WAT     H214433   4.656   4.219   3.064 -2.0016 -0.3560  1.7734
 3428WAT    EPW14434   4.706   4.261   3.106 -0.1838 -0.6423  0.0456
 3429WAT      O14435   5.217   1.823   1.234  0.2192 -0.3884 -0.2859
 3429WAT     H114436   5.163   1.776   1.185  0.2854  0.1764 -0.9101
 3429WAT     H214437   5.288   1.772   1.241  0.4864 -0.1787 -1.3779
 3429WAT    EPW14438   5.220   1.809   1.228  0.2684 -0.2740 -0.5394
 3430WAT      O14439   4.704   1.038   3.698 -0.5261  0.0711  0.5305
 3430WAT     H114440   4.750   1.057   3.769  0.5492  1.9565 -0.5586
 3430WAT     H214441   4.750   0.975   3.659 -0.9561 -0.7469  1.3278
 3430WAT    EPW14442   4.718   1.032   3.702 -0.4308  0.2288  0.4874
 3431WAT      O14443   1.296   4.896   2.309 -0.3455 -0.0803 -0.4621
 3431WAT     H114444   1.301   4.930   2.229  1.5126 -0.9436 -0.7559
 3431WAT     H214445   1.344   4.951   2.357  2.3137 -1.8743 -0.8586
 3431WAT    EPW14446   1.304   4.909   2.304  0.3218 -0.4728 -0.5640
 3432WAT      O14447   3.643   2.559   6.271  0.3543  0.5073 -0.5023
 3432WAT     H114448   3.574   2.528   6.228 -1.0841  2.8253 -0.0806
 3432WAT     H214449   3.697   2.584   6.207 -0.6545  1.6163 -0.9624
 3432WAT    EPW14450   3.641   2.558   6.255 -0.0072  1.0135 -0.5080
 3433WAT      O14451   2.219   1.361   3.873 -0.0487 -0.3214  0.4716
 3433WAT     H114452   2.297   1.331   3.848 -0.1155 -0.0399 -0.0908
 3433WAT     H214453   2.237   1.440   3.905 -0.1800  0.0208 -0.2741
 3433WAT    EPW14454   2.233   1.368   3.874 -0.0779 -0.2293  0.2784
 3434WAT      O14455   5.191   5.322   2.885  0.2801 -0.1643 -0.0303
 3434WAT     H114456   5.128   5.292   2.937 -0.4528  0.5092 -0.5115
 3434WAT     H214457   5.236   5.376   2.937 -0.5996  0.7034 -0.1435
 3434WAT    EPW14458   5.189   5.325   2.901  0.0419  0.0634 -0.1181
 3435WAT      O14459   6.430   1.271   0.729 -0.3496 -0.0068  0.0167
 3435WAT     H114460   6.444   1.223   0.658  1.2366  0.3203  0.0869
 3435WAT     H214461   6.461   1.350   0.708 -0.6624  0.3361  0.7680
 3435WAT    EPW14462   6.436   1.275   0.716 -0.1615  0.0922  0.1380
 3436WAT      O14463   4.333   2.314   3.040 -0.3622 -0.1883 -0.3481
 3436WAT     H114464   4.282   2.372   3.079  0.2697  0.8933 -1.0871
 3436WAT     H214465   4.328   2.334   2.955  0.4303 -0.7312 -0.5422
 3436WAT    EPW14466   4.325   2.325   3.033 -0.1517 -0.1087 -0.4860
 3437WAT      O14467   2.843   2.438   4.922  0.0079 -0.5909  0.1887
 3437WAT     H114468   2.862   2.480   4.996 -0.3793 -0.5914  0.2930
 3437WAT     H214469   2.778   2.385   4.946  1.8193 -2.7941  0.5726
 3437WAT    EPW14470   2.836   2.437   4.937  0.2183 -0.9165  0.2608
 3438WAT      O14471   1.962   4.142   4.373 -0.0959 -0.6968  0.6039
 3438WAT     H114472   1.888   4.102   4.399 -0.5656 -0.1190  0.1936
 3438WAT     H214473   2.020   4.120   4.434 -0.8306 -0.4891  1.4051
 3438WAT    EPW14474   1.959   4.133   4.386 -0.2738 -0.5808  0.6617
 3439WAT      O14475   6.404   1.150   1.328 -0.1294 -0.4158  0.1455
 3439WAT     H114476   6.327   1.142   1.288  0.0681 -0.8483 -0.1631
 3439WAT     H214477   6.450   1.081   1.298 -0.0833 -0.9392  1.3600
 3439WAT    EPW14478   6.400   1.138   1.317 -0.0934 -0.5570  0.2793
 3440WAT      O14479   1.466   5.069   4.346  0.1014 -0.4878 -0.2960
 3440WAT     H114480   1.431   5.002   4.302 -1.2446  0.7493 -1.2123
 3440WAT     H214481   1.404   5.131   4.342  1.9667  1.4578 -1.0387
 3440WAT    EPW14482   1.452   5.069   4.339  0.1781 -0.0176 -0.5410
 3441WAT      O14483   4.707   4.466   3.733  0.3671 -1.0182 -0.4502
 3441WAT     H114484   4.654   4.415   3.780 -2.4050  2.3501  0.4692
 3441WAT     H214485   4.768   4.491   3.790 -0.2473 -0.6645  0.0627
 3441WAT    EPW14486   4.708   4.462   3.748 -0.1332 -0.4684 -0.2386
 3442WAT      O14487   0.877   5.536   3.721  0.1130  0.5337  0.6572
 3442WAT     H114488   0.826   5.482   3.676  0.7458 -0.4248  1.0654
 3442WAT     H214489   0.908   5.590   3.661 -0.3574  0.3187  0.2124
 3442WAT    EPW14490   0.874   5.536   3.706  0.1370  0.3603  0.6518
 3443WAT      O14491   1.859   1.975   3.661 -0.2293 -0.3821 -0.0200
 3443WAT     H114492   1.945   1.963   3.662 -0.2885 -1.2929 -1.7410
 3443WAT     H214493   1.850   2.056   3.629 -0.0054 -0.0284  0.8076
 3443WAT    EPW14494   1.870   1.985   3.656 -0.2050 -0.4644 -0.1520
 3444WAT      O14495   3.080   3.808   1.615  0.7247  0.0209  0.0163
 3444WAT     H114496   3.010   3.853   1.642 -0.1023 -0.5584 -1.0818
 3444WAT     H214497   3.063   3.726   1.639  1.0869 -0.1014 -0.1378
 3444WAT    EPW14498   3.067   3.803   1.622  0.6560 -0.0827 -0.1687
 3445WAT      O14499   6.349   4.978   3.439  0.3753  0.1231 -0.0194
 3445WAT     H114500   6.426   4.938   3.447 -0.0665 -0.4574  2.0784
 3445WAT     H214501   6.350   5.010   3.358  3.3505  1.2092  0.3123
 3445WAT    EPW14502   6.360   4.977   3.428  0.7495  0.1978  0.3395
 3446WAT      O14503   5.717   5.579   6.176 -0.1394  0.2254 -0.6383
 3446WAT     H114504   5.731   5.625   6.103  1.1465 -0.0055 -0.5461
 3446WAT     H214505   5.640   5.540   6.160  0.7612 -0.9437 -2.4667
 3446WAT    EPW14506   5.708   5.580   6.163  0.1836  0.0186 -0.8948
 3447WAT      O14507   4.345   6.669   1.683 -0.5069  0.3342  0.1147
 3447WAT     H114508   4.268   6.628   1.679  0.5179 -1.6723 -0.5717
 3447WAT     H214509   4.401   6.605   1.703  1.1492  1.5015 -0.5512
 3447WAT    EPW14510   4.342   6.654   1.685 -0.1109  0.2102 -0.0851
 3448WAT      O14511   2.468   1.115   0.131 -1.0822  0.4216  0.0164
 3448WAT     H114512   2.392   1.078   0.109 -1.2139  0.4699  0.3736
 3448WAT     H214513   2.457   1.135   0.215 -0.3024 -0.4922  0.3487
 3448WAT    EPW14514   2.455   1.113   0.140 -0.9865  0.2938  0.1182
 3449WAT      O14515   4.743   1.550   2.987 -0.0675  0.0655 -0.2326
 3449WAT     H114516   4.795   1.602   3.033 -3.1224  1.6573  1.7250
 3449WAT     H214517   4.728   1.596   2.914  0.4193  0.0598 -0.3405
 3449WAT    EPW14518   4.748   1.564   2.983 -0.4469  0.2998  0.0406
 3450WAT      O14519   1.283   5.180   5.442  0.1876  0.1343 -0.1767
 3450WAT     H114520   1.309   5.257   5.411 -1.1171  0.5204 -0.3746
 3450WAT     H214521   1.205   5.197   5.477  0.9081 -0.6182  1.9358
 3450WAT    EPW14522   1.275   5.194   5.443  0.1013  0.0802  0.1061
 3451WAT      O14523   4.415   1.053   7.135  0.0035 -0.4212  0.3292
 3451WAT     H114524   4.345   1.085   7.094  1.1129  0.9839 -0.5498
 3451WAT     H214525   4.442   1.119   7.185  2.0678 -0.0280 -1.1643
 3451WAT    EPW14526   4.409   1.067   7.136  0.4724 -0.1555 -0.0212
 3452WAT      O14527   3.768   2.733   4.690  0.3046 -0.6773 -0.2827
 3452WAT     H114528   3.819   2.766   4.627  0.7534 -0.8360 -0.0141
 3452WAT     H214529   3.718   2.675   4.648  0.9859 -1.1889 -0.4106
 3452WAT    EPW14530   3.768   2.729   4.675  0.4716 -0.7763 -0.2619
 3453WAT      O14531   7.104   0.154   0.406 -0.4608 -0.5288 -0.2301
 3453WAT     H114532   7.019   0.169   0.391 -0.8720 -0.6572  1.6662
 3453WAT     H214533   7.109   0.067   0.405 -0.3426 -0.5202 -0.3794
 3453WAT    EPW14534   7.092   0.143   0.404 -0.5041 -0.5465  0.0279
 3454WAT      O14535   4.196   6.007   0.877 -0.0975 -0.1362  0.4578
 3454WAT     H114536   4.267   5.960   0.860 -0.2008 -0.4207  0.8021
 3454WAT     H214537   4.213   6.046   0.953 -0.6171 -0.8438  0.9554
 3454WAT    EPW14538   4.209   6.006   0.885 -0.1895 -0.2827  0.5822
 3455WAT      O14539   7.248   5.098   1.147  0.1914 -0.2128 -0.0956
 3455WAT     H114540   7.237   5.162   1.206  1.6995  0.9906 -1.0246
 3455WAT     H214541   7.226   5.026   1.190  1.9728  0.5165  2.1963
 3455WAT    EPW14542   7.243   5.097   1.162  0.6773  0.0727  0.1057
 3456WAT      O14543   2.398   0.751   5.484 -0.1276  0.2220  0.6495
 3456WAT     H114544   2.385   0.822   5.534 -2.3493 -0.2873  0.8906
 3456WAT     H214545   2.334   0.756   5.425  0.4622 -0.9299 -0.1263
 3456WAT    EPW14546   2.386   0.763   5.483 -0.3686 -0.0234  0.5705
 3457WAT      O14547   4.562   2.373   3.458 -0.3155  0.7790 -0.3494
 3457WAT     H114548   4.638   2.406   3.430 -0.3677  1.5867  0.4137
 3457WAT     H214549   4.503   2.425   3.421 -0.4040  1.5238  0.7922
 3457WAT    EPW14550   4.564   2.385   3.448 -0.3363  1.0083 -0.0681
 3458WAT      O14551   1.925   2.106   5.197  0.4147  0.4952 -0.0370
 3458WAT     H114552   1.967   2.156   5.254  1.2980  1.3425 -1.3931
 3458WAT     H214553   1.841   2.116   5.219  0.6322  2.0324  0.1408
 3458WAT    EPW14554   1.918   2.115   5.209  0.5773  0.8474 -0.2111
 3459WAT      O14555   6.859   1.396   1.556  0.6029 -0.3992 -0.6702
 3459WAT     H114556   6.915   1.338   1.521  1.1176  0.1604 -0.8012
 3459WAT     H214557   6.901   1.472   1.547 -0.2939  0.0699 -0.9909
 3459WAT    EPW14558   6.874   1.399   1.550  0.5465 -0.2473 -0.7369
 3460WAT      O14559   2.937   3.987   2.826  0.6770 -0.2022  0.1680
 3460WAT     H114560   2.883   4.056   2.823 -1.6432 -1.5613  3.5424
 3460WAT     H214561   2.893   3.925   2.784  1.5293 -0.3473 -0.5325
 3460WAT    EPW14562   2.923   3.988   2.820  0.4602 -0.4244  0.5630
 3461WAT      O14563   1.043   6.963   4.510  0.2328  0.3115  0.2379
 3461WAT     H114564   0.962   6.961   4.541 -0.3611 -0.3214 -1.2209
 3461WAT     H214565   1.066   7.046   4.517  0.0054  0.2693  1.9333
 3461WAT    EPW14566   1.034   6.975   4.515  0.1114  0.2118  0.2729
 3462WAT      O14567   2.521   5.712   4.499 -0.5532 -0.4172 -0.1762
 3462WAT     H114568   2.563   5.726   4.424 -0.1847 -1.2783 -0.1372
 3462WAT     H214569   2.440   5.740   4.483 -0.5339 -0.7938 -0.9591
 3462WAT    EPW14570   2.515   5.718   4.486 -0.4959 -0.6000 -0.2861
 3463WAT      O14571   6.305   4.014   4.544 -0.2855 -0.3385  0.1606
 3463WAT     H114572   6.351   3.971   4.483  1.5154  1.3134  0.2503
 3463WAT     H214573   6.266   4.077   4.498 -0.8067 -0.4830  0.4011
 3463WAT    EPW14574   6.306   4.017   4.528 -0.0965 -0.1158  0.2093
 3464WAT      O14575   5.467   5.605   1.429 -0.6578 -0.5244 -0.1137
 3464WAT     H114576   5.451   5.537   1.481 -2.2827 -0.5180 -0.5570
 3464WAT     H214577   5.528   5.575   1.374  0.5094 -0.7794  1.2402
 3464WAT    EPW14578   5.474   5.590   1.429 -0.7254 -0.5612  0.0208
 3465WAT      O14579   5.085   2.556   5.050 -0.0181  0.2429 -0.0742
 3465WAT     H114580   5.109   2.620   5.103 -0.1467 -0.0618  0.3575
 3465WAT     H214581   5.030   2.508   5.098 -0.7021  0.3621 -0.7160
 3465WAT    EPW14582   5.081   2.558   5.065 -0.1382  0.2155 -0.1052
 3466WAT      O14583   6.620   7.217   4.394  0.1916  0.1839 -0.1474
 3466WAT     H114584   6.549   7.166   4.388 -0.0365  0.6549 -2.7076
 3466WAT     H214585   6.588   7.297   4.380  1.2555  0.3269 -2.0857
 3466WAT    EPW14586   6.605   7.221   4.391  0.3151  0.2746 -0.8119
 3467WAT      O14587   6.898   3.064   6.785  0.0733 -0.6282 -0.1147
 3467WAT     H114588   6.821   3.023   6.787  0.6354 -1.6801  1.0761
 3467WAT     H214589   6.884   3.132   6.732 -1.5655 -0.9982 -0.1913
 3467WAT    EPW14590   6.885   3.068   6.777 -0.0857 -0.8382  0.0499
 3468WAT      O14591   3.848   7.080   7.393 -0.0603 -0.1144  0.1645
 3468WAT     H114592   3.902   7.032   7.343 -0.1624  1.0294 -1.1177
 3468WAT     H214593   3.789   7.110   7.336 -0.3282  1.0545  1.0202
 3468WAT    EPW14594   3.847   7.077   7.377 -0.1150  0.2272  0.1015
 3469WAT      O14595   7.183   6.637   3.033 -0.1313  0.4292  0.1553
 3469WAT     H114596   7.112   6.604   2.995 -0.7112  1.6552  0.1187
 3469WAT     H214597   7.181   6.721   3.010  1.5589  0.4109 -0.1717
 3469WAT    EPW14598   7.172   6.644   3.024  0.0327  0.6076  0.1016
 3470WAT      O14599   1.589   2.291   5.983  0.5603  0.2355 -0.1262
 3470WAT     H114600   1.653   2.294   6.042  0.8966  1.8909 -0.5189
 3470WAT     H214601   1.522   2.256   6.027  0.7824  1.4650  1.3033
 3470WAT    EPW14602   1.589   2.287   5.998  0.6428  0.6617  0.0269
 3471WAT      O14603   1.535   5.859   6.897 -0.3082  0.2339  0.3244
 3471WAT     H114604   1.507   5.857   6.980 -2.1942 -0.4744 -0.2814
 3471WAT     H214605   1.494   5.928   6.863  0.2492  0.3668 -0.0886
 3471WAT    EPW14606   1.525   5.869   6.904 -0.5045  0.1489  0.1739
 3472WAT      O14607   1.531   5.734   6.061 -0.5408 -0.1351 -0.0596
 3472WAT     H114608   1.592   5.683   6.097 -0.8246 -0.2084  0.3246
 3472WAT     H214609   1.573   5.809   6.046 -0.6237  0.1912  1.2113
 3472WAT    EPW14610   1.546   5.738   6.064 -0.5950 -0.0977  0.1849
 3473WAT      O14611   0.761   3.738   6.242  0.2358  0.4522  0.1152
 3473WAT     H114612   0.693   3.758   6.292  1.2788 -1.5626  2.5506
 3473WAT     H214613   0.824   3.792   6.270  0.1711  0.9885 -0.7608
 3473WAT    EPW14614   0.761   3.749   6.254  0.3803  0.2338  0.3455
 3474WAT      O14615   2.007   3.365   6.405  0.0452  0.1448  0.0665
 3474WAT     H114616   1.995   3.450   6.423 -2.6387 -0.0861 -0.2171
 3474WAT     H214617   1.937   3.327   6.440 -0.4672 -1.5181 -2.5161
 3474WAT    EPW14618   1.994   3.372   6.413 -0.4269 -0.1350 -0.3569
 3475WAT      O14619   6.339   0.653   6.434  0.2753 -0.2627  0.4236
 3475WAT     H114620   6.259   0.653   6.398  0.9740  0.7965 -1.2651
 3475WAT     H214621   6.376   0.581   6.401  1.5273  1.5916 -2.7003
 3475WAT    EPW14622   6.332   0.643   6.424  0.5635  0.1677 -0.2873
 3476WAT      O14623   0.707   6.188   0.134 -0.5049 -0.0404 -0.1195
 3476WAT     H114624   0.653   6.243   0.175 -0.2362 -0.2855  0.5810
 3476WAT     H214625   0.663   6.112   0.137 -0.8493  0.1134 -1.0291
 3476WAT    EPW14626   0.692   6.185   0.141 -0.5160 -0.0539 -0.1504
 3477WAT      O14627   5.286   4.828   0.120 -0.0320  0.5838 -0.1542
 3477WAT     H114628   5.305   4.869   0.194  1.1139  0.1333 -0.1885
 3477WAT     H214629   5.215   4.870   0.091  0.2289  1.5510  0.5730
 3477WAT    EPW14630   5.278   4.841   0.127  0.1758  0.6601 -0.0518
 3478WAT      O14631   3.290   3.723   4.081  0.0449 -0.0145 -0.1367
 3478WAT     H114632   3.255   3.657   4.035 -0.6359  0.7755 -0.8047
 3478WAT     H214633   3.230   3.786   4.073  1.5171  1.3455 -1.1735
 3478WAT    EPW14634   3.276   3.723   4.073  0.1618  0.3031 -0.3886
 3479WAT      O14635   6.187   1.749   7.133  0.0510  0.6311  0.6022
 3479WAT     H114636   6.179   1.663   7.121  2.0572  0.5259 -0.3455
 3479WAT     H214637   6.245   1.756   7.198  0.2755  1.2690  0.3436
 3479WAT    EPW14638   6.194   1.737   7.141  0.3805  0.7098  0.4240
 3480WAT      O14639   5.558   1.642   0.898 -0.3063 -0.0568  0.2055
 3480WAT     H114640   5.523   1.598   0.831  1.6693 -1.9704  0.2954
 3480WAT     H214641   5.639   1.661   0.869  0.0964  0.3303  1.5361
 3480WAT    EPW14642   5.565   1.638   0.883  0.0450 -0.2823  0.4153
 3481WAT      O14643   1.083   1.260   6.279  0.0146 -0.2684 -0.4641
 3481WAT     H114644   1.002   1.260   6.245 -0.0826  1.4769 -0.3223
 3481WAT     H214645   1.097   1.344   6.299  2.3696 -0.2895 -1.6810
 3481WAT    EPW14646   1.073   1.272   6.277  0.3481 -0.0137 -0.6229
 3482WAT      O14647   0.267   0.776   3.967  0.1882  0.4743 -0.0682
 3482WAT     H114648   0.197   0.747   3.924 -0.7133  1.6091  0.5692
 3482WAT     H214649   0.286   0.851   3.927  1.4646 -0.1227 -0.6405
 3482WAT    EPW14650   0.259   0.782   3.955  0.2436  0.5537 -0.0586
 3483WAT      O14651   6.849   2.755   1.409 -0.3330 -0.1024 -0.0523
 3483WAT     H114652   6.921   2.750   1.360 -1.3598  0.8961 -1.7677
 3483WAT     H214653   6.851   2.836   1.441 -1.0252  0.1979 -0.7225
 3483WAT    EPW14654   6.860   2.766   1.406 -0.5869  0.0894 -0.4047
 3484WAT      O14655   0.221   0.427   3.696 -0.3974  0.0827  0.0616
 3484WAT     H114656   0.218   0.347   3.729 -2.0750  0.2311  0.3269
 3484WAT     H214657   0.168   0.424   3.626  2.1356  0.0961 -2.0309
 3484WAT    EPW14658   0.213   0.415   3.690 -0.2711  0.1066 -0.2083
 3485WAT      O14659   4.083   4.238   2.914 -0.2378  0.1910  0.6769
 3485WAT     H114660   4.040   4.312   2.901  0.4057  0.3684 -0.6372
 3485WAT     H214661   4.056   4.186   2.850  1.1655  0.1762  0.0540
 3485WAT    EPW14662   4.073   4.241   2.903  0.0645  0.2150  0.3908
 3486WAT      O14663   2.225   1.228   1.412 -0.4046 -0.2084  0.4444
 3486WAT     H114664   2.201   1.252   1.492  0.8677 -2.0561  1.4494
 3486WAT     H214665   2.300   1.272   1.399  0.5569 -1.5637  1.2184
 3486WAT    EPW14666   2.233   1.238   1.422 -0.0747 -0.6816  0.7072
 3487WAT      O14667   5.164   3.450   4.069 -0.2272  0.4769 -0.4847
 3487WAT     H114668   5.225   3.400   4.107  0.5465  2.1109  0.5080
 3487WAT     H214669   5.168   3.427   3.985 -0.5681 -1.7766  0.0461
 3487WAT    EPW14670   5.173   3.439   4.063 -0.1633  0.3854 -0.2597
 3488WAT      O14671   2.528   4.809   2.109  0.0641  0.5162 -0.2657
 3488WAT     H114672   2.579   4.830   2.042  0.1614  2.9684  0.4712
 3488WAT     H214673   2.450   4.794   2.071 -0.0606  2.5536 -0.9484
 3488WAT    EPW14674   2.524   4.810   2.094  0.0601  1.1794 -0.2577
 3489WAT      O14675   1.980   6.875   6.595  0.0785  0.0065 -0.1526
 3489WAT     H114676   1.893   6.863   6.601 -0.2015  1.2152 -1.4064
 3489WAT     H214677   2.003   6.898   6.676 -0.7343 -0.4711  0.2302
 3489WAT    EPW14678   1.970   6.877   6.608 -0.0829  0.1145 -0.2813
 3490WAT      O14679   1.422   1.986   4.885  0.1820 -0.8636  0.3959
 3490WAT     H114680   1.467   2.033   4.827  1.0943 -2.5156 -0.3076
 3490WAT     H214681   1.385   1.924   4.836  0.9305 -2.2668  1.5491
 3490WAT    EPW14682   1.423   1.984   4.869  0.4273 -1.3149  0.4623
 3491WAT      O14683   4.434   0.025   0.349  0.6718  0.4313 -0.3706
 3491WAT     H114684   4.488   0.036   0.281  1.6803 -1.7320 -0.0309
 3491WAT     H214685   4.363  -0.011   0.314  0.8852  0.0274 -0.3995
 3491WAT    EPW14686   4.432   0.022   0.334  0.8523  0.0521 -0.3247
 3492WAT      O14687   6.752   6.682   2.608 -0.2762  0.2057  0.2052
 3492WAT     H114688   6.717   6.602   2.608  1.3495 -0.5376 -0.0242
 3492WAT     H214689   6.770   6.696   2.523 -0.2977  0.7074  0.2828
 3492WAT    EPW14690   6.749   6.672   2.595 -0.0392  0.1700  0.1828
 3493WAT      O14691   6.748   5.612   2.398 -0.3884 -0.5644 -0.4020
 3493WAT     H114692   6.785   5.624   2.320 -0.7697 -0.2668 -0.5377
 3493WAT     H214693   6.663   5.616   2.381 -0.6060 -3.3523 -0.4698
 3493WAT    EPW14694   6.741   5.614   2.384 -0.4769 -0.9322 -0.4321
 3494WAT      O14695   3.259   1.765   1.566 -0.4550 -0.4610  0.3641
 3494WAT     H114696   3.180   1.803   1.561  0.9402  2.5202 -2.4601
 3494WAT     H214697   3.300   1.812   1.627 -0.3023 -0.9195  0.6214
 3494WAT    EPW14698   3.253   1.777   1.575 -0.2263 -0.0883 -0.0151
 3495WAT      O14699   7.195   2.847   2.590  0.1910  0.2453  0.0590
 3495WAT     H114700   7.274   2.880   2.608  0.4757 -1.0826  1.4063
 3495WAT     H214701   7.213   2.779   2.537 -0.0355 -0.1015  0.4229
 3495WAT    EPW14702   7.210   2.842   2.585  0.1996 -0.0021  0.3118
 3496WAT      O14703   3.056   6.444   1.825 -0.3483 -0.3229  0.1396
 3496WAT     H114704   3.030   6.377   1.775  0.0953 -0.7872  0.5212
 3496WAT     H214705   3.136   6.463   1.795 -0.3837 -0.1068  0.1783
 3496WAT    EPW14706   3.064   6.437   1.814 -0.2880 -0.3596  0.2017
 3497WAT      O14707   0.666   2.650   0.806 -0.2542  0.1322 -0.4488
 3497WAT     H114708   0.715   2.579   0.820  1.0660  1.0377 -0.2491
 3497WAT     H214709   0.633   2.637   0.726  0.4809 -0.4258 -0.6754
 3497WAT    EPW14710   0.669   2.638   0.796  0.0494  0.1835 -0.4528
 3498WAT      O14711   5.089   6.511   0.402  0.4120  0.2096 -0.4431
 3498WAT     H114712   5.125   6.527   0.480 -1.0542 -0.0046  0.3097
 3498WAT     H214713   5.006   6.537   0.412 -0.8076 -3.1113 -0.7419
 3498WAT    EPW14714   5.082   6.518   0.415  0.0152 -0.3127 -0.3760
 3499WAT      O14715   3.711   0.752   1.870 -0.4265  0.1020 -0.2128
 3499WAT     H114716   3.701   0.724   1.788  1.7158 -1.5770 -0.0020
 3499WAT     H214717   3.786   0.797   1.867 -0.1546 -0.2545  0.8899
 3499WAT    EPW14718   3.721   0.755   1.857 -0.0699 -0.1987 -0.0187
 3500WAT      O14719   6.914   3.617   3.848 -0.5592 -0.1782  0.6990
 3500WAT     H114720   6.970   3.683   3.847 -0.2790 -0.4139  0.3553
 3500WAT     H214721   6.885   3.613   3.765  0.7992 -1.6137  0.2263
 3500WAT    EPW14722   6.918   3.626   3.835 -0.3171 -0.4251  0.5784
 3501WAT      O14723   3.742   1.186   5.588  0.6973  0.4151 -0.8491
 3501WAT     H114724   3.752   1.214   5.507 -0.7791 -2.3065 -2.1016
 3501WAT     H214725   3.820   1.202   5.625  1.9764  0.2408 -3.2579
 3501WAT    EPW14726   3.755   1.193   5.582  0.6681 -0.0127 -1.3900
 3502WAT      O14727   2.094   1.569   2.311 -0.3809 -0.2628  0.0957
 3502WAT     H114728   2.103   1.499   2.362 -1.1141  1.2656  2.4894
 3502WAT     H214729   2.024   1.550   2.263  0.8648 -2.1293 -1.1013
 3502WAT    EPW14730   2.085   1.556   2.312 -0.3052 -0.3127  0.2725
 3503WAT      O14731   3.546   0.275   3.434  0.2895 -0.0033 -0.0564
 3503WAT     H114732   3.499   0.213   3.473 -0.8378  1.5121  1.1505
 3503WAT     H214733   3.504   0.287   3.358 -0.5023  0.4062  0.4307
 3503WAT    EPW14734   3.533   0.268   3.428  0.0060  0.2810  0.1938
 3504WAT      O14735   0.317   4.744   2.737  0.1720  0.0361 -0.2793
 3504WAT     H114736   0.371   4.678   2.717 -1.0466 -0.8878 -0.6748
 3504WAT     H214737   0.327   4.800   2.670  2.3436  1.0444  0.8023
 3504WAT    EPW14738   0.327   4.742   2.724  0.3128  0.0486 -0.1780
 3505WAT      O14739   4.344   2.580   4.696 -0.2077 -0.1109 -0.7638
 3505WAT     H114740   4.382   2.528   4.755 -0.3003 -1.0838 -1.5471
 3505WAT     H214741   4.379   2.658   4.713  0.5483 -0.5707 -0.1009
 3505WAT    EPW14742   4.355   2.584   4.708 -0.1097 -0.3225 -0.7816
 3506WAT      O14743   6.994   3.569   2.238  0.0574  0.1684  0.4386
 3506WAT     H114744   7.033   3.559   2.161  1.0094  0.9640  0.7916
 3506WAT     H214745   6.909   3.566   2.219  0.2221  2.2438 -0.9580
 3506WAT    EPW14746   6.988   3.567   2.224  0.2224  0.5925  0.2844
 3507WAT      O14747   0.759   5.682   1.111 -0.0099  0.0788 -0.1163
 3507WAT     H114748   0.728   5.708   1.188  2.4360  1.2743  0.5873
 3507WAT     H214749   0.782   5.599   1.125  0.3122  0.2532  0.4576
 3507WAT    EPW14750   0.758   5.674   1.124  0.3990  0.2812  0.0724
 3508WAT      O14751   6.791   5.554   3.963  0.3047 -0.2033 -0.0257
 3508WAT     H114752   6.736   5.592   3.906  0.8908 -1.7209 -1.6936
 3508WAT     H214753   6.742   5.496   4.004  0.7947 -2.5696 -2.5050
 3508WAT    EPW14754   6.776   5.551   3.961  0.4637 -0.7770 -0.6383
 3509WAT      O14755   3.345   6.883   1.313 -0.4451  0.5973  0.3530
 3509WAT     H114756   3.331   6.923   1.237 -0.7300  1.7961  0.9970
 3509WAT     H214757   3.391   6.813   1.292 -1.2736  0.4337 -1.0203
 3509WAT    EPW14758   3.349   6.879   1.299 -0.6095  0.7502  0.2452
 3510WAT      O14759   6.111   2.314   4.227 -0.3252 -0.1571  0.5130
 3510WAT     H114760   6.185   2.322   4.272  0.5000 -0.7914 -0.6511
 3510WAT     H214761   6.137   2.325   4.144 -1.3667 -1.2979 -0.0008
 3510WAT    EPW14762   6.126   2.317   4.221 -0.3572 -0.4193  0.2652
 3511WAT      O14763   3.122   3.221   2.353 -1.0028 -0.0296  0.0019
 3511WAT     H114764   3.076   3.260   2.416 -0.9107  0.8227 -0.4450
 3511WAT     H214765   3.155   3.287   2.307 -1.2286 -0.6340 -1.0638
 3511WAT    EPW14766   3.120   3.236   2.356 -1.0225  0.0070 -0.2216
 3512WAT      O14767   3.606   0.932   2.856 -0.0588 -0.1814 -0.3274
 3512WAT     H114768   3.692   0.934   2.842  0.1998 -1.8490  0.7163
 3512WAT     H214769   3.572   0.960   2.781  1.3961  1.2868 -0.4755
 3512WAT    EPW14770   3.614   0.936   2.843  0.1943 -0.2109 -0.1951
 3513WAT      O14771   4.797   6.689   1.296 -0.4423  0.1562 -0.0498
 3513WAT     H114772   4.725   6.692   1.346 -0.7614  0.6928 -0.5228
 3513WAT     H214773   4.847   6.754   1.327 -0.7069  0.5897 -0.5099
 3513WAT    EPW14774   4.794   6.699   1.308 -0.5285  0.2995 -0.1876
 3514WAT      O14775   5.284   0.731   6.766 -0.2953 -0.0977  0.2594
 3514WAT     H114776   5.349   0.787   6.782 -0.4413 -0.0551  0.7186
 3514WAT     H214777   5.322   0.653   6.776  0.1424 -0.1144 -1.2885
 3514WAT    EPW14778   5.299   0.728   6.770 -0.2522 -0.0939  0.0986
 3515WAT      O14779   1.464   2.941   6.846  0.0651 -0.3288  0.0447
 3515WAT     H114780   1.499   3.021   6.847 -1.2201  0.3081 -1.1098
 3515WAT     H214781   1.526   2.892   6.810  1.1302 -0.0172  1.3841
 3515WAT    EPW14782   1.478   2.946   6.841  0.0326 -0.1887  0.0720
 3516WAT      O14783   6.601   0.428   4.650 -0.1299  0.0170  0.5364
 3516WAT     H114784   6.592   0.392   4.571 -2.3845 -1.3321  1.2950
 3516WAT     H214785   6.647   0.370   4.695  0.6861  0.5329  0.3845
 3516WAT    EPW14786   6.606   0.414   4.645 -0.3424 -0.1061  0.6260
 3517WAT      O14787   2.399   5.858   1.470 -0.0494  0.7175 -0.7774
 3517WAT     H114788   2.404   5.945   1.466  0.2454  0.7068 -0.6554
 3517WAT     H214789   2.321   5.841   1.435 -0.6632  1.1185  0.3491
 3517WAT    EPW14790   2.388   5.868   1.464 -0.0965  0.7751 -0.5930
 3518WAT      O14791   1.860   5.652   5.861 -0.1439 -0.3158 -0.0063
 3518WAT     H114792   1.887   5.731   5.884 -0.0648 -0.2461 -0.3314
 3518WAT     H214793   1.934   5.608   5.846 -0.1977 -0.2652 -0.4305
 3518WAT    EPW14794   1.875   5.657   5.862 -0.1402 -0.2980 -0.1170
 3519WAT      O14795   4.211   1.611   4.766 -0.5022 -0.1924  0.2969
 3519WAT     H114796   4.165   1.668   4.719  0.0375 -1.0698 -1.3673
 3519WAT     H214797   4.150   1.564   4.806 -0.9964  0.1071 -0.0943
 3519WAT    EPW14798   4.195   1.612   4.765 -0.4955 -0.2778 -0.0067
 3520WAT      O14799   1.334   2.028   5.898 -0.0924  0.4116  0.0708
 3520WAT     H114800   1.270   1.968   5.899  0.0001  0.2910 -0.6388
 3520WAT     H214801   1.406   1.980   5.888 -0.1655  0.7114 -2.5163
 3520WAT    EPW14802   1.335   2.012   5.896 -0.0895  0.4380 -0.4162
 3521WAT      O14803   4.847   1.298   3.113  0.4844 -0.0799 -0.0067
 3521WAT     H114804   4.813   1.329   3.187  0.9660  0.5904 -0.0552
 3521WAT     H214805   4.896   1.364   3.084 -0.9817  0.3047 -1.7979
 3521WAT    EPW14806   4.850   1.312   3.119  0.3390  0.0760 -0.2785
 3522WAT      O14807   6.106   4.971   1.845 -0.1491  0.2834  0.5866
 3522WAT     H114808   6.123   5.056   1.842  0.1405  0.2455  0.9523
 3522WAT     H214809   6.022   4.965   1.821  0.1881  0.5366 -0.7474
 3522WAT    EPW14810   6.096   4.983   1.841 -0.0565  0.3152  0.4435
 3523WAT      O14811   5.313   4.221   4.814 -0.1774  0.5114 -0.1954
 3523WAT     H114812   5.349   4.213   4.893 -1.5624  3.2943  0.8213
 3523WAT     H214813   5.380   4.247   4.764  0.2037  1.1867  0.6376
 3523WAT    EPW14814   5.328   4.224   4.818 -0.3257  1.0223  0.0779
 3524WAT      O14815   1.614   3.994   0.972 -0.3372 -0.7434 -0.6020
 3524WAT     H114816   1.695   3.994   0.940  0.2947  1.1542  0.8366
 3524WAT     H214817   1.576   4.060   0.931 -1.8030 -2.6179 -2.5285
 3524WAT    EPW14818   1.620   4.003   0.961 -0.4604 -0.7399 -0.6741
 3525WAT      O14819   6.901   5.898   4.284 -0.2121  0.2315  0.2586
 3525WAT     H114820   6.946   5.960   4.242 -0.3965 -0.9918 -1.9232
 3525WAT     H214821   6.956   5.831   4.287 -0.3921  0.1177  1.6043
 3525WAT    EPW14822   6.916   5.897   4.278 -0.2660  0.0340  0.1351
 3526WAT      O14823   0.729   1.023   7.113 -0.6196  0.0594  0.4832
 3526WAT     H114824   0.685   0.952   7.088  0.9425  0.0915 -2.8308
 3526WAT     H214825   0.788   0.992   7.170 -2.4433 -0.5396  2.1625
 3526WAT    EPW14826   0.731   1.008   7.118 -0.6582 -0.0243  0.2417
 3527WAT      O14827   0.304   4.624   4.481 -0.1900 -0.6136 -0.3446
 3527WAT     H114828   0.297   4.632   4.568  1.5970  0.3725 -0.2483
 3527WAT     H214829   0.246   4.680   4.450 -1.3156 -1.4505  0.1818
 3527WAT    EPW14830   0.294   4.633   4.489 -0.0923 -0.5915 -0.2526
 3528WAT      O14831   4.263   0.966   6.098 -0.6078 -0.0594  0.0938
 3528WAT     H114832   4.324   0.916   6.060 -1.2469  0.7814 -2.1713
 3528WAT     H214833   4.309   1.034   6.129 -0.1645 -0.3692  0.1227
 3528WAT    EPW14834   4.279   0.969   6.097 -0.6367  0.0190 -0.2365
 3529WAT      O14835   3.644   5.693   7.078 -0.2364 -0.2184  0.2649
 3529WAT     H114836   3.635   5.609   7.100 -1.0259 -0.4371 -0.8137
 3529WAT     H214837   3.668   5.689   6.994  1.9371  0.6018  0.7849
 3529WAT    EPW14838   3.647   5.680   7.069 -0.0320 -0.1295  0.1824
 3530WAT      O14839   5.871   6.887   0.315 -0.7478  0.1269 -0.5513
 3530WAT     H114840   5.844   6.938   0.381 -2.2327 -1.6932  0.3419
 3530WAT     H214841   5.950   6.861   0.339 -2.0019 -2.0781  1.6030
 3530WAT    EPW14842   5.879   6.891   0.328 -1.1524 -0.4677 -0.1011
 3531WAT      O14843   0.510   3.155   4.628 -0.2905  0.4708  0.2193
 3531WAT     H114844   0.579   3.210   4.625  0.6078 -0.6677 -1.1760
 3531WAT     H214845   0.441   3.209   4.624  0.5310  1.5858  0.4305
 3531WAT    EPW14846   0.510   3.171   4.627 -0.0365  0.4673  0.0444
 3532WAT      O14847   4.903   1.598   4.396 -0.5145  0.7833  0.4099
 3532WAT     H114848   4.857   1.672   4.390  0.4599  1.2762 -2.0164
 3532WAT     H214849   4.980   1.625   4.429 -0.6046  0.6155  0.7617
 3532WAT    EPW14850   4.908   1.613   4.400 -0.3839  0.8313  0.1035
 3533WAT      O14851   0.443   4.675   6.774 -0.3126 -0.1291  0.3690
 3533WAT     H114852   0.385   4.730   6.738  0.0131 -0.5400 -0.8594
 3533WAT     H214853   0.411   4.660   6.853 -2.8294 -1.6892 -0.8161
 3533WAT    EPW14854   0.430   4.681   6.780 -0.6363 -0.4203  0.0125
 3534WAT      O14855   5.055   1.849   2.281  0.3408  0.1054 -0.1546
 3534WAT     H114856   5.035   1.768   2.304 -1.0453  0.8245  1.4361
 3534WAT     H214857   5.022   1.897   2.347  0.8329  1.9581 -1.1957
 3534WAT    EPW14858   5.047   1.844   2.294  0.2087  0.4853 -0.0734
 3535WAT      O14859   6.020   2.425   7.340 -0.6215  0.1291  0.9319
 3535WAT     H114860   5.986   2.382   7.273 -0.7957 -0.0511  1.1350
 3535WAT     H214861   5.953   2.433   7.395 -0.3721 -0.1028  1.2705
 3535WAT    EPW14862   6.005   2.420   7.338 -0.6104  0.0683  1.0119
 3536WAT      O14863   4.663   1.059   0.937  0.4148  0.0384 -0.1341
 3536WAT     H114864   4.603   0.997   0.920  1.1148 -0.9412  0.9123
 3536WAT     H214865   4.618   1.133   0.925 -1.3150 -0.6491  1.4824
 3536WAT    EPW14866   4.647   1.061   0.932  0.2627 -0.2078  0.2592
 3537WAT      O14867   4.293   0.911   3.838 -0.3970  0.0492  0.2673
 3537WAT     H114868   4.353   0.903   3.775 -0.8414 -1.0351 -0.0492
 3537WAT     H214869   4.247   0.837   3.831 -2.4956  1.3211 -0.2649
 3537WAT    EPW14870   4.295   0.899   3.827 -0.7727  0.0769  0.1419
 3538WAT      O14871   0.580   3.551   2.721 -0.3338  0.1516  0.0584
 3538WAT     H114872   0.592   3.527   2.804  0.0585  1.1006  0.2826
 3538WAT     H214873   0.498   3.580   2.720 -0.6821 -0.7849 -0.1293
 3538WAT    EPW14874   0.570   3.552   2.733 -0.3273  0.1534  0.0638
 3539WAT      O14875   5.533   4.557   1.055 -0.4125 -0.0191  0.3031
 3539WAT     H114876   5.553   4.616   1.117 -1.5064  0.9127 -0.1765
 3539WAT     H214877   5.492   4.494   1.100  0.8417 -0.4840  0.8376
 3539WAT    EPW14878   5.530   4.557   1.071 -0.3889  0.0499  0.3112
 3540WAT      O14879   7.139   3.644   4.439 -0.0822  0.2102  0.6330
 3540WAT     H114880   7.198   3.583   4.418  0.6387  0.8705  0.7025
 3540WAT     H214881   7.094   3.608   4.504  0.6907 -0.0369  1.0402
 3540WAT    EPW14882   7.141   3.630   4.445  0.1385  0.2713  0.7034
 3541WAT      O14883   7.274   2.052   6.774 -0.1079 -0.2777  0.1451
 3541WAT     H114884   7.209   2.039   6.717 -1.1728 -0.6305  1.3893
 3541WAT     H214885   7.313   2.124   6.745  0.8687 -1.6892 -2.3583
 3541WAT    EPW14886   7.270   2.060   6.761 -0.1209 -0.5383 -0.0409
 3542WAT      O14887   4.418   5.953   0.504  0.0946 -0.1572 -0.3034
 3542WAT     H114888   4.466   5.911   0.444 -1.1750  1.7150 -2.8220
 3542WAT     H214889   4.336   5.929   0.484 -0.2883 -1.2867  2.2602
 3542WAT    EPW14890   4.413   5.943   0.492 -0.1495 -0.0475 -0.2968
 3543WAT      O14891   0.069   3.460   4.373  0.0285  0.4668  0.2114
 3543WAT     H114892   0.080   3.374   4.358  1.4316  0.6244  0.1637
 3543WAT     H214893   0.141   3.481   4.418 -0.6833  1.4729  0.9160
 3543WAT    EPW14894   0.082   3.450   4.378  0.1306  0.6387  0.3084
 3544WAT      O14895   6.913   1.730   1.949 -0.3282 -0.3082  0.1279
 3544WAT     H114896   6.881   1.807   1.974  0.2115  0.4994 -1.4775
 3544WAT     H214897   6.843   1.679   1.941 -0.7414  0.1578  0.7771
 3544WAT    EPW14898   6.898   1.734   1.951 -0.3095 -0.1201 -0.0134
 3545WAT      O14899   6.393   3.548   2.082  0.5914 -0.6625 -0.8464
 3545WAT     H114900   6.340   3.618   2.082 -0.1906 -1.1988 -2.7016
 3545WAT     H214901   6.347   3.487   2.124 -0.1301 -0.9989 -2.0771
 3545WAT    EPW14902   6.378   3.550   2.088  0.3693 -0.7914 -1.3022
 3546WAT      O14903   4.782   6.746   5.354 -0.6954  0.2831 -0.1230
 3546WAT     H114904   4.773   6.831   5.369 -2.4742 -0.0088  0.6798
 3546WAT     H214905   4.754   6.709   5.428 -0.1751 -1.0102 -0.5403
 3546WAT    EPW14906   4.777   6.753   5.367 -0.8813  0.0489 -0.0661
 3547WAT      O14907   2.185   6.264   3.392 -0.6170  0.4045 -0.0938
 3547WAT     H114908   2.252   6.306   3.428 -0.5147 -0.1052  0.3216
 3547WAT     H214909   2.149   6.324   3.340  0.1991  0.6708 -0.3771
 3547WAT    EPW14910   2.190   6.279   3.390 -0.4813  0.3686 -0.0743
 3548WAT      O14911   0.581   3.720   5.252 -0.2827  0.0445  0.4560
 3548WAT     H114912   0.570   3.636   5.273  0.3488 -0.3081 -0.5373
 3548WAT     H214913   0.624   3.753   5.321  1.2271 -0.9321  0.0367
 3548WAT    EPW14914   0.586   3.713   5.265  0.0336 -0.1518  0.2473
 3549WAT      O14915   6.688   4.935   0.503  0.0056  1.0164  0.1769
 3549WAT     H114916   6.734   4.880   0.453  1.4974  0.7624  1.7245
 3549WAT     H214917   6.606   4.906   0.495  0.6129 -0.8215  0.1673
 3549WAT    EPW14918   6.683   4.923   0.494  0.3157  0.7074  0.4041
 3550WAT      O14919   5.269   5.739   5.981  0.1485 -0.0594 -0.0031
 3550WAT     H114920   5.273   5.730   5.895  0.9872 -1.1443  0.1361
 3550WAT     H214921   5.311   5.815   5.995 -1.7768  1.2067 -0.6833
 3550WAT    EPW14922   5.276   5.749   5.970 -0.0120 -0.0326 -0.0830
 3551WAT      O14923   1.966   4.532   5.107 -0.5698 -0.2404  0.2493
 3551WAT     H114924   1.990   4.616   5.110 -0.0925 -0.1985 -2.4560
 3551WAT     H214925   1.989   4.502   5.186  1.2315  1.6753  0.5606
 3551WAT    EPW14926   1.973   4.540   5.119 -0.2332  0.0488 -0.1043
 3552WAT      O14927   1.241   0.937   6.362 -0.1136  0.2939 -0.0723
 3552WAT     H114928   1.256   0.950   6.277  2.5228 -1.3529  0.0002
 3552WAT     H214929   1.234   0.850   6.368 -1.0909  0.4420  1.2997
 3552WAT    EPW14930   1.242   0.926   6.350  0.1315  0.0725  0.1411
 3553WAT      O14931   4.498   4.907   1.705  0.0871 -0.2263 -0.4949
 3553WAT     H114932   4.416   4.902   1.675 -0.1665 -0.5371  0.2296
 3553WAT     H214933   4.523   4.823   1.709 -0.2090 -0.2718  0.9974
 3553WAT    EPW14934   4.489   4.894   1.701  0.0059 -0.2789 -0.1674
 3554WAT      O14935   1.986   2.899   3.808 -0.2622 -0.3454  0.3617
 3554WAT     H114936   2.069   2.873   3.797 -0.2911 -0.4788  0.4597
 3554WAT     H214937   1.983   2.921   3.892 -0.2947 -0.2271  0.3293
 3554WAT    EPW14938   1.998   2.898   3.819 -0.2713 -0.3477  0.3714
 3555WAT      O14939   4.195   3.855   3.499 -0.2006 -0.6170  0.0783
 3555WAT     H114940   4.273   3.818   3.506  0.3495  0.1844 -1.3275
 3555WAT     H214941   4.139   3.788   3.504  0.5891 -1.2528  0.5951
 3555WAT    EPW14942   4.198   3.840   3.500 -0.0027 -0.5925 -0.0530
 3556WAT      O14943   6.871   1.168   6.522 -0.4878  0.5497  0.6154
 3556WAT     H114944   6.883   1.130   6.445  0.1733  0.7936  0.5935
 3556WAT     H214945   6.791   1.143   6.545 -0.7178  0.5412 -0.1822
 3556WAT    EPW14946   6.861   1.159   6.514 -0.4241  0.5845  0.4944
 3557WAT      O14947   6.002   4.908   4.412 -0.5875 -0.2388 -0.0752
 3557WAT     H114948   6.003   4.826   4.380 -0.3642 -0.3810  0.2984
 3557WAT     H214949   6.027   4.898   4.494  1.9640  0.4964 -0.6965
 3557WAT    EPW14950   6.006   4.894   4.419 -0.1776 -0.1512 -0.1118
 3558WAT      O14951   0.071   4.840   5.242  0.2454 -0.5416  0.4484
 3558WAT     H114952   0.091   4.794   5.313  1.0366 -0.3583  0.3533
 3558WAT     H214953   0.001   4.799   5.210 -0.5986 -0.1754  1.7462
 3558WAT    EPW14954   0.064   4.827   5.248  0.2376 -0.4604  0.6261
 3559WAT      O14955   0.556   5.124   6.159  0.5533 -0.1997 -0.2402
 3559WAT     H114956   0.483   5.107   6.204  1.2127  0.0554  0.9779
 3559WAT     H214957   0.612   5.064   6.189  1.4775  0.9891  0.4887
 3559WAT    EPW14958   0.554   5.113   6.170  0.7872  0.0136  0.0474
 3560WAT      O14959   3.563   0.894   6.118 -0.1987  0.4418 -0.1618
 3560WAT     H114960   3.524   0.952   6.066 -1.5430  1.0857  1.4628
 3560WAT     H214961   3.580   0.939   6.191 -1.2756 -1.1430  1.1528
 3560WAT    EPW14962   3.560   0.909   6.122 -0.5564  0.3028  0.2724
 3561WAT      O14963   6.685   5.165   3.575  0.1912  0.0700 -0.6371
 3561WAT     H114964   6.729   5.179   3.649 -0.8765  0.2828 -0.0211
 3561WAT     H214965   6.666   5.080   3.577  0.0697  0.0973 -0.6131
 3561WAT    EPW14966   6.688   5.155   3.586  0.0155  0.1055 -0.5426
 3562WAT      O14967   2.158   5.334   2.937  0.1853 -0.2653  0.4149
 3562WAT     H114968   2.089   5.351   2.886  0.2211 -1.2450  0.0219
 3562WAT     H214969   2.171   5.409   2.979 -0.9775  0.0083  0.3179
 3562WAT    EPW14970   2.150   5.348   2.936  0.0188 -0.3696  0.3425
 3563WAT      O14971   2.774   5.654   3.659  0.1196  0.1743  0.4828
 3563WAT     H114972   2.744   5.674   3.739  0.3121  2.7590 -0.0256
 3563WAT     H214973   2.709   5.607   3.624 -1.1322  1.2627  1.2492
 3563WAT    EPW14974   2.760   5.650   3.666 -0.0369  0.7169  0.5209
 3564WAT      O14975   3.018   2.210   1.744 -0.7481 -0.9416  0.4930
 3564WAT     H114976   3.036   2.293   1.765 -0.1668 -0.8507 -0.2883
 3564WAT     H214977   3.002   2.214   1.658  2.0716 -2.0212 -0.1960
 3564WAT    EPW14978   3.019   2.223   1.734 -0.2457 -1.0877  0.2758
 3565WAT      O14979   3.507   6.440   3.719 -0.4983 -0.5518 -0.0184
 3565WAT     H114980   3.458   6.374   3.689 -1.2938  0.0758 -0.1368
 3565WAT     H214981   3.461   6.510   3.697  0.6099  0.0757 -0.3951
 3565WAT    EPW14982   3.493   6.440   3.711 -0.4521 -0.3664 -0.0916
 3566WAT      O14983   3.686   5.522   3.326  0.0852  0.3907 -0.0724
 3566WAT     H114984   3.695   5.567   3.252  0.8776  0.6492  0.1657
 3566WAT     H214985   3.705   5.581   3.388  2.6845 -0.6025  0.1942
 3566WAT    EPW14986   3.690   5.538   3.324  0.5862  0.2822  0.0022
 3567WAT      O14987   3.859   4.484   1.407  0.5739 -0.0267  0.0818
 3567WAT     H114988   3.878   4.491   1.322  0.3348  1.0331  0.1010
 3567WAT     H214989   3.816   4.408   1.413 -1.5217  0.9685 -1.1590
 3567WAT    EPW14990   3.855   4.474   1.396  0.2290  0.2768 -0.0987
 3568WAT      O14991   3.430   2.958   2.074  0.2370  0.0570 -0.1266
 3568WAT     H114992   3.393   2.879   2.077  0.8925 -0.2644 -0.2317
 3568WAT     H214993   3.470   2.959   1.996 -0.3332  0.7578 -0.4212
 3568WAT    EPW14994   3.430   2.947   2.063  0.2496  0.1131 -0.1857
 3569WAT      O14995   0.740   2.090   2.421 -0.5154  0.3891 -0.5277
 3569WAT     H114996   0.749   2.099   2.334  0.1883 -0.5553 -0.5750
 3569WAT     H214997   0.776   2.162   2.453  0.3349  0.1887 -0.9934
 3569WAT    EPW14998   0.746   2.102   2.413 -0.2858  0.2200 -0.6035
 3570WAT      O14999   7.089   2.788   7.185 -0.0505  0.1650  0.3125
 3570WAT     H115000   7.162   2.812   7.226  0.0268  1.3341 -0.4649
 3570WAT     H215001   7.065   2.859   7.141 -1.4849 -0.2957  0.2767
 3570WAT    EPW15002   7.096   2.802   7.184 -0.2509  0.2697  0.1923
 3571WAT      O15003   3.581   1.771   3.662  0.4289 -0.5594 -0.3531
 3571WAT     H115004   3.560   1.760   3.747 -0.6026  3.4511  0.1153
 3571WAT     H215005   3.654   1.818   3.665 -0.9426  1.8393 -1.4837
 3571WAT    EPW15006   3.589   1.776   3.675  0.0739  0.3873 -0.4509
 3572WAT      O15007   0.132   4.323   4.598 -0.7050  0.0156  0.1799
 3572WAT     H115008   0.063   4.287   4.637 -0.9260 -0.3249 -0.5098
 3572WAT     H215009   0.151   4.267   4.534  0.8394 -0.4107  0.9703
 3572WAT    EPW15010   0.124   4.309   4.594 -0.5095 -0.0977  0.1948
 3573WAT      O15011   1.256   0.470   4.912 -0.1446 -0.3800 -0.2326
 3573WAT     H115012   1.288   0.483   4.992  0.2715  0.2258 -0.4846
 3573WAT     H215013   1.175   0.501   4.918  0.2637  0.7936 -0.3428
 3573WAT    EPW15014   1.249   0.477   4.925 -0.0228 -0.1172 -0.2861
 3574WAT      O15015   1.575   4.827   7.079  0.0639  0.2590 -0.1373
 3574WAT     H115016   1.618   4.831   7.003 -1.7506  1.4054 -1.1838
 3574WAT     H215017   1.609   4.893   7.126  0.4850  0.1916 -0.3431
 3574WAT    EPW15018   1.586   4.837   7.075 -0.1419  0.4184 -0.3223
 3575WAT      O15019   5.401   0.774   4.235  0.5908 -0.6695  0.3117
 3575WAT     H115020   5.477   0.738   4.215  1.3972  1.4294 -0.6711
 3575WAT     H215021   5.422   0.841   4.286 -0.7459 -0.8670  1.1957
 3575WAT    EPW15022   5.415   0.779   4.239  0.5125 -0.3886  0.2971
 3576WAT      O15023   3.647   7.209   7.218 -0.1137  0.1768 -0.5194
 3576WAT     H115024   3.658   7.291   7.192  2.7246 -0.0876 -0.4106
 3576WAT     H215025   3.634   7.166   7.143 -0.9906  0.6110 -0.6306
 3576WAT    EPW15026   3.646   7.215   7.203  0.1760  0.2019 -0.5197
 3577WAT      O15027   5.704   6.441   7.140  0.6350 -0.3339 -0.5519
 3577WAT     H115028   5.685   6.447   7.055  1.1510 -1.5058 -0.7671
 3577WAT     H215029   5.636   6.478   7.179  0.6995  0.8366 -1.4907
 3577WAT    EPW15030   5.691   6.447   7.133  0.7207 -0.3341 -0.7224
 3578WAT      O15031   5.884   4.408   4.986  0.3024  0.9504  0.4333
 3578WAT     H115032   5.890   4.343   5.044  1.1557  0.1847 -0.4699
 3578WAT     H215033   5.884   4.366   4.909  0.1836  1.9926 -0.1457
 3578WAT    EPW15034   5.885   4.392   4.983  0.4109  0.9913  0.2144
 3579WAT      O15035   6.946   5.970   7.101 -0.8235 -0.7627  0.2030
 3579WAT     H115036   6.932   6.037   7.048 -1.1222  0.8665  2.2213
 3579WAT     H215037   6.986   5.911   7.051 -2.6325 -0.0531 -2.2504
 3579WAT    EPW15038   6.950   5.971   7.086 -1.1349 -0.4172  0.1387
 3580WAT      O15039   6.349   1.228   7.035 -0.0441  0.2110  0.0038
 3580WAT     H115040   6.399   1.202   6.968 -0.8291  0.9408 -0.9052
 3580WAT     H215041   6.276   1.181   7.025 -0.0814  0.1653  0.4852
 3580WAT    EPW15042   6.345   1.217   7.023 -0.1656  0.3120 -0.0594
 3581WAT      O15043   6.426   4.871   0.469  0.0903  0.0151 -0.0981
 3581WAT     H115044   6.372   4.924   0.512 -0.3237  0.1439 -0.7710
 3581WAT     H215045   6.382   4.851   0.396  1.3941  1.0070 -1.1969
 3581WAT    EPW15046   6.411   4.876   0.465  0.2217  0.1806 -0.3598
 3582WAT      O15047   2.467   3.250   0.755 -0.5579  0.1958  0.3918
 3582WAT     H115048   2.469   3.164   0.765 -2.8329  0.1567  1.0711
 3582WAT     H215049   2.450   3.261   0.670  1.8361  0.0994 -0.1738
 3582WAT    EPW15050   2.465   3.239   0.744 -0.5403  0.1758  0.4086
 3583WAT      O15051   2.091   5.766   0.090  0.1973 -0.2696 -0.1847
 3583WAT     H115052   2.005   5.748   0.090 -0.0187  0.4993 -2.3615
 3583WAT     H215053   2.125   5.703   0.039  0.9804 -0.6540  0.7814
 3583WAT    EPW15054   2.083   5.754   0.082  0.2811 -0.2128 -0.3635
 3584WAT      O15055   2.746   4.243   6.986 -0.0784 -0.4855 -0.1144
 3584WAT     H115056   2.663   4.230   7.007 -0.7142  2.1817 -0.6314
 3584WAT     H215057   2.748   4.228   6.900  0.0777 -0.8889 -0.0441
 3584WAT    EPW15058   2.734   4.239   6.976 -0.1493 -0.1511 -0.1804
 3585WAT      O15059   0.135   6.875   6.185 -0.0387  0.0436 -0.0977
 3585WAT     H115060   0.194   6.929   6.151 -0.4479  0.3135 -0.3812
 3585WAT     H215061   0.183   6.817   6.230  0.3648  1.2265  1.0576
 3585WAT    EPW15062   0.151   6.874   6.187 -0.0395  0.2582  0.0311
 3586WAT      O15063   2.420   3.008   6.962 -0.3606  0.5825 -0.6693
 3586WAT     H115064   2.339   2.979   6.945  0.0972 -0.9412 -0.4499
 3586WAT     H215065   2.470   2.959   6.910  0.4966  0.8614 -0.1280
 3586WAT    EPW15066   2.415   2.996   6.952 -0.1663  0.3986 -0.5569
 3587WAT      O15067   1.774   2.260   6.192 -0.4313  0.0642 -0.0105
 3587WAT     H115068   1.833   2.307   6.237  1.0776 -1.2883 -0.4831
 3587WAT     H215069   1.784   2.179   6.223  0.1615 -0.7835 -2.2211
 3587WAT    EPW15070   1.784   2.255   6.204 -0.1208 -0.2608 -0.4069
 3588WAT      O15071   0.758   3.644   4.532  0.5583 -0.0775 -0.0947
 3588WAT     H115072   0.835   3.628   4.493 -0.0442  0.5228 -1.5946
 3588WAT     H215073   0.746   3.730   4.520 -1.0818 -0.4311 -1.3372
 3588WAT    EPW15074   0.768   3.655   4.524  0.2270 -0.0411 -0.4998
 3589WAT      O15075   6.541   2.414   5.470 -0.4973 -0.5528  0.4268
 3589WAT     H115076   6.556   2.499   5.481 -0.5024 -0.6280  1.0025
 3589WAT     H215077   6.605   2.376   5.516 -0.3119 -0.8630 -0.0737
 3589WAT    EPW15078   6.553   2.421   5.478 -0.4706 -0.6097  0.4379
 3590WAT      O15079   0.156   3.536   4.034  0.0269  0.3784 -0.0632
 3590WAT     H115080   0.183   3.555   4.114 -1.0423 -0.4768  0.5237
 3590WAT     H215081   0.191   3.457   4.018 -2.5114 -1.1043  1.0028
 3590WAT    EPW15082   0.165   3.527   4.043 -0.5060  0.0330  0.1810
 3591WAT      O15083   4.531   1.430   2.510 -0.2238 -0.2651 -0.0554
 3591WAT     H115084   4.573   1.399   2.581  0.3474 -0.0317 -0.2919
 3591WAT     H215085   4.533   1.362   2.455  1.2102  0.2191 -0.6528
 3591WAT    EPW15086   4.537   1.415   2.513  0.0724 -0.1591 -0.1786
 3592WAT      O15087   5.611   6.924   5.433 -0.6791  0.2011  0.7192
 3592WAT     H115088   5.627   6.964   5.357 -0.3062  1.2896  1.3398
 3592WAT     H215089   5.686   6.933   5.476 -0.9719 -0.1892  1.3156
 3592WAT    EPW15090   5.624   6.931   5.428 -0.6673  0.3042  0.8990
 3593WAT      O15091   1.086   0.450   7.362 -0.6908  0.7001  0.0795
 3593WAT     H115092   1.024   0.508   7.343 -0.7835  1.1041  1.4927
 3593WAT     H215093   1.104   0.466   7.446 -1.5696 -2.0851  0.9198
 3593WAT    EPW15094   1.080   0.461   7.372 -0.8343  0.3484  0.4124
 3594WAT      O15095   5.135   2.750   0.159 -0.1833  0.0554  0.2568
 3594WAT     H115096   5.063   2.784   0.123  0.4215  1.7225  0.5070
 3594WAT     H215097   5.199   2.797   0.124  0.7816 -1.2261  0.2338
 3594WAT    EPW15098   5.134   2.762   0.149  0.0486  0.1124  0.2903
 3595WAT      O15099   0.565   4.920   1.898  0.3267 -0.1028  0.6942
 3595WAT     H115100   0.505   4.881   1.947  0.0555 -1.1694 -0.4342
 3595WAT     H215101   0.633   4.929   1.952 -0.7223  0.8686  1.9039
 3595WAT    EPW15102   0.566   4.915   1.913  0.1317 -0.1169  0.7062
 3596WAT      O15103   1.929   5.374   3.158 -0.1504  0.1820  0.2522
 3596WAT     H115104   2.009   5.409   3.152  0.6329 -1.4453  0.4291
 3596WAT     H215105   1.913   5.373   3.243  0.1762 -0.5867  0.3094
 3596WAT    EPW15106   1.938   5.379   3.169  0.0136 -0.1719  0.2868
 3597WAT      O15107   4.026   1.167   6.571  0.4468 -0.3558 -0.3086
 3597WAT     H115108   3.967   1.104   6.572  1.8905 -1.7641  0.1475
 3597WAT     H215109   4.029   1.192   6.487 -0.0521 -0.9725 -0.5093
 3597WAT    EPW15110   4.018   1.162   6.559  0.5863 -0.6550 -0.2709
 3598WAT      O15111   6.056   1.374   2.704 -0.4986 -0.7452 -0.5976
 3598WAT     H115112   6.023   1.308   2.751 -0.1178 -0.8314 -0.4452
 3598WAT     H215113   6.036   1.444   2.751  0.8786 -0.9199  0.2967
 3598WAT    EPW15114   6.048   1.374   2.718 -0.2389 -0.7838 -0.4430
 3599WAT      O15115   6.702   3.251   0.954  0.2274 -0.1954  0.2597
 3599WAT     H115116   6.694   3.255   0.867 -0.7698  0.4680  0.3686
 3599WAT     H215117   6.645   3.310   0.983  1.3291  0.4027  1.3408
 3599WAT    EPW15118   6.692   3.261   0.945  0.2429 -0.0090  0.4355
 3600WAT      O15119   3.151   3.683   3.497  0.5881  0.7196  0.7337
 3600WAT     H115120   3.065   3.673   3.482  0.4789  1.4450  0.8369
 3600WAT     H215121   3.158   3.672   3.583  0.8064 -0.6959  0.5464
 3600WAT    EPW15122   3.139   3.680   3.507  0.6042  0.6176  0.7213
 3601WAT      O15123   6.131   6.822   0.405  0.3230  0.1903  0.1170
 3601WAT     H115124   6.185   6.887   0.424  1.8779 -0.9521 -0.1764
 3601WAT     H215125   6.184   6.758   0.379 -1.2134 -0.8296 -0.6808
 3601WAT    EPW15126   6.146   6.822   0.404  0.3257 -0.1291 -0.0442
 3602WAT      O15127   1.059   1.274   6.928  0.2099 -0.1487 -0.7704
 3602WAT     H115128   1.125   1.221   6.948  0.2704 -0.3353 -1.4493
 3602WAT     H215129   1.085   1.351   6.961  0.6868 -0.2607 -0.8633
 3602WAT    EPW15130   1.073   1.278   6.936  0.2893 -0.1928 -0.8844
 3603WAT      O15131   2.250   6.132   3.005  0.1069  0.6515  0.3425
 3603WAT     H115132   2.256   6.102   3.087  0.4672  0.2750  0.1845
 3603WAT     H215133   2.333   6.137   2.980 -0.0162  0.5004 -0.0926
 3603WAT    EPW15134   2.263   6.128   3.014  0.1419  0.5735  0.2549
 3604WAT      O15135   4.116   0.928   0.909  0.1705  0.0084  0.0770
 3604WAT     H115136   4.125   0.842   0.920  0.7896 -0.0826 -0.9320
 3604WAT     H215137   4.198   0.956   0.899  0.1391  1.0074  2.1125
 3604WAT    EPW15138   4.130   0.919   0.909  0.2573  0.1425  0.2287
 3605WAT      O15139   1.828   5.150   0.705 -0.1758  0.2394  0.4136
 3605WAT     H115140   1.742   5.142   0.692 -0.2632 -3.6729  1.9481
 3605WAT     H215141   1.863   5.109   0.637  0.2874 -0.8127  1.2526
 3605WAT    EPW15142   1.821   5.143   0.693 -0.1203 -0.4940  0.7642
 3606WAT      O15143   0.108   3.552   0.800 -0.1297  0.5015 -0.3126
 3606WAT     H115144   0.078   3.510   0.730  1.3171 -1.5419  0.2084
 3606WAT     H215145   0.064   3.628   0.799 -2.6686 -0.8601 -1.4795
 3606WAT    EPW15146   0.097   3.557   0.789 -0.2910 -0.0015 -0.4080
 3607WAT      O15147   0.962   4.608   0.986  0.4951 -0.0039 -0.0721
 3607WAT     H115148   1.006   4.580   0.916  1.7060 -2.4340  1.5516
 3607WAT     H215149   1.002   4.682   1.007  1.2477 -0.1585 -0.9079
 3607WAT    EPW15150   0.974   4.615   0.978  0.7852 -0.3857  0.0443
 3608WAT      O15151   3.041   2.361   5.535  0.2108  0.0920  0.3088
 3608WAT     H115152   3.090   2.427   5.563  0.8140 -0.2405  0.0709
 3608WAT     H215153   2.967   2.399   5.508 -1.0383  0.3299  3.5883
 3608WAT    EPW15154   3.037   2.376   5.535  0.1154  0.0780  0.7581
 3609WAT      O15155   5.949   5.113   0.685  0.3842  0.2942  0.8209
 3609WAT     H115156   6.004   5.166   0.644 -1.1987  0.7725 -0.8004
 3609WAT     H215157   5.995   5.039   0.695  2.1652  1.4592  1.9258
 3609WAT    EPW15158   5.964   5.110   0.681  0.4134  0.5369  0.7446
 3610WAT      O15159   2.301   1.743   0.541  0.1844  0.0126 -0.0169
 3610WAT     H115160   2.320   1.687   0.605  0.6583  0.1443 -0.0354
 3610WAT     H215161   2.369   1.798   0.542  0.7109 -0.5855 -1.3126
 3610WAT    EPW15162   2.314   1.743   0.551  0.3322 -0.0563 -0.2110
 3611WAT      O15163   6.672   4.167   3.900 -0.0703 -0.2781 -0.3053
 3611WAT     H115164   6.607   4.172   3.958  1.5927 -1.0325  1.7583
 3611WAT     H215165   6.683   4.249   3.874 -1.2071 -0.0102 -0.0097
 3611WAT    EPW15166   6.664   4.180   3.904  0.0074 -0.3500  0.0432
 3612WAT      O15167   1.559   3.345   4.597 -0.7184 -0.2290  0.4895
 3612WAT     H115168   1.629   3.293   4.596 -0.5518 -0.0316  1.0730
 3612WAT     H215169   1.492   3.290   4.600 -0.5160 -0.4400  2.1480
 3612WAT    EPW15170   1.559   3.329   4.598 -0.6639 -0.2310  0.8207
 3613WAT      O15171   4.713   3.368   1.386 -0.1881  0.1544 -0.0514
 3613WAT     H115172   4.660   3.427   1.421 -1.8951 -1.6738  0.6001
 3613WAT     H215173   4.747   3.410   1.317 -1.8742  1.6543 -0.0378
 3613WAT    EPW15174   4.711   3.383   1.381 -0.6893  0.1059  0.0469
 3614WAT      O15175   3.385   0.701   6.438  0.2961 -0.7451 -0.6580
 3614WAT     H115176   3.357   0.628   6.477 -1.4145  0.1283 -0.1452
 3614WAT     H215177   3.376   0.684   6.353  1.2455 -1.6144 -0.5995
 3614WAT    EPW15178   3.380   0.688   6.431  0.1837 -0.7445 -0.5736
 3615WAT      O15179   0.716   2.795   1.202  0.5312 -0.3078 -1.1038
 3615WAT     H115180   0.634   2.798   1.173  0.3946  0.2630 -0.6798
 3615WAT     H215181   0.740   2.879   1.203  0.6199 -0.3298  0.1577
 3615WAT    EPW15182   0.707   2.808   1.198  0.5241 -0.2267 -0.8548
 3616WAT      O15183   5.685   0.715   1.808  0.2071  0.6789  0.6991
 3616WAT     H115184   5.607   0.723   1.770  0.9592  0.5330 -0.9717
 3616WAT     H215185   5.682   0.772   1.874 -1.1086  1.0643  0.3379
 3616WAT    EPW15186   5.673   0.725   1.813  0.1239  0.7143  0.3989
 3617WAT      O15187   6.027   6.268   7.099  0.6186 -0.1222 -0.2369
 3617WAT     H115188   5.984   6.294   7.028  1.0628  0.6314 -0.2318
 3617WAT     H215189   6.110   6.283   7.079  0.7412  0.1550  0.4712
 3617WAT    EPW15190   6.033   6.274   7.085  0.7023  0.0301 -0.1316
 3618WAT      O15191   6.176   0.685   3.131  0.2056  0.9322  0.0109
 3618WAT     H115192   6.224   0.708   3.201 -1.2661 -1.4079  1.9714
 3618WAT     H215193   6.094   0.705   3.155 -0.3313  0.1223 -1.0358
 3618WAT    EPW15194   6.171   0.691   3.145 -0.0911  0.4669  0.1459
 3619WAT      O15195   5.813   3.789   1.682  0.3090 -0.7619 -0.1921
 3619WAT     H115196   5.733   3.809   1.652 -0.9740 -2.5053  1.7830
 3619WAT     H215197   5.842   3.730   1.625 -0.4211 -1.1694 -0.1451
 3619WAT    EPW15198   5.805   3.783   1.669  0.0116 -1.0796  0.1066
 3620WAT      O15199   0.807   3.104   3.419  0.0915  0.2133 -0.2359
 3620WAT     H115200   0.725   3.084   3.396 -0.0708  1.3143 -0.6764
 3620WAT     H215201   0.816   3.065   3.497 -0.1457 -1.5905 -1.0599
 3620WAT    EPW15202   0.796   3.095   3.427  0.0325  0.1095 -0.4227
 3621WAT      O15203   3.286   2.575   7.349 -0.4321 -0.0785 -0.0142
 3621WAT     H115204   3.330   2.508   7.383  0.5086  1.0945  1.2451
 3621WAT     H215205   3.207   2.543   7.334  0.2594 -1.7176 -0.4012
 3621WAT    EPW15206   3.281   2.561   7.352 -0.1910 -0.1473  0.1146
 3622WAT      O15207   3.078   0.594   2.836  0.4542  0.1877  0.4142
 3622WAT     H115208   3.140   0.534   2.849  0.2141 -0.4340 -1.0237
 3622WAT     H215209   3.004   0.547   2.841  0.2262  0.4944  0.0028
 3622WAT    EPW15210   3.076   0.578   2.839  0.3850  0.1412  0.1410
 3623WAT      O15211   7.159   2.565   4.786  0.6171  0.2016 -0.0082
 3623WAT     H115212   7.171   2.479   4.799  0.1066  0.0186 -0.6786
 3623WAT     H215213   7.224   2.587   4.733  0.0637 -0.0374 -0.8042
 3623WAT    EPW15214   7.170   2.556   4.780  0.4600  0.1393 -0.2248
 3624WAT      O15215   2.779   6.152   5.416 -0.3427 -0.2231 -0.1456
 3624WAT     H115216   2.729   6.088   5.385 -0.3489 -1.7272  2.6721
 3624WAT     H215217   2.833   6.112   5.471 -0.9750  2.2219  2.5200
 3624WAT    EPW15218   2.780   6.137   5.419 -0.4370 -0.0841  0.6644
 3625WAT      O15219   4.297   7.111   1.292 -0.2343  0.0402 -0.1804
 3625WAT     H115220   4.377   7.099   1.325 -0.1538  2.0561  0.4659
 3625WAT     H215221   4.244   7.093   1.358 -0.2757 -0.3924 -0.3310
 3625WAT    EPW15222   4.301   7.107   1.306 -0.2285  0.2741 -0.1072
 3626WAT      O15223   5.475   6.349   4.332 -0.1207 -0.0751 -0.0516
 3626WAT     H115224   5.494   6.340   4.247 -0.9211  0.1972 -0.2693
 3626WAT     H215225   5.459   6.267   4.358 -0.2459 -0.1194 -0.2596
 3626WAT    EPW15226   5.475   6.336   4.323 -0.2575 -0.0414 -0.1145
 3627WAT      O15227   0.035   0.986   2.691  0.6242  0.5412 -0.3677
 3627WAT     H115228   0.111   1.017   2.659  0.7405 -0.2660 -0.9143
 3627WAT     H215229   0.051   0.978   2.776  1.2278  0.2040 -0.5036
 3627WAT    EPW15230   0.049   0.990   2.699  0.7305  0.3721 -0.4685
 3628WAT      O15231   0.822   2.575   6.314 -0.6733 -0.1178  0.1139
 3628WAT     H115232   0.906   2.571   6.336 -0.5666  2.1912  0.3119
 3628WAT     H215233   0.785   2.516   6.366  0.6266 -0.1181  1.0853
 3628WAT    EPW15234   0.829   2.565   6.325 -0.4655  0.2233  0.2866
 3629WAT      O15235   1.055   4.852   3.087 -0.4948  0.0878 -0.0669
 3629WAT     H115236   0.969   4.866   3.093 -0.2857  0.8909  1.4512
 3629WAT     H215237   1.085   4.924   3.047 -0.1527  1.4708  2.4838
 3629WAT    EPW15238   1.047   4.864   3.082 -0.4134  0.4107  0.5342
 3630WAT      O15239   3.975   6.099   4.330 -0.2714 -0.3496 -0.9097
 3630WAT     H115240   3.999   6.135   4.254 -0.6056  0.7104 -0.5313
 3630WAT     H215241   3.889   6.112   4.332  0.0675  2.6347  1.0821
 3630WAT    EPW15242   3.966   6.106   4.319 -0.2707  0.2479 -0.5596
 3631WAT      O15243   4.155   3.364   1.948 -0.7343 -1.1784 -0.2324
 3631WAT     H115244   4.172   3.399   1.870  0.6540  1.1722  1.0068
 3631WAT     H215245   4.081   3.319   1.934 -1.2545  0.2158 -2.6004
 3631WAT    EPW15246   4.147   3.363   1.934 -0.6060 -0.6253 -0.3991
 3632WAT      O15247   0.206   5.994   1.850  0.3408 -0.5805 -0.3619
 3632WAT     H115248   0.225   5.947   1.922 -0.3772 -0.4218 -0.0527
 3632WAT     H215249   0.126   6.025   1.868 -0.1093 -1.0538 -1.4958
 3632WAT    EPW15250   0.197   5.992   1.864  0.1682 -0.6269 -0.4837
 3633WAT      O15251   5.630   4.333   3.607 -0.2661  0.0079 -0.7508
 3633WAT     H115252   5.615   4.418   3.594 -0.5488  0.2105  0.7413
 3633WAT     H215253   5.704   4.319   3.563  0.0186  1.1263 -0.6776
 3633WAT    EPW15254   5.639   4.344   3.599 -0.2658  0.2030 -0.5195
 3634WAT      O15255   4.236   3.440   4.601  0.0184 -0.1716  0.3179
 3634WAT     H115256   4.237   3.424   4.515  0.0606 -0.4682  0.3721
 3634WAT     H215257   4.201   3.367   4.635 -0.5679  0.1873  0.5007
 3634WAT    EPW15258   4.231   3.427   4.593 -0.0619 -0.1624  0.3529
 3635WAT      O15259   0.368   0.430   6.807 -0.0492 -0.7828  0.0813
 3635WAT     H115260   0.430   0.484   6.779  0.1519 -0.5820  0.8948
 3635WAT     H215261   0.412   0.359   6.831 -0.1009 -0.5673  0.8473
 3635WAT    EPW15262   0.383   0.427   6.806 -0.0271 -0.7213  0.3146
 3636WAT      O15263   0.321   6.120   2.809  0.0528  0.6973 -0.4258
 3636WAT     H115264   0.368   6.169   2.754  1.5681 -2.4039 -2.2013
 3636WAT     H215265   0.376   6.056   2.831 -1.9068 -0.5079  1.3797
 3636WAT    EPW15266   0.336   6.118   2.804 -0.0129  0.0612 -0.4214
 3637WAT      O15267   5.174   3.218   4.740  0.1958  0.1594 -0.5521
 3637WAT     H115268   5.169   3.298   4.707 -0.2854  0.1075 -0.6148
 3637WAT     H215269   5.130   3.169   4.683  0.3232 -0.1204 -0.4161
 3637WAT    EPW15270   5.167   3.223   4.727  0.1435  0.1104 -0.5412
 3638WAT      O15271   5.545   0.079   1.690 -0.2642 -0.1565 -0.0692
 3638WAT     H115272   5.539   0.094   1.776  0.6729  0.0218 -0.0264
 3638WAT     H215273   5.529   0.157   1.655  0.1884 -0.0306 -0.0122
 3638WAT    EPW15274   5.542   0.093   1.698 -0.0589 -0.1115 -0.0545
 3639WAT      O15275   1.727   4.828   6.851 -0.4583  0.3176  0.4927
 3639WAT     H115276   1.781   4.892   6.875  0.7313 -0.2278 -0.5854
 3639WAT     H215277   1.780   4.760   6.838 -1.5740 -0.6296  0.6615
 3639WAT    EPW15278   1.743   4.827   6.853 -0.4474  0.0971  0.3583
 3640WAT      O15279   7.209   5.264   5.585 -0.2797  0.3750 -0.2255
 3640WAT     H115280   7.259   5.265   5.657  1.3516  2.6563 -1.2471
 3640WAT     H215281   7.240   5.197   5.539  0.0504  0.1367  0.3400
 3640WAT    EPW15282   7.221   5.254   5.589  0.0100  0.6768 -0.2929
 3641WAT      O15283   2.356   0.230   5.194  0.5159 -0.1702 -0.1489
 3641WAT     H115284   2.316   0.164   5.154  2.3658 -0.8562 -0.9902
 3641WAT     H215285   2.331   0.223   5.277 -1.4537 -0.2313 -0.7082
 3641WAT    EPW15286   2.347   0.220   5.201  0.4982 -0.2805 -0.3558
 3642WAT      O15287   0.436   0.964   5.579 -0.1730 -0.1722 -0.9538
 3642WAT     H115288   0.493   0.899   5.596 -0.2283 -0.2541 -1.0818
 3642WAT     H215289   0.360   0.922   5.568 -0.3665 -0.0185 -0.2558
 3642WAT    EPW15290   0.433   0.948   5.580 -0.2097 -0.1616 -0.8696
 3643WAT      O15291   3.937   0.988   5.488  0.4802 -0.1780  0.0442
 3643WAT     H115292   3.854   0.998   5.512  0.5959  1.1468  0.0012
 3643WAT     H215293   3.954   1.061   5.444  0.4921 -2.1469 -3.5976
 3643WAT    EPW15294   3.928   1.000   5.485  0.4990 -0.2732 -0.5002
 3644WAT      O15295   7.228   5.569   3.447 -0.4089 -0.0588  0.1106
 3644WAT     H115296   7.314   5.552   3.443 -0.1530  1.2403 -0.3723
 3644WAT     H215297   7.209   5.596   3.367 -1.1939  0.0291  0.3234
 3644WAT    EPW15298   7.238   5.570   3.435 -0.4870  0.1461  0.0707
 3645WAT      O15299   6.090   5.545   2.542 -0.2417  0.3693 -0.6371
 3645WAT     H115300   6.172   5.573   2.534  0.3039 -0.9023  0.1647
 3645WAT     H215301   6.069   5.518   2.462  0.1060  0.7070 -0.8455
 3645WAT    EPW15302   6.099   5.545   2.529 -0.1098  0.2314 -0.5494
 3646WAT      O15303   4.609   3.140   3.562  0.4344 -0.1868 -0.7659
 3646WAT     H115304   4.541   3.194   3.565 -1.1996 -2.1201 -0.7757
 3646WAT     H215305   4.572   3.062   3.544  2.6108 -1.3733 -0.3991
 3646WAT    EPW15306   4.593   3.136   3.560  0.5145 -0.6477 -0.7131
 3647WAT      O15307   5.465   0.451   3.345 -0.3549 -0.1757 -0.3203
 3647WAT     H115308   5.408   0.474   3.284 -0.3486 -0.8989 -0.6044
 3647WAT     H215309   5.415   0.437   3.415 -0.3051  1.2358  0.0353
 3647WAT    EPW15310   5.449   0.452   3.347 -0.3466 -0.0740 -0.3097
 3648WAT      O15311   0.561   1.717   6.091  0.3704  0.5691  0.1800
 3648WAT     H115312   0.604   1.792   6.102 -1.3531  1.6780 -0.2520
 3648WAT     H215313   0.596   1.684   6.018 -0.1805  1.9653 -0.7531
 3648WAT    EPW15314   0.573   1.723   6.082  0.0344  0.9392 -0.0216
 3649WAT      O15315   3.474   0.437   2.192 -0.3326  0.3872 -0.9246
 3649WAT     H115316   3.433   0.361   2.200 -1.7174  1.2255  0.3050
 3649WAT     H215317   3.530   0.438   2.260 -1.6235  1.2112  0.1705
 3649WAT    EPW15318   3.476   0.426   2.203 -0.7279  0.6328 -0.5812
 3650WAT      O15319   1.160   2.546   2.305 -0.1130 -0.4097  0.1242
 3650WAT     H115320   1.247   2.552   2.308  0.1064 -2.7567 -0.2919
 3650WAT     H215321   1.139   2.513   2.383 -0.4360 -1.5171 -0.4131
 3650WAT    EPW15322   1.170   2.542   2.317 -0.1283 -0.9200 -0.0166
 3651WAT      O15323   3.819   5.689   3.494 -0.4590  0.0912  0.1653
 3651WAT     H115324   3.811   5.698   3.580  0.6618 -0.7759  0.3793
 3651WAT     H215325   3.833   5.770   3.466 -1.6618  0.5067  0.6784
 3651WAT    EPW15326   3.820   5.702   3.503 -0.4711  0.0245  0.2727
 3652WAT      O15327   4.166   4.568   1.071  0.7722  0.2011  0.0386
 3652WAT     H115328   4.129   4.627   1.125 -1.7028 -0.6783 -0.5716
 3652WAT     H215329   4.188   4.615   1.001  0.9668  0.7896  0.4877
 3652WAT    EPW15330   4.164   4.584   1.069  0.4353  0.1581  0.0148
 3653WAT      O15331   1.327   0.823   3.358  0.2482  0.1812 -0.0060
 3653WAT     H115332   1.395   0.775   3.332  0.3885 -0.3460  1.2545
 3653WAT     H215333   1.275   0.824   3.287  0.7902 -0.8276 -0.4502
 3653WAT    EPW15334   1.329   0.816   3.343  0.3490 -0.0457  0.1146
 3654WAT      O15335   0.178   7.148   2.348 -0.3225  0.3056 -0.1465
 3654WAT     H115336   0.112   7.121   2.298 -0.7256  2.2088 -0.7109
 3654WAT     H215337   0.236   7.178   2.290  0.0241  0.8004  0.4540
 3654WAT    EPW15338   0.177   7.148   2.332 -0.3308  0.6598 -0.1411
 3655WAT      O15339   6.206   1.786   2.294  0.2537  0.1253 -0.3818
 3655WAT     H115340   6.194   1.845   2.357  2.4184  0.5999 -0.3218
 3655WAT     H215341   6.125   1.764   2.270 -0.6100  1.7326  0.8791
 3655WAT    EPW15342   6.192   1.791   2.300  0.4459  0.4328 -0.1866
 3656WAT      O15343   1.706   3.440   2.735 -0.3974  0.0926 -0.2629
 3656WAT     H115344   1.644   3.417   2.679 -1.8923  0.1007  1.2831
 3656WAT     H215345   1.701   3.380   2.798  0.6700  0.5264  0.2708
 3656WAT    EPW15346   1.696   3.428   2.736 -0.4605  0.1579  0.0443
 3657WAT      O15347   2.048   4.003   1.130  0.0184  0.2855 -0.0221
 3657WAT     H115348   2.083   3.963   1.199 -1.3729 -2.0912 -0.5843
 3657WAT     H215349   1.982   4.049   1.164 -1.3675 -1.7468  0.2437
 3657WAT    EPW15350   2.043   4.004   1.145 -0.3919 -0.3658 -0.0659
 3658WAT      O15351   5.040   3.311   6.123  0.5228  0.1754 -0.8232
 3658WAT     H115352   4.956   3.335   6.126 -0.2803 -2.2362 -1.9783
 3658WAT     H215353   5.082   3.387   6.120 -1.6845  1.4716 -1.6032
 3658WAT    EPW15354   5.034   3.326   6.123  0.0781  0.0107 -1.1091
 3659WAT      O15355   6.094   4.296   0.428 -0.0085  0.3086  0.4643
 3659WAT     H115356   6.166   4.340   0.449  0.6768 -0.2301 -0.6422
 3659WAT     H215357   6.085   4.311   0.342 -0.0039 -1.3315  0.1419
 3659WAT    EPW15358   6.103   4.305   0.418  0.0934 -0.0132  0.2532
 3660WAT      O15359   5.441   2.009   7.032  0.2847 -0.1219 -0.2068
 3660WAT     H115360   5.499   1.978   6.974  0.4657  0.4308 -0.3362
 3660WAT     H215361   5.366   2.006   6.989  0.3676 -0.0125 -0.3637
 3660WAT    EPW15362   5.439   2.004   7.017  0.3237 -0.0241 -0.2491
 3661WAT      O15363   4.811   4.432   4.514  0.7145 -0.2675  0.0081
 3661WAT     H115364   4.861   4.365   4.488 -2.5720 -2.5100 -1.2084
 3661WAT     H215365   4.804   4.420   4.600  0.5768 -1.1847 -0.1241
 3661WAT    EPW15366   4.818   4.420   4.523  0.2086 -0.7342 -0.1911
 3662WAT      O15367   5.589   0.789   3.160  0.1191  0.0773  0.5060
 3662WAT     H115368   5.511   0.762   3.133  0.3521 -1.2326  1.1133
 3662WAT     H215369   5.599   0.866   3.120 -1.0753 -0.1763 -0.3032
 3662WAT    EPW15370   5.579   0.797   3.150 -0.0229 -0.1537  0.4762
 3663WAT      O15371   0.338   2.934   2.916 -0.0831 -0.3495 -0.2051
 3663WAT     H115372   0.303   2.938   2.995 -0.3843 -2.4784 -0.1758
 3663WAT     H215373   0.408   2.882   2.926  0.7780  0.5736 -1.0584
 3663WAT    EPW15374   0.343   2.927   2.929 -0.0004 -0.5276 -0.3268
 3664WAT      O15375   2.625   0.438   4.058 -0.2615 -0.1277 -0.6368
 3664WAT     H115376   2.691   0.417   4.111 -0.0651  1.2744 -0.2869
 3664WAT     H215377   2.575   0.367   4.060  0.8459 -0.9338 -0.3087
 3664WAT    EPW15378   2.627   0.425   4.066 -0.0689 -0.0396 -0.5367
 3665WAT      O15379   4.687   2.053   2.040 -0.4285 -0.6396 -0.4002
 3665WAT     H115380   4.742   1.986   2.046 -1.7174 -1.9144 -1.6428
 3665WAT     H215381   4.698   2.080   1.958  0.4212  1.0327  0.2355
 3665WAT    EPW15382   4.697   2.047   2.029 -0.4933 -0.5809 -0.4899
 3666WAT      O15383   2.216   4.773   2.144 -0.4044  0.2527 -0.1386
 3666WAT     H115384   2.154   4.712   2.142  2.0009 -2.5318  1.4852
 3666WAT     H215385   2.183   4.836   2.196 -1.1300 -2.2217  2.6780
 3666WAT    EPW15386   2.202   4.774   2.152 -0.1563 -0.5241  0.5174
 3667WAT      O15387   6.313   2.901   5.799  0.2377 -0.3756 -0.0920
 3667WAT     H115388   6.344   2.934   5.725  1.5578 -0.0207  0.5986
 3667WAT     H215389   6.294   2.971   5.847  1.3458 -0.5855  0.6838
 3667WAT    EPW15390   6.315   2.916   5.795  0.5964 -0.3542  0.1246
 3668WAT      O15391   3.857   2.501   1.071 -0.6814 -0.2781 -0.0313
 3668WAT     H115392   3.852   2.429   1.121 -1.2331 -0.5213 -0.4226
 3668WAT     H215393   3.873   2.565   1.128 -0.2815 -0.6963  0.3363
 3668WAT    EPW15394   3.858   2.500   1.087 -0.7038 -0.3758 -0.0348
 3669WAT      O15395   1.657   4.880   5.984 -0.0261  0.0610  0.0305
 3669WAT     H115396   1.651   4.802   5.945 -0.5555  0.0103  0.2149
 3669WAT     H215397   1.742   4.900   5.975  0.2174 -0.7430  0.3675
 3669WAT    EPW15398   1.669   4.871   5.977 -0.0683 -0.0653  0.1075
 3670WAT      O15399   0.378   4.054   3.749  0.3671 -0.5686 -0.1020
 3670WAT     H115400   0.354   4.058   3.832 -0.3930  1.2134 -0.3481
 3670WAT     H215401   0.441   3.994   3.748  0.6466 -0.3635  1.8150
 3670WAT    EPW15402   0.384   4.046   3.761  0.2961 -0.2751  0.1448
 3671WAT      O15403   6.190   4.039   0.390 -0.2225  0.0770 -0.0967
 3671WAT     H115404   6.277   4.045   0.380 -0.1756  0.7397  0.6332
 3671WAT     H215405   6.167   4.119   0.416 -1.1079  0.0002 -0.6301
 3671WAT    EPW15406   6.200   4.051   0.393 -0.3464  0.1635 -0.0676
 3672WAT      O15407   4.665   0.716   6.883 -0.2161 -0.2170 -0.1497
 3672WAT     H115408   4.722   0.696   6.946 -1.8304  0.3856  1.5915
 3672WAT     H215409   4.652   0.640   6.842  2.6650 -0.1438 -1.4019
 3672WAT    EPW15410   4.671   0.702   6.886 -0.0289 -0.1172 -0.0774
 3673WAT      O15411   7.089   3.391   3.743  0.0545  0.3128  0.0701
 3673WAT     H115412   7.024   3.408   3.798 -0.2157  0.2598 -0.2340
 3673WAT     H215413   7.058   3.326   3.693  0.3427  0.2762 -0.0668
 3673WAT    EPW15414   7.075   3.384   3.744  0.0571  0.2996  0.0050
 3674WAT      O15415   1.658   2.061   0.287  0.4589 -0.2580 -0.1288
 3674WAT     H115416   1.673   2.130   0.236  1.1173  0.0439  0.4433
 3674WAT     H215417   1.651   2.097   0.367  2.1947 -0.9519  0.3895
 3674WAT    EPW15418   1.659   2.077   0.291  0.8126 -0.3159  0.0323
 3675WAT      O15419   3.016   3.567   1.707  0.3068 -0.4139 -0.4687
 3675WAT     H115420   3.006   3.499   1.652 -0.1328 -0.3390 -0.4829
 3675WAT     H215421   2.949   3.559   1.762 -0.3608  0.6141 -1.1108
 3675WAT    EPW15422   3.005   3.556   1.707  0.1433 -0.2510 -0.5657
 3676WAT      O15423   6.029   1.958   1.472 -0.1450  0.2027  0.4845
 3676WAT     H115424   6.107   1.936   1.440 -1.9067 -3.4763 -2.0619
 3676WAT     H215425   6.047   2.014   1.536  4.4309  0.4964 -0.7550
 3676WAT    EPW15426   6.043   1.963   1.477  0.2707 -0.2974 -0.0747
 3677WAT      O15427   5.495   5.983   3.614 -0.3222  0.5466  0.3171
 3677WAT     H115428   5.435   5.985   3.677  2.0359 -1.8346  2.9518
 3677WAT     H215429   5.540   6.056   3.626 -1.0597  1.0544  0.0587
 3677WAT    EPW15430   5.493   5.994   3.625 -0.0828  0.2699  0.6682
 3678WAT      O15431   4.303   2.903   0.014  0.2319  0.5337 -0.3720
 3678WAT     H115432   4.354   2.936  -0.048  1.2353 -1.3394 -0.5848
 3678WAT     H215433   4.311   2.817   0.005 -2.1701  0.1628  0.2715
 3678WAT    EPW15434   4.312   2.895   0.004  0.0253  0.2022 -0.3084
 3679WAT      O15435   4.446   0.450   5.551  0.0699 -0.1650 -0.0631
 3679WAT     H115436   4.379   0.478   5.598 -0.1200  1.4173 -1.1791
 3679WAT     H215437   4.489   0.524   5.532  1.2573 -0.9836 -0.6550
 3679WAT    EPW15438   4.443   0.465   5.555  0.2172 -0.0522 -0.3154
 3680WAT      O15439   0.946   5.166   2.472  0.0409 -0.0049 -0.1456
 3680WAT     H115440   1.023   5.125   2.463 -0.2292 -1.0896  1.7929
 3680WAT     H215441   0.961   5.227   2.532 -0.3410  0.5994 -0.6479
 3680WAT    EPW15442   0.959   5.169   2.479 -0.0554 -0.0759  0.0666
 3681WAT      O15443   0.643   6.805   1.624 -0.6346 -0.0007 -0.4858
 3681WAT     H115444   0.614   6.737   1.670 -0.1649  0.3541  0.3407
 3681WAT     H215445   0.716   6.775   1.587  0.1147  0.3445  0.6757
 3681WAT    EPW15446   0.650   6.790   1.625 -0.4545  0.1027 -0.1921
 3682WAT      O15447   3.527   6.344   5.515  0.1657 -0.1036  0.7369
 3682WAT     H115448   3.609   6.325   5.540 -0.0830 -0.0859  1.6034
 3682WAT     H215449   3.527   6.326   5.430  1.5658  1.5393  0.3366
 3682WAT    EPW15450   3.539   6.339   5.506  0.3358  0.1417  0.8057
 3683WAT      O15451   3.619   2.140   4.310 -0.1952  0.2573  0.0159
 3683WAT     H115452   3.639   2.146   4.395 -0.8314  0.8001  0.1336
 3683WAT     H215453   3.695   2.158   4.271  0.3266 -0.9001  0.4600
 3683WAT    EPW15454   3.633   2.144   4.317 -0.2121  0.1665  0.0989
 3684WAT      O15455   4.751   3.581   4.097  0.4029 -0.0573  0.3067
 3684WAT     H115456   4.719   3.662   4.097 -0.0292 -0.1586 -1.8586
 3684WAT     H215457   4.833   3.592   4.069  0.4471 -0.3276  0.3285
 3684WAT    EPW15458   4.759   3.594   4.093  0.3456 -0.1122 -0.0099
 3685WAT      O15459   0.691   5.468   0.196  0.2539 -0.1511 -0.0686
 3685WAT     H115460   0.644   5.526   0.239 -0.5381 -0.3372 -0.6462
 3685WAT     H215461   0.642   5.396   0.199  1.3424 -0.8839  0.8762
 3685WAT    EPW15462   0.677   5.466   0.202  0.2977 -0.2868 -0.0144
 3686WAT      O15463   4.522   4.962   4.876  0.2269 -0.1259 -0.8426
 3686WAT     H115464   4.594   4.930   4.840  0.4008 -0.4347 -0.2415
 3686WAT     H215465   4.530   4.940   4.960  0.6482  2.0248 -0.2609
 3686WAT    EPW15466   4.533   4.954   4.883  0.3148  0.1462 -0.6679
 3687WAT      O15467   1.762   5.896   3.994 -0.0594  0.4219 -0.1205
 3687WAT     H115468   1.677   5.891   3.977  0.1580 -0.2821 -1.0462
 3687WAT     H215469   1.765   5.945   4.066 -1.2742  0.0395  0.2144
 3687WAT    EPW15470   1.750   5.903   4.002 -0.2068  0.2614 -0.2078
 3688WAT      O15471   0.774   4.920   6.199 -0.3776  0.0271  0.2262
 3688WAT     H115472   0.805   4.943   6.121 -0.4481  1.6752  0.6561
 3688WAT     H215473   0.720   4.854   6.181 -0.7229  0.6641 -1.1697
 3688WAT    EPW15474   0.771   4.913   6.185 -0.4390  0.3647  0.0835
 3689WAT      O15475   6.051   2.792   0.640 -0.0133 -0.2970 -0.2901
 3689WAT     H115476   6.048   2.796   0.727  2.5399 -2.1278  0.0167
 3689WAT     H215477   6.029   2.710   0.622  1.2808 -0.4960 -1.1515
 3689WAT    EPW15478   6.048   2.781   0.650  0.5550 -0.5969 -0.3720
 3690WAT      O15479   2.588   2.777   5.155 -0.1977 -0.3271  0.3162
 3690WAT     H115480   2.587   2.856   5.118  4.0625 -0.9249 -1.6514
 3690WAT     H215481   2.578   2.722   5.087  0.5214 -1.4707  1.1046
 3690WAT    EPW15482   2.586   2.781   5.139  0.5379 -0.5843  0.1420
 3691WAT      O15483   0.335   6.702   5.265  0.5442  0.1193  0.8566
 3691WAT     H115484   0.303   6.781   5.284 -1.5598 -0.3950 -0.3691
 3691WAT     H215485   0.281   6.647   5.306 -0.6625 -0.7885 -1.7582
 3691WAT    EPW15486   0.323   6.705   5.274  0.0551 -0.0908  0.2893
 3692WAT      O15487   0.247   5.851   2.136  0.1067 -0.2640  0.0138
 3692WAT     H115488   0.250   5.765   2.124  2.0182 -0.0455 -1.8507
 3692WAT     H215489   0.165   5.872   2.115 -0.8449 -1.7290  1.9618
 3692WAT    EPW15490   0.236   5.842   2.131  0.2485 -0.4481  0.0261
 3693WAT      O15491   1.575   0.748   0.549  0.2219 -0.4607 -0.3855
 3693WAT     H115492   1.565   0.662   0.546  1.0340 -0.6181  0.8261
 3693WAT     H215493   1.495   0.777   0.568  0.0180 -0.9638 -0.4599
 3693WAT    EPW15494   1.562   0.740   0.551  0.3117 -0.5582 -0.2175
 3694WAT      O15495   4.409   2.351   6.783  0.2612 -0.3213 -0.0121
 3694WAT     H115496   4.357   2.407   6.825  3.2753  1.1610  2.1019
 3694WAT     H215497   4.450   2.401   6.725  1.4942 -0.7344  0.4728
 3694WAT    EPW15498   4.407   2.367   6.781  0.8886 -0.1634  0.3719
 3695WAT      O15499   5.964   3.172   3.370 -0.0314 -0.2433 -0.1782
 3695WAT     H115500   6.035   3.149   3.326  0.2707 -0.5151  0.4346
 3695WAT     H215501   5.989   3.244   3.412 -0.3769  0.1234 -0.5948
 3695WAT    EPW15502   5.978   3.179   3.370 -0.0378 -0.2293 -0.1492
 3696WAT      O15503   2.195   5.456   0.209  0.0385 -0.0013  0.2159
 3696WAT     H115504   2.195   5.431   0.292  0.6472 -0.4949  0.0737
 3696WAT     H215505   2.229   5.536   0.211 -1.5515  0.7083  0.6292
 3696WAT    EPW15506   2.200   5.464   0.221 -0.1065  0.0306  0.2559
 3697WAT      O15507   1.143   5.739   5.328  0.1017  0.0173 -0.8881
 3697WAT     H115508   1.192   5.790   5.277  0.6161 -0.3793 -0.7981
 3697WAT     H215509   1.062   5.757   5.302  0.3231  0.2352 -1.4637
 3697WAT    EPW15510   1.138   5.749   5.316  0.2104 -0.0091 -0.9598
 3698WAT      O15511   0.934   0.145   4.382 -0.3386 -0.6295  0.4222
 3698WAT     H115512   1.004   0.094   4.388  2.5184  3.0411  2.5041
 3698WAT     H215513   0.942   0.182   4.304  1.2891  1.1221  1.3326
 3698WAT    EPW15514   0.945   0.143   4.372  0.3239  0.1715  0.8643
 3699WAT      O15515   2.088   4.317   2.505  0.3281 -0.2056  0.0721
 3699WAT     H115516   2.162   4.315   2.551  0.6535 -0.7664 -0.4678
 3699WAT     H215517   2.083   4.238   2.469 -0.7685 -0.3325  0.4485
 3699WAT    EPW15518   2.098   4.305   2.506  0.2141 -0.3072  0.0480
 3700WAT      O15519   1.537   6.296   5.791  0.7073  0.7237  0.0044
 3700WAT     H115520   1.615   6.259   5.780  0.6159  0.5253  0.0222
 3700WAT     H215521   1.484   6.249   5.739  0.6418  0.9959 -0.1759
 3700WAT    EPW15522   1.541   6.283   5.782  0.6841  0.7346 -0.0196
 3701WAT      O15523   5.631   6.229   3.618  0.2211 -0.0614 -0.0007
 3701WAT     H115524   5.628   6.263   3.537  0.9299 -0.7478 -0.3293
 3701WAT     H215525   5.717   6.229   3.636  0.2859 -1.9616 -0.1505
 3701WAT    EPW15526   5.644   6.234   3.609  0.3354 -0.4435 -0.0714
 3702WAT      O15527   0.172   0.250   6.097 -0.2123 -0.4498 -0.5769
 3702WAT     H115528   0.137   0.213   6.026  1.8137 -3.0459 -0.4062
 3702WAT     H215529   0.247   0.285   6.067 -0.3080  0.2170 -0.0516
 3702WAT    EPW15530   0.178   0.250   6.082  0.0728 -0.7348 -0.4741
 3703WAT      O15531   4.539   5.835   2.777 -0.0601 -0.2599  0.2410
 3703WAT     H115532   4.461   5.821   2.812 -1.0297  0.3815 -1.5543
 3703WAT     H215533   4.538   5.786   2.704  1.0395  0.1025 -0.0412
 3703WAT    EPW15534   4.527   5.826   2.771 -0.0409 -0.1116 -0.0659
 3704WAT      O15535   0.022   1.749   7.386  0.3746 -0.3872  0.5198
 3704WAT     H115536   0.028   1.686   7.326  1.3586  0.8348 -0.7401
 3704WAT     H215537   0.105   1.767   7.406  0.1763  1.1226  0.1471
 3704WAT    EPW15538   0.035   1.743   7.380  0.4907  0.0163  0.2786
 3705WAT      O15539   4.084   2.467   4.757  0.5348  0.3740  0.1516
 3705WAT     H115540   4.140   2.427   4.810  1.1574  0.8616 -0.1266
 3705WAT     H215541   4.135   2.517   4.707 -0.1193  0.5833 -0.3206
 3705WAT    EPW15542   4.100   2.468   4.757  0.5301  0.4769  0.0408
 3706WAT      O15543   5.137   5.932   3.270 -0.1650  0.0461  0.3605
 3706WAT     H115544   5.223   5.947   3.270 -0.2897  0.8495 -0.4021
 3706WAT     H215545   5.131   5.845   3.272  0.6720 -0.0312 -0.2471
 3706WAT    EPW15546   5.149   5.921   3.271 -0.0598  0.1534  0.1581
 3707WAT      O15547   2.087   5.396   1.168 -0.4862 -0.3828  0.1727
 3707WAT     H115548   2.030   5.347   1.213 -1.3835  0.1017 -0.4022
 3707WAT     H215549   2.142   5.338   1.134 -0.1652 -0.8077  1.3682
 3707WAT    EPW15550   2.087   5.381   1.170 -0.5713 -0.3740  0.2644
 3708WAT      O15551   3.438   3.321   1.917  0.1372 -0.7974  0.2143
 3708WAT     H115552   3.434   3.312   2.004  1.8360 -1.3019  0.2905
 3708WAT     H215553   3.454   3.240   1.889  0.1528 -0.5448 -0.5254
 3708WAT    EPW15554   3.440   3.307   1.926  0.3905 -0.8346  0.1163
 3709WAT      O15555   7.021   3.920   3.384 -0.2645 -0.6235 -0.9647
 3709WAT     H115556   6.986   3.919   3.464  2.4192  0.8564  0.3620
 3709WAT     H215557   6.974   3.981   3.342  0.3133  1.0339  0.6308
 3709WAT    EPW15558   7.009   3.929   3.390  0.2173 -0.1601 -0.5330
 3710WAT      O15559   1.274   1.180   0.874  1.0013 -0.1305 -0.3842
 3710WAT     H115560   1.313   1.240   0.824  0.3093  0.5375 -0.1479
 3710WAT     H215561   1.191   1.207   0.876  0.1235 -2.3007 -2.1420
 3710WAT    EPW15562   1.267   1.192   0.867  0.7694 -0.3524 -0.6089
 3711WAT      O15563   4.423   3.843   7.284 -0.0339  0.1982  0.3074
 3711WAT     H115564   4.418   3.910   7.341  1.0974 -0.0514  0.7316
 3711WAT     H215565   4.503   3.811   7.298  1.3844  1.7345 -3.2220
 3711WAT    EPW15566   4.434   3.848   7.294  0.3427  0.3883 -0.1513
 3712WAT      O15567   4.646   2.044   1.573  0.2400  0.0511 -0.3863
 3712WAT     H115568   4.655   2.094   1.502 -0.0640  0.6056 -0.0406
 3712WAT     H215569   4.666   2.098   1.639  1.5763 -0.7486 -0.0995
 3712WAT    EPW15570   4.650   2.059   1.572  0.3925  0.0148 -0.2929
 3713WAT      O15571   0.792   0.784   3.715  0.0386  0.0083  0.4856
 3713WAT     H115572   0.758   0.714   3.754 -0.9301 -0.1753 -0.6391
 3713WAT     H215573   0.792   0.762   3.630  1.4208  0.6640  0.2914
 3713WAT    EPW15574   0.787   0.771   3.708  0.0997  0.0780  0.2908
 3714WAT      O15575   6.612   2.243   3.201  0.4476 -0.0334 -0.2312
 3714WAT     H115576   6.662   2.295   3.249 -0.8622  1.3424 -0.2934
 3714WAT     H215577   6.651   2.165   3.207  1.2848  0.4921  1.5784
 3714WAT    EPW15578   6.625   2.239   3.209  0.3778  0.2474  0.0269
 3715WAT      O15579   5.479   4.000   2.259  0.0012  0.4341  0.7224
 3715WAT     H115580   5.523   3.999   2.335 -0.2767  2.1951  0.9434
 3715WAT     H215581   5.431   4.073   2.264 -1.0558 -0.1369 -0.5862
 3715WAT    EPW15582   5.479   4.011   2.271 -0.1960  0.6099  0.5618
 3716WAT      O15583   4.365   1.990   1.430  0.5942 -0.8047  0.3313
 3716WAT     H115584   4.428   2.003   1.489  0.7746 -0.4022  0.0595
 3716WAT     H215585   4.408   1.998   1.354  0.2577 -0.7519  0.1474
 3716WAT    EPW15586   4.381   1.993   1.427  0.5711 -0.7375  0.2640
 3717WAT      O15587   5.443   0.989   4.691  0.0056 -0.0133  0.2796
 3717WAT     H115588   5.471   0.945   4.761  0.3009 -0.1750  0.0650
 3717WAT     H215589   5.378   0.939   4.660  0.5495 -0.4765 -0.1474
 3717WAT    EPW15590   5.438   0.975   4.696  0.1296 -0.1056  0.1848
 3718WAT      O15591   3.391   2.596   2.461 -0.0163 -0.2651 -0.4380
 3718WAT     H115592   3.304   2.593   2.467 -0.1351  1.0384 -1.2579
 3718WAT     H215593   3.415   2.630   2.538 -0.0613 -2.1767  0.4956
 3718WAT    EPW15594   3.382   2.601   2.473 -0.0405 -0.3549 -0.4212
 3719WAT      O15595   6.281   2.506   1.498 -0.4995 -0.2471  0.4489
 3719WAT     H115596   6.337   2.448   1.466  0.7966  1.0545  0.2763
 3719WAT     H215597   6.265   2.478   1.579 -0.8046 -1.4543 -0.0151
 3719WAT    EPW15598   6.287   2.494   1.505 -0.3531 -0.2332  0.3548
 3720WAT      O15599   0.300   0.419   5.676  0.1505 -0.1711 -0.0433
 3720WAT     H115600   0.340   0.442   5.602 -0.1198 -0.2122 -0.2036
 3720WAT     H215601   0.216   0.434   5.660 -0.0337 -1.2025 -0.1442
 3720WAT    EPW15602   0.294   0.424   5.663  0.0833 -0.3295 -0.0819
 3721WAT      O15603   5.326   3.454   4.374 -0.2785  0.1133  0.6969
 3721WAT     H115604   5.385   3.410   4.421 -1.0989 -1.8482  0.0045
 3721WAT     H215605   5.279   3.497   4.433  0.3181 -0.2300  1.4287
 3721WAT    EPW15606   5.328   3.454   4.389 -0.3116 -0.2272  0.7027
 3722WAT      O15607   5.245   6.521   0.650  0.2452 -0.1643  0.4423
 3722WAT     H115608   5.255   6.449   0.699  1.7520 -0.0052  0.3881
 3722WAT     H215609   5.227   6.583   0.709  1.3797 -0.1125  0.7611
 3722WAT    EPW15610   5.244   6.519   0.666  0.6354 -0.1331  0.4814
 3723WAT      O15611   2.922   2.127   6.691  0.4977  0.4400  0.5738
 3723WAT     H115612   2.988   2.100   6.741  1.5125  0.0434 -0.9365
 3723WAT     H215613   2.959   2.144   6.614 -1.1276  0.3613 -0.2785
 3723WAT    EPW15614   2.937   2.126   6.687  0.4075  0.3698  0.2248
 3724WAT      O15615   3.770   7.050   4.751  0.8554 -0.7182 -0.3280
 3724WAT     H115616   3.832   7.075   4.807  0.7650 -1.2267  0.0077
 3724WAT     H215617   3.806   7.066   4.673  1.3376 -0.8237 -0.1341
 3724WAT    EPW15618   3.785   7.056   4.748  0.9133 -0.8089 -0.2497
 3725WAT      O15619   6.257   6.508   5.723 -0.5107 -0.1907  0.2041
 3725WAT     H115620   6.181   6.523   5.682 -1.3499 -0.4980  1.5760
 3725WAT     H215621   6.280   6.429   5.694 -0.0739  0.3959 -1.1253
 3725WAT    EPW15622   6.249   6.498   5.713 -0.5701 -0.1494  0.2103
 3726WAT      O15623   6.748   0.121   3.088 -0.2065 -0.0082 -0.6062
 3726WAT     H115624   6.790   0.045   3.084  1.3518  0.7121  0.6423
 3726WAT     H215625   6.724   0.127   3.172 -0.6448  0.7126 -0.7670
 3726WAT    EPW15626   6.750   0.111   3.100 -0.0411  0.2047 -0.4455
 3727WAT      O15627   6.899   2.716   1.683  0.0227  0.1708 -0.5735
 3727WAT     H115628   6.972   2.671   1.667 -0.4559 -0.4773 -0.9371
 3727WAT     H215629   6.868   2.735   1.604 -0.1064  0.6258 -0.4204
 3727WAT    EPW15630   6.905   2.712   1.669 -0.0671  0.1423 -0.6046
 3728WAT      O15631   7.000   3.191   1.464 -0.4310 -0.0313  0.4732
 3728WAT     H115632   7.034   3.239   1.528 -0.6074 -0.1135  0.6299
 3728WAT     H215633   7.069   3.146   1.433 -0.4103 -0.2555  0.8393
 3728WAT    EPW15634   7.016   3.191   1.469 -0.4540 -0.0765  0.5504
 3729WAT      O15635   6.528   6.422   6.146  0.0081  0.5311  0.2740
 3729WAT     H115636   6.478   6.493   6.156  1.0338  1.4006 -0.5483
 3729WAT     H215637   6.587   6.430   6.210 -0.4986 -0.1498  0.8380
 3729WAT    EPW15638   6.530   6.433   6.157  0.0848  0.5590  0.2358
 3730WAT      O15639   3.225   2.034   5.529 -0.3301  0.2007  0.1981
 3730WAT     H115640   3.146   2.054   5.499 -0.2542  1.3496  0.7377
 3730WAT     H215641   3.210   2.003   5.609 -0.3090 -0.5580 -0.0787
 3730WAT    EPW15642   3.211   2.032   5.536 -0.3158  0.2584  0.2369
 3731WAT      O15643   5.252   3.358   3.834  0.0116  0.2058 -0.2390
 3731WAT     H115644   5.302   3.302   3.879 -0.0117  1.1418  1.0035
 3731WAT     H215645   5.302   3.430   3.829 -0.1369  0.2496 -1.4127
 3731WAT    EPW15646   5.267   3.360   3.840 -0.0138  0.3506 -0.2289
 3732WAT      O15647   0.054   3.743   0.343  0.6992 -0.3654 -0.0205
 3732WAT     H115648   0.108   3.679   0.368 -1.4647 -1.7029  1.5838
 3732WAT     H215649   0.064   3.804   0.404  0.2441 -0.7306  0.4305
 3732WAT    EPW15650   0.063   3.742   0.355  0.3123 -0.6169  0.2831
 3733WAT      O15651   6.654   2.031   1.573  0.4848  0.2368 -0.0661
 3733WAT     H115652   6.690   1.964   1.614  1.2545  0.7311  0.0863
 3733WAT     H215653   6.645   2.002   1.491  1.7922  0.3087 -0.2430
 3733WAT    EPW15654   6.658   2.017   1.567  0.7916  0.3204 -0.0697
 3734WAT      O15655   0.789   2.307   1.271 -0.2064 -0.1668  0.0261
 3734WAT     H115656   0.821   2.370   1.220 -0.7467  1.0544  1.1268
 3734WAT     H215657   0.860   2.274   1.310  0.0932 -0.3380 -0.6488
 3734WAT    EPW15658   0.804   2.311   1.269 -0.2420 -0.0117  0.0890
 3735WAT      O15659   5.701   2.409   0.488  0.3935 -0.1253 -0.1807
 3735WAT     H115660   5.674   2.485   0.521  1.8166  0.3355 -0.0151
 3735WAT     H215661   5.749   2.375   0.553  1.1175 -0.3955 -0.8445
 3735WAT    EPW15662   5.704   2.415   0.503  0.7107 -0.0971 -0.2543
 3736WAT      O15663   3.864   3.263   5.793  0.0359  0.2054  0.0817
 3736WAT     H115664   3.786   3.274   5.757 -0.6020 -0.7073  1.1203
 3736WAT     H215665   3.863   3.180   5.820  1.2790  0.2378  0.3110
 3736WAT    EPW15666   3.853   3.252   5.792  0.1253  0.0753  0.2690
 3737WAT      O15667   2.231   2.672   4.096 -0.2317  0.0229  0.6273
 3737WAT     H115668   2.296   2.696   4.042  0.3088 -0.9615  0.8329
 3737WAT     H215669   2.256   2.705   4.173 -0.3470  0.2780  0.5578
 3737WAT    EPW15670   2.244   2.681   4.099 -0.1689 -0.0849  0.6474
 3738WAT      O15671   3.181   2.929   2.383  0.1217 -0.0468  0.3552
 3738WAT     H115672   3.162   3.009   2.355 -1.1322 -0.8678 -1.3710
 3738WAT     H215673   3.253   2.940   2.431  0.2602  2.0233 -0.2334
 3738WAT    EPW15674   3.189   2.942   2.386 -0.0431  0.1378  0.0133
 3739WAT      O15675   3.572   5.230   3.100  0.1805 -0.8587 -0.1884
 3739WAT     H115676   3.532   5.161   3.135 -0.7992  0.1712  0.8002
 3739WAT     H215677   3.656   5.216   3.118 -0.1497 -1.0898  1.2994
 3739WAT    EPW15678   3.578   5.217   3.108 -0.0130 -0.7407  0.1774
 3740WAT      O15679   2.811   0.793   3.780 -0.6100  0.1149 -0.2362
 3740WAT     H115680   2.869   0.771   3.842 -1.5901  1.0977  1.0889
 3740WAT     H215681   2.762   0.854   3.819 -2.7290 -0.8785 -1.1764
 3740WAT    EPW15682   2.812   0.799   3.795 -1.0678  0.1133 -0.1793
 3741WAT      O15683   6.680   5.778   4.726 -0.6153 -0.0361  0.2923
 3741WAT     H115684   6.606   5.824   4.733 -0.1581  0.9416 -0.7989
 3741WAT     H215685   6.656   5.697   4.746 -1.2865  0.7603  3.1302
 3741WAT    EPW15686   6.666   5.773   4.730 -0.6469  0.2259  0.5503
 3742WAT      O15687   4.050   4.121   2.110 -0.1608 -0.0532 -0.1173
 3742WAT     H115688   4.064   4.192   2.063  1.5480  0.1470  0.6224
 3742WAT     H215689   4.092   4.058   2.066 -0.3965 -0.3078  0.0150
 3742WAT    EPW15690   4.058   4.122   2.097  0.0568 -0.0612  0.0115
 3743WAT      O15691   7.253   5.710   1.284 -0.1696 -0.5318  0.4010
 3743WAT     H115692   7.256   5.736   1.201  0.6094 -1.9789 -0.0730
 3743WAT     H215693   7.171   5.729   1.309  0.2177  1.9430  0.0518
 3743WAT    EPW15694   7.241   5.716   1.276  0.0027 -0.3800  0.2794
 3744WAT      O15695   2.718   5.762   5.155  0.1096 -0.2595 -0.4867
 3744WAT     H115696   2.762   5.720   5.218  0.3203 -0.2198 -0.6034
 3744WAT     H215697   2.766   5.746   5.084 -0.1118 -0.2804 -0.6312
 3744WAT    EPW15698   2.732   5.753   5.154  0.1080 -0.2567 -0.5253
 3745WAT      O15699   0.423   2.601   6.065 -0.1646 -0.8106 -0.5545
 3745WAT     H115700   0.338   2.581   6.071 -0.4292  0.3249 -0.0453
 3745WAT     H215701   0.436   2.651   6.136  0.8662 -0.7567 -0.7717
 3745WAT    EPW15702   0.412   2.606   6.077 -0.0514 -0.6349 -0.5113
 3746WAT      O15703   6.988   0.170   5.635  0.4373 -0.1543  0.1347
 3746WAT     H115704   6.998   0.246   5.676  1.8860 -0.6564  0.7778
 3746WAT     H215705   6.959   0.116   5.697  1.6509 -0.6663  0.2971
 3746WAT    EPW15706   6.985   0.173   5.650  0.8306 -0.3041  0.2537
 3747WAT      O15707   2.208   3.771   5.590 -0.6030 -0.0463 -0.0025
 3747WAT     H115708   2.293   3.780   5.608 -1.0391  2.3733  1.1650
 3747WAT     H215709   2.187   3.694   5.626  1.3315 -1.3913 -1.5254
 3747WAT    EPW15710   2.218   3.761   5.598 -0.3817  0.1124 -0.0550
 3748WAT      O15711   1.169   4.954   5.060 -0.0878  0.3513  0.4522
 3748WAT     H115712   1.179   4.905   4.988  2.0627  0.7554  0.4145
 3748WAT     H215713   1.249   4.958   5.093 -0.5086  2.5151  1.3482
 3748WAT    EPW15714   1.182   4.947   5.054  0.1677  0.7306  0.5790
 3749WAT      O15715   6.342   7.154   6.443  0.7867  0.1104  0.4376
 3749WAT     H115716   6.290   7.086   6.461 -0.4434  0.9905  0.4115
 3749WAT     H215717   6.348   7.153   6.356  1.0860 -0.1808  0.4605
 3749WAT    EPW15718   6.335   7.144   6.433  0.6492  0.1974  0.4371
 3750WAT      O15719   4.545   4.486   1.450  0.0774  0.4557 -0.3066
 3750WAT     H115720   4.460   4.486   1.470 -0.4741  2.5179 -2.3344
 3750WAT     H215721   4.562   4.401   1.435 -0.9067 -0.3707  2.5649
 3750WAT    EPW15722   4.535   4.473   1.451 -0.1494  0.6382 -0.1820
 3751WAT      O15723   5.089   1.914   2.563 -0.0376 -0.0702  0.2803
 3751WAT     H115724   5.146   1.976   2.584 -0.0922  0.1441 -0.2005
 3751WAT     H215725   5.064   1.882   2.640  0.1791  0.3347  0.5197
 3751WAT    EPW15726   5.094   1.918   2.578 -0.0137  0.0213  0.2447
 3752WAT      O15727   6.779   3.316   2.269  0.6847 -0.1989  0.1151
 3752WAT     H115728   6.842   3.259   2.252  0.6304  0.0300 -0.9478
 3752WAT     H215729   6.775   3.365   2.197 -0.9479 -0.4309 -0.0010
 3752WAT    EPW15730   6.788   3.315   2.256  0.4355 -0.1994 -0.0590
 3753WAT      O15731   3.275   0.672   0.549 -0.1866 -0.2412  0.1725
 3753WAT     H115732   3.296   0.737   0.603 -0.9645 -0.2647  0.5154
 3753WAT     H215733   3.192   0.655   0.568 -0.0574 -1.1988 -0.0600
 3753WAT    EPW15734   3.266   0.679   0.559 -0.2824 -0.3861  0.1888
 3754WAT      O15735   1.588   4.837   0.996  0.0963  0.2222  0.5535
 3754WAT     H115736   1.601   4.759   0.958 -2.2103  0.1801 -0.3003
 3754WAT     H215737   1.666   4.876   0.990  0.8777 -1.3917 -0.4639
 3754WAT    EPW15738   1.601   4.831   0.990 -0.1290 -0.0225  0.2771
 3755WAT      O15739   1.490   6.208   2.588 -0.2318 -0.0160  0.0991
 3755WAT     H115740   1.477   6.142   2.532 -0.2453  0.7728 -0.8486
 3755WAT     H215741   1.572   6.196   2.615 -0.6158 -1.0842  0.8382
 3755WAT    EPW15742   1.500   6.197   2.584 -0.2905 -0.0573  0.0683
 3756WAT      O15743   4.328   0.848   5.775 -0.4232  0.2119 -0.3935
 3756WAT     H115744   4.362   0.893   5.709 -0.5354 -1.6776 -1.8302
 3756WAT     H215745   4.398   0.818   5.817 -0.3200 -0.2595 -0.8891
 3756WAT    EPW15746   4.343   0.850   5.771 -0.4245 -0.1368 -0.6789
 3757WAT      O15747   2.783   3.546   4.089  0.2134  0.2840  0.2874
 3757WAT     H115748   2.856   3.533   4.135 -0.4818 -0.3734  1.2385
 3757WAT     H215749   2.727   3.577   4.147 -1.1839 -2.0579  0.3347
 3757WAT    EPW15750   2.786   3.548   4.104 -0.0957 -0.1591  0.4349
 3758WAT      O15751   2.491   3.158   1.184 -0.0554 -0.1191  0.1783
 3758WAT     H115752   2.569   3.183   1.155  0.9303 -1.8725  1.1803
 3758WAT     H215753   2.440   3.168   1.114  1.4168 -0.5438 -1.0143
 3758WAT    EPW15754   2.495   3.163   1.170  0.3077 -0.4409  0.1501
 3759WAT      O15755   4.087   2.989   0.703  0.2439 -0.3483 -0.5975
 3759WAT     H115756   4.098   3.072   0.727  0.1265 -0.9608  1.9026
 3759WAT     H215757   4.001   2.977   0.710  0.2638 -0.7017 -0.9112
 3759WAT    EPW15758   4.076   2.999   0.708  0.2295 -0.4910 -0.2746
 3760WAT      O15759   1.999   7.162   3.350  0.4087 -0.3137  0.0904
 3760WAT     H115760   2.036   7.203   3.418  1.5973 -1.9067  0.4620
 3760WAT     H215761   1.923   7.133   3.383 -1.0960  2.5615 -0.5417
 3760WAT    EPW15762   1.993   7.164   3.365  0.3620 -0.1243  0.0519
 3761WAT      O15763   5.001   1.583   2.358 -0.7649  0.5900 -0.6752
 3761WAT     H115764   4.914   1.579   2.368 -0.5273 -0.2927  1.5768
 3761WAT     H215765   5.017   1.527   2.293 -1.6489 -1.7704  0.9916
 3761WAT    EPW15766   4.990   1.574   2.350 -0.8604  0.1109 -0.0963
 3762WAT      O15767   1.215   4.896   7.378  0.3664 -0.0644  0.0678
 3762WAT     H115768   1.168   4.900   7.304  0.2940  1.4429  0.1565
 3762WAT     H215769   1.162   4.932   7.438  1.1799  0.6089  0.4042
 3762WAT    EPW15770   1.200   4.902   7.376  0.4759  0.2578  0.1306
 3763WAT      O15771   6.692   0.466   0.433 -0.6136 -0.2345 -0.0223
 3763WAT     H115772   6.693   0.483   0.519 -0.2923 -2.5710  0.5173
 3763WAT     H215773   6.631   0.404   0.426 -0.2490 -0.4639 -1.4061
 3763WAT    EPW15774   6.683   0.459   0.445 -0.5123 -0.6135 -0.1470
 3764WAT      O15775   7.175   2.292   3.884 -0.5178 -0.3083 -0.3617
 3764WAT     H115776   7.114   2.348   3.912 -0.3479 -0.8154  1.1486
 3764WAT     H215777   7.177   2.232   3.947  2.7311  0.5633  0.5523
 3764WAT    EPW15778   7.166   2.291   3.898 -0.0128 -0.2545 -0.0036
 3765WAT      O15779   5.718   0.396   3.983  0.1590  0.6315 -0.1220
 3765WAT     H115780   5.704   0.464   4.036  0.2865 -0.7191  1.7451
 3765WAT     H215781   5.803   0.381   3.990  0.1271  0.2685 -0.4803
 3765WAT    EPW15782   5.728   0.404   3.992  0.1732  0.3783  0.1009
 3766WAT      O15783   6.298   4.069   7.105  0.1061 -0.5485 -0.0444
 3766WAT     H115784   6.340   3.996   7.080  0.3279 -0.0808 -1.1391
 3766WAT     H215785   6.215   4.052   7.087  0.3635  0.1807 -2.3696
 3766WAT    EPW15786   6.292   4.055   7.098  0.1769 -0.3717 -0.5496
 3767WAT      O15787   0.508   6.005   5.446 -0.1178  0.6649 -0.1787
 3767WAT     H115788   0.424   5.996   5.467 -0.1695  0.6404 -0.3942
 3767WAT     H215789   0.526   5.930   5.405  0.2258  0.3220  0.5880
 3767WAT    EPW15790   0.498   5.993   5.443 -0.0747  0.6106 -0.0973
 3768WAT      O15791   1.531   0.807   2.740 -0.6221  0.1970 -0.2392
 3768WAT     H115792   1.488   0.829   2.812  0.3618 -0.8772  0.7091
 3768WAT     H215793   1.600   0.762   2.769 -0.6853 -1.0748 -1.8852
 3768WAT    EPW15794   1.535   0.804   2.755 -0.4861 -0.1495 -0.3423
 3769WAT      O15795   4.805   3.788   4.603  0.1340  0.2370 -0.7086
 3769WAT     H115796   4.794   3.794   4.690 -1.5590  1.7245 -0.9598
 3769WAT     H215797   4.728   3.758   4.575 -0.2160  2.0722 -1.8643
 3769WAT    EPW15798   4.792   3.784   4.612 -0.1678  0.7278 -0.9164
 3770WAT      O15799   4.141   1.727   1.957  0.2140  0.4795  0.3550
 3770WAT     H115800   4.133   1.797   1.905  1.3026  0.7017  0.4745
 3770WAT     H215801   4.215   1.690   1.930 -0.0702 -0.3340  0.6604
 3770WAT    EPW15802   4.151   1.732   1.945  0.3328  0.3922  0.4178
 3771WAT      O15803   4.772   0.730   0.768  0.0472  1.0153 -0.0776
 3771WAT     H115804   4.834   0.787   0.791 -0.2407  1.1107  0.4916
 3771WAT     H215805   4.701   0.780   0.756 -0.5242  0.7018  1.5966
 3771WAT    EPW15806   4.770   0.746   0.770 -0.0797  0.9831  0.2538
 3772WAT      O15807   2.291   3.826   0.246 -0.1932 -0.2459  0.0525
 3772WAT     H115808   2.216   3.788   0.225 -0.2410 -1.3137  1.9427
 3772WAT     H215809   2.337   3.762   0.283  0.7072  0.9300  1.0679
 3772WAT    EPW15810   2.287   3.811   0.248 -0.0673 -0.2299  0.4817
 3773WAT      O15811   0.917   3.606   0.890 -0.0020 -0.1979 -0.2122
 3773WAT     H115812   0.905   3.691   0.875  0.1895 -0.3095 -1.0558
 3773WAT     H215813   0.839   3.578   0.916  0.2283  0.4720  1.3219
 3773WAT    EPW15814   0.904   3.614   0.892  0.0603 -0.1155 -0.1102
 3774WAT      O15815   0.159   2.262   3.584  0.2626 -0.0234 -0.0304
 3774WAT     H115816   0.244   2.282   3.588  0.0753  0.9164 -0.4954
 3774WAT     H215817   0.134   2.265   3.668  0.4793  0.7178  0.0193
 3774WAT    EPW15818   0.168   2.265   3.597  0.2669  0.2249 -0.0917
 3775WAT      O15819   6.753   6.329   7.352 -0.2193 -0.0826 -0.0460
 3775WAT     H115820   6.773   6.274   7.416  0.5795 -0.3024 -0.4786
 3775WAT     H215821   6.696   6.384   7.389  0.7676  0.2225  1.0602
 3775WAT    EPW15822   6.747   6.329   7.367  0.0445 -0.0700  0.0535
 3776WAT      O15823   7.045   3.218   4.939 -0.0579  0.4153  0.1378
 3776WAT     H115824   7.119   3.224   4.984 -0.4071  1.8863  0.5796
 3776WAT     H215825   6.993   3.278   4.975 -1.4687 -0.5420 -0.1872
 3776WAT    EPW15826   7.048   3.228   4.951 -0.3179  0.4912  0.1551
 3777WAT      O15827   0.872   6.690   1.502  0.2612  0.3933 -0.1157
 3777WAT     H115828   0.926   6.659   1.563 -0.9343  0.8269  1.2154
 3777WAT     H215829   0.906   6.767   1.480 -0.2945  1.1179  1.4357
 3777WAT    EPW15830   0.885   6.696   1.508  0.0025  0.5644  0.3101
 3778WAT      O15831   6.760   3.103   6.217  0.5720 -0.5157 -0.0440
 3778WAT     H115832   6.737   3.054   6.148 -0.8129  2.6170 -2.0473
 3778WAT     H215833   6.842   3.125   6.200  0.1616  0.4367 -0.9049
 3778WAT    EPW15834   6.768   3.099   6.204  0.3068  0.0878 -0.4671
 3779WAT      O15835   2.487   4.235   3.491  0.0143 -0.2421 -0.1335
 3779WAT     H115836   2.484   4.310   3.534 -1.4214 -0.6081  0.4630
 3779WAT     H215837   2.423   4.242   3.433 -1.0111 -1.4847  0.7926
 3779WAT    EPW15838   2.477   4.247   3.489 -0.3492 -0.4797  0.0915
 3780WAT      O15839   3.028   6.489   2.423  0.0009 -0.2974 -0.0639
 3780WAT     H115840   3.096   6.501   2.370  0.5469  1.0614  0.8738
 3780WAT     H215841   3.008   6.405   2.414  1.5099 -0.6077 -0.7067
 3780WAT    EPW15842   3.035   6.479   2.414  0.3045 -0.1425 -0.0203
 3781WAT      O15843   4.266   6.294   3.975  0.2205  0.3302 -0.4919
 3781WAT     H115844   4.260   6.378   3.952  0.0823  0.3478 -0.3988
 3781WAT     H215845   4.339   6.291   4.022  0.3042  0.3688 -0.6176
 3781WAT    EPW15846   4.276   6.306   3.979  0.2124  0.3385 -0.4967
 3782WAT      O15847   1.956   1.654   4.753  0.2665 -0.1973 -0.0587
 3782WAT     H115848   1.964   1.576   4.792  2.4812  0.7026  1.5361
 3782WAT     H215849   2.000   1.644   4.678 -0.5735 -0.8226 -0.4781
 3782WAT    EPW15850   1.964   1.641   4.748  0.4696 -0.1567  0.1149
 3783WAT      O15851   5.683   0.630   2.555 -0.1654 -0.4118  0.4547
 3783WAT     H115852   5.615   0.613   2.503 -1.3773  1.0770  1.4714
 3783WAT     H215853   5.661   0.591   2.630  0.8861 -1.2944  0.3216
 3783WAT    EPW15854   5.669   0.621   2.559 -0.1891 -0.3222  0.5852
 3784WAT      O15855   4.291   2.707   4.061 -0.3240  0.2808  0.3601
 3784WAT     H115856   4.346   2.760   4.019 -0.2461  0.1926  0.3506
 3784WAT     H215857   4.215   2.720   4.021 -0.3936  0.6878  0.6182
 3784WAT    EPW15858   4.288   2.717   4.049 -0.3228  0.3279  0.3969
 3785WAT      O15859   2.874   0.630   7.008 -0.5605  0.4826  0.1292
 3785WAT     H115860   2.856   0.547   7.030 -0.0957  0.5603  0.8251
 3785WAT     H215861   2.878   0.671   7.084 -0.9958  1.1992 -0.2244
 3785WAT    EPW15862   2.872   0.624   7.022 -0.5562  0.5999  0.1797
 3786WAT      O15863   5.481   3.432   2.593  0.3033  0.0002 -0.1235
 3786WAT     H115864   5.549   3.402   2.639 -0.5592 -0.2488  1.0248
 3786WAT     H215865   5.412   3.405   2.638 -0.5548  1.3517 -0.5680
 3786WAT    EPW15866   5.481   3.424   2.606  0.0492  0.1631 -0.0195
 3787WAT      O15867   3.163   6.650   4.049 -0.8901 -0.3422 -0.2205
 3787WAT     H115868   3.144   6.734   4.036 -1.5733 -0.6656 -1.4200
 3787WAT     H215869   3.095   6.620   4.095  0.7320  0.3988  2.9728
 3787WAT    EPW15870   3.150   6.658   4.054 -0.7514 -0.2805  0.0741
 3788WAT      O15871   7.153   3.077   0.348 -0.0938 -0.2092 -1.0026
 3788WAT     H115872   7.174   2.993   0.363  2.8035  0.5182 -0.5450
 3788WAT     H215873   7.193   3.095   0.273 -0.6209  0.8253 -1.0491
 3788WAT    EPW15874   7.162   3.067   0.339  0.2563  0.0511 -0.9419
 3789WAT      O15875   2.834   1.344   1.082 -0.3041  0.1951  0.2344
 3789WAT     H115876   2.775   1.284   1.059 -0.7049  0.5595  0.2860
 3789WAT     H215877   2.903   1.297   1.107  0.0297 -0.2259 -1.3603
 3789WAT    EPW15878   2.835   1.329   1.082 -0.3140  0.1868  0.0065
 3790WAT      O15879   6.372   2.937   6.874  0.0654 -0.3534  0.3901
 3790WAT     H115880   6.329   2.915   6.947  0.7886  0.3615  1.0601
 3790WAT     H215881   6.335   3.011   6.849  0.4902 -0.0566  0.6242
 3790WAT    EPW15882   6.360   2.944   6.881  0.2350 -0.2039  0.5236
 3791WAT      O15883   4.290   6.736   2.485 -0.2837  0.2111  0.7658
 3791WAT     H115884   4.239   6.791   2.529  0.9504  1.1109  1.1442
 3791WAT     H215885   4.338   6.789   2.434 -0.2701 -0.6612 -0.1504
 3791WAT    EPW15886   4.290   6.752   2.484 -0.0994  0.2151  0.6864
 3792WAT      O15887   6.657   2.939   6.813  0.3710 -0.7248 -0.2016
 3792WAT     H115888   6.582   2.938   6.857  0.5609 -1.4143  0.1265
 3792WAT     H215889   6.634   2.964   6.733 -0.4555 -2.4152 -0.5253
 3792WAT    EPW15890   6.643   2.943   6.808  0.2770 -1.0764 -0.2010
 3793WAT      O15891   2.754   6.609   1.365 -0.3708 -0.5118 -0.1016
 3793WAT     H115892   2.732   6.645   1.441  2.0659  0.5009  0.2133
 3793WAT     H215893   2.748   6.675   1.308 -2.9626 -1.4365 -1.0650
 3793WAT    EPW15894   2.750   6.624   1.367 -0.3937 -0.4988 -0.1974
 3794WAT      O15895   1.011   1.280   1.707 -0.3447  0.3567 -0.1858
 3794WAT     H115896   1.089   1.312   1.731 -0.0451  0.1291 -0.8331
 3794WAT     H215897   0.964   1.351   1.688 -0.4730  0.5230  0.7062
 3794WAT    EPW15898   1.016   1.295   1.708 -0.3194  0.3477 -0.1496
 3795WAT      O15899   6.442   1.416   6.433 -0.3544  0.1743 -0.1858
 3795WAT     H115900   6.360   1.408   6.405 -0.3177 -2.6821  0.1717
 3795WAT     H215901   6.484   1.351   6.392  1.1650  0.0941  1.3592
 3795WAT    EPW15902   6.436   1.405   6.423 -0.1246 -0.2595  0.0952
 3796WAT      O15903   2.312   2.706   4.350 -0.5011  0.6052 -0.6511
 3796WAT     H115904   2.274   2.689   4.426  0.1897 -1.7187 -0.7260
 3796WAT     H215905   2.330   2.791   4.354 -0.4032  0.5391  1.8106
 3796WAT    EPW15906   2.309   2.716   4.361 -0.3846  0.2522 -0.2985
 3797WAT      O15907   5.168   1.925   0.905 -0.0043 -0.1478  0.0864
 3797WAT     H115908   5.155   1.974   0.834 -0.6081  1.2126  1.0851
 3797WAT     H215909   5.095   1.937   0.951  0.3710 -1.0153  0.9376
 3797WAT    EPW15910   5.155   1.934   0.901 -0.0380 -0.0750  0.3597
 3798WAT      O15911   5.317   2.186   4.546  0.6590  0.0723 -0.0718
 3798WAT     H115912   5.401   2.172   4.565  0.6912  1.4627  0.9398
 3798WAT     H215913   5.318   2.262   4.504 -0.1326  0.3049  0.3144
 3798WAT    EPW15914   5.329   2.195   4.543  0.5468  0.3121  0.1347
 3799WAT      O15915   1.037   1.112   2.344 -0.2030  0.4328  0.4101
 3799WAT     H115916   1.060   1.029   2.359 -1.5694  0.0035  0.3005
 3799WAT     H215917   1.026   1.116   2.258  0.2418  0.8385  0.3692
 3799WAT    EPW15918   1.039   1.101   2.334 -0.3391  0.4293  0.3879
 3800WAT      O15919   2.376   1.120   5.489 -0.0841  0.5473 -0.5658
 3800WAT     H115920   2.420   1.101   5.417  0.1335  0.1056 -0.3195
 3800WAT     H215921   2.383   1.207   5.496  1.3772  0.4041 -0.1176
 3800WAT    EPW15922   2.383   1.130   5.479  0.1639  0.4609 -0.4632
 3801WAT      O15923   6.426   5.300   2.637 -0.5885 -0.1749 -0.3037
 3801WAT     H115924   6.477   5.239   2.602  1.1407  0.4984  0.8788
 3801WAT     H215925   6.345   5.267   2.629 -0.0970 -1.0564 -2.7382
 3801WAT    EPW15926   6.421   5.286   2.630 -0.2605 -0.2057 -0.4887
 3802WAT      O15927   2.032   5.775   4.212  0.2755 -0.3837  0.7510
 3802WAT     H115928   1.987   5.803   4.281  0.4789  1.1112  0.3282
 3802WAT     H215929   2.093   5.723   4.246 -0.5362 -0.8563  1.5289
 3802WAT    EPW15930   2.034   5.772   4.227  0.1856 -0.2327  0.8034
 3803WAT      O15931   3.624   2.426   1.783  0.0709 -0.0307 -0.1101
 3803WAT     H115932   3.660   2.354   1.816 -0.0536  0.6956  1.7294
 3803WAT     H215933   3.546   2.399   1.755 -0.7771 -0.3212  2.2996
 3803WAT    EPW15934   3.618   2.412   1.784 -0.0728  0.0337  0.5176
 3804WAT      O15935   7.209   0.764   5.374 -0.1621  0.2931  0.3097
 3804WAT     H115936   7.169   0.687   5.384 -0.8343  0.6543  0.5136
 3804WAT     H215937   7.193   0.784   5.290  0.4238 -0.0021  0.1195
 3804WAT    EPW15938   7.201   0.756   5.363 -0.1748  0.3029  0.3117
 3805WAT      O15939   0.814   3.328   1.799 -0.5736 -0.0639  0.2317
 3805WAT     H115940   0.849   3.361   1.726 -1.6773  0.5011 -0.0640
 3805WAT     H215941   0.775   3.255   1.771 -0.0536 -0.4406  0.4728
 3805WAT    EPW15942   0.813   3.322   1.784 -0.6599 -0.0361  0.2237
 3806WAT      O15943   5.569   6.188   1.496 -0.7460 -0.2009 -0.1542
 3806WAT     H115944   5.613   6.215   1.566  0.0733 -0.5059 -0.5280
 3806WAT     H215945   5.617   6.120   1.467 -0.8118  0.1986 -1.2653
 3806WAT    EPW15946   5.583   6.182   1.502 -0.6347 -0.1870 -0.3736
 3807WAT      O15947   5.485   0.465   1.994  0.2843  0.2338 -0.3453
 3807WAT     H115948   5.478   0.467   1.907  0.9401 -0.6903 -0.4273
 3807WAT     H215949   5.457   0.544   2.018 -0.9357  0.1334 -1.3091
 3807WAT    EPW15950   5.480   0.477   1.985  0.2010  0.0824 -0.4998
 3808WAT      O15951   4.840   5.644   3.233 -0.1076 -0.1257  0.0639
 3808WAT     H115952   4.876   5.656   3.155 -0.6397 -0.7094 -0.2783
 3808WAT     H215953   4.780   5.708   3.238 -0.9824 -0.8705 -0.5685
 3808WAT    EPW15954   4.836   5.656   3.222 -0.3154 -0.3220 -0.0800
 3809WAT      O15955   0.347   7.076   2.713 -0.3751  0.2116 -0.1144
 3809WAT     H115956   0.352   7.023   2.645 -1.1852  2.0756 -1.7173
 3809WAT     H215957   0.288   7.135   2.689  1.2295  2.4621  1.0659
 3809WAT    EPW15958   0.339   7.077   2.700 -0.2577  0.8194 -0.1769
 3810WAT      O15959   1.632   2.260   7.219 -0.0260 -0.3341  0.5688
 3810WAT     H115960   1.624   2.256   7.306 -1.8623 -2.9299  0.3799
 3810WAT     H215961   1.706   2.219   7.203  1.4858  2.0430  0.9238
 3810WAT    EPW15962   1.641   2.254   7.229 -0.0740 -0.3664  0.5933
 3811WAT      O15963   0.135   3.963   6.284 -0.0044  0.0607  0.0818
 3811WAT     H115964   0.066   3.973   6.231  0.0990 -0.1402 -0.0924
 3811WAT     H215965   0.169   4.043   6.289 -0.7021  0.3243  0.7948
 3811WAT    EPW15966   0.130   3.976   6.277 -0.0922  0.0700  0.1614
 3812WAT      O15967   0.245   1.468   2.634 -0.2008 -0.0473  0.1699
 3812WAT     H115968   0.289   1.484   2.561 -0.0204 -3.0452 -0.5088
 3812WAT     H215969   0.164   1.497   2.617 -0.3416 -1.3246 -1.5372
 3812WAT    EPW15970   0.239   1.475   2.621 -0.1950 -0.6789 -0.1826
 3813WAT      O15971   4.999   0.309   2.181 -0.3853  0.0606 -0.1094
 3813WAT     H115972   5.031   0.366   2.123 -2.1421  1.3354  0.0878
 3813WAT     H215973   4.984   0.237   2.133  1.9421 -0.3369 -0.3419
 3813WAT    EPW15974   5.001   0.307   2.165 -0.3010  0.1902 -0.1146
 3814WAT      O15975   1.840   5.878   3.717  0.5666 -0.0949  0.1964
 3814WAT     H115976   1.793   5.943   3.683 -1.1126 -0.5894  1.4038
 3814WAT     H215977   1.833   5.892   3.803  1.0073 -1.3122  0.4445
 3814WAT    EPW15978   1.832   5.890   3.725  0.3836 -0.3478  0.4114
 3815WAT      O15979   3.385   3.047   3.259 -0.1779  0.1091  0.2768
 3815WAT     H115980   3.354   3.051   3.340 -0.0543 -0.7465  0.3751
 3815WAT     H215981   3.467   3.077   3.267 -0.2859  0.3757  0.3977
 3815WAT    EPW15982   3.393   3.052   3.272 -0.1756  0.0221  0.3092
 3816WAT      O15983   1.514   4.723   3.923 -0.6939 -0.1753 -0.1999
 3816WAT     H115984   1.555   4.711   3.998 -0.4609 -1.4796 -0.5060
 3816WAT     H215985   1.552   4.794   3.889 -0.2990 -0.0166  0.5657
 3816WAT    EPW15986   1.525   4.732   3.929 -0.6012 -0.3446 -0.1320
 3817WAT      O15987   1.564   6.756   2.969 -0.7164 -0.1552 -0.5085
 3817WAT     H115988   1.520   6.684   2.946 -1.4926  0.1893 -0.1389
 3817WAT     H215989   1.634   6.724   3.010 -0.5660 -0.7166 -1.1795
 3817WAT    EPW15990   1.568   6.741   2.972 -0.8088 -0.1872 -0.5530
 3818WAT      O15991   4.265   5.481   0.314 -0.0461 -0.2696  0.0883
 3818WAT     H115992   4.191   5.527   0.316  0.7245  1.0077  0.2559
 3818WAT     H215993   4.280   5.472   0.228 -0.1372 -0.1085  0.0543
 3818WAT    EPW15994   4.256   5.486   0.301  0.0543 -0.0571  0.1081
 3819WAT      O15995   6.628   5.903   3.656  0.4551  0.5660 -0.0404
 3819WAT     H115996   6.703   5.946   3.662  0.8996 -0.3739  2.7462
 3819WAT     H215997   6.571   5.953   3.699 -0.4882  1.0663 -1.7591
 3819WAT    EPW15998   6.630   5.917   3.663  0.3814  0.5010  0.1174
 3820WAT      O15999   5.549   6.700   6.887 -0.2433 -0.1372  0.0935
 3820WAT     H116000   5.625   6.741   6.898  0.1636 -0.6641 -0.7101
 3820WAT     H216001   5.572   6.617   6.874 -1.0567 -0.6864  1.7978
 3820WAT    EPW16002   5.563   6.694   6.887 -0.3034 -0.2962  0.2266
 3821WAT      O16003   2.798   6.060   4.208 -0.5226  0.0627 -0.1434
 3821WAT     H116004   2.878   6.027   4.218  0.0474  1.4921  0.2514
 3821WAT     H216005   2.811   6.128   4.155 -1.3449  0.8124  0.6026
 3821WAT    EPW16006   2.812   6.065   4.202 -0.5599  0.3846  0.0251
 3822WAT      O16007   7.152   6.012   7.296 -0.9220 -0.3486  0.2695
 3822WAT     H116008   7.200   5.940   7.284  0.8825  1.0009 -1.1503
 3822WAT     H216009   7.081   5.997   7.248  0.6387 -0.1644 -2.2575
 3822WAT    EPW16010   7.149   5.999   7.287 -0.4249 -0.1221 -0.3135
 3823WAT      O16011   5.720   2.538   0.021 -0.2201  0.0246  0.3743
 3823WAT     H116012   5.764   2.608   0.046 -0.9405  0.8920 -0.6950
 3823WAT     H216013   5.689   2.505   0.096  0.2924  0.7326  0.9031
 3823WAT    EPW16014   5.722   2.543   0.036 -0.2508  0.2573  0.2944
 3824WAT      O16015   6.783   7.108   4.828  0.1820  0.0911  0.3738
 3824WAT     H116016   6.817   7.041   4.872 -0.8478 -0.0870  0.9264
 3824WAT     H216017   6.698   7.088   4.823 -0.4967  2.1938  2.1235
 3824WAT    EPW16018   6.775   7.095   4.833 -0.0704  0.3754  0.7139
 3825WAT      O16019   0.946   6.368   4.877 -0.5574  0.0998 -0.4266
 3825WAT     H116020   0.963   6.417   4.807 -0.6632  1.5467  0.5151
 3825WAT     H216021   0.980   6.414   4.943 -2.3720 -0.1318  0.7325
 3825WAT    EPW16022   0.954   6.382   4.877 -0.8411  0.2793 -0.1163
 3826WAT      O16023   5.742   4.608   3.764 -0.7093  0.0319 -0.2458
 3826WAT     H116024   5.736   4.553   3.831  1.2920  0.1972  0.1373
 3826WAT     H216025   5.807   4.575   3.716 -1.4073  0.5006 -1.5629
 3826WAT    EPW16026   5.751   4.595   3.767 -0.5167  0.1256 -0.3838
 3827WAT      O16027   3.883   5.220   3.069 -0.0587  0.5717 -0.4108
 3827WAT     H116028   3.883   5.245   2.985  1.5305  0.2535 -0.5435
 3827WAT     H216029   3.918   5.288   3.110 -3.4395  1.9815  0.5128
 3827WAT    EPW16030   3.888   5.234   3.063 -0.3234  0.7329 -0.2940
 3828WAT      O16031   5.899   6.550   1.050 -0.4989 -0.3093 -0.0959
 3828WAT     H116032   5.958   6.487   1.053 -2.3847 -2.1597  2.1780
 3828WAT     H216033   5.884   6.569   1.134  0.0940  3.3772 -0.6702
 3828WAT    EPW16034   5.905   6.544   1.063 -0.6899 -0.0381  0.1552
 3829WAT      O16035   3.281   6.646   5.969 -0.0262  0.0397 -0.6965
 3829WAT     H116036   3.288   6.716   5.917 -0.5593 -0.2627 -1.1928
 3829WAT     H216037   3.333   6.588   5.931  0.0293  0.0044 -0.5664
 3829WAT    EPW16038   3.290   6.648   5.955 -0.0968 -0.0102 -0.7506
 3830WAT      O16039   0.041   4.973   4.841 -0.3698 -0.5782 -0.1261
 3830WAT     H116040   0.121   5.000   4.864 -0.9019  0.2166  0.8454
 3830WAT     H216041   0.041   4.980   4.754  0.3376  0.1928 -0.0724
 3830WAT    EPW16042   0.053   4.978   4.831 -0.3439 -0.3469  0.0253
 3831WAT      O16043   1.920   6.683   3.646 -0.6128 -0.1651 -0.2023
 3831WAT     H116044   1.954   6.674   3.726 -0.0085  0.4139 -0.3852
 3831WAT     H216045   1.844   6.723   3.660 -0.7938 -0.6261  0.1336
 3831WAT    EPW16046   1.914   6.688   3.660 -0.5502 -0.1477 -0.1797
 3832WAT      O16047   5.774   2.033   2.564 -0.5891  0.0322 -0.4594
 3832WAT     H116048   5.839   2.079   2.601  1.2814 -2.1508 -0.8479
 3832WAT     H216049   5.800   2.023   2.482 -1.4119 -0.9375 -0.6144
 3832WAT    EPW16050   5.787   2.038   2.557 -0.4343 -0.4335 -0.5397
 3833WAT      O16051   5.773   6.162   1.038 -0.4913 -0.4126  0.6300
 3833WAT     H116052   5.823   6.195   0.975  0.0609 -0.4966  1.0054
 3833WAT     H216053   5.825   6.102   1.076 -0.2442  0.6846  2.1263
 3833WAT    EPW16054   5.788   6.158   1.034 -0.3732 -0.2629  0.9065
 3834WAT      O16055   1.899   0.992   4.544 -0.1370  0.5281  0.0193
 3834WAT     H116056   1.821   0.963   4.571 -0.6211  1.9029  0.1805
 3834WAT     H216057   1.933   0.923   4.502 -1.8989  0.2362 -1.0328
 3834WAT    EPW16058   1.892   0.977   4.542 -0.4688  0.6881 -0.1123
 3835WAT      O16059   0.222   6.945   1.794 -0.6072  0.1197  0.1064
 3835WAT     H116060   0.204   6.975   1.874  1.0789 -0.7761  0.8646
 3835WAT     H216061   0.297   6.984   1.773 -0.1599 -0.9125 -0.3088
 3835WAT    EPW16062   0.230   6.955   1.803 -0.2921 -0.1651  0.1571
 3836WAT      O16063   5.014   4.846   6.140  0.1255 -0.3534  0.1680
 3836WAT     H116064   4.961   4.861   6.072 -1.3883 -0.5375  1.2504
 3836WAT     H216065   5.015   4.759   6.146  0.5323 -0.3505  0.1796
 3836WAT    EPW16066   5.006   4.835   6.131 -0.0380 -0.3802  0.3296
 3837WAT      O16067   7.168   4.765   5.056 -0.2844 -0.1294 -0.4099
 3837WAT     H116068   7.218   4.709   5.012  2.0824  2.2923 -1.0188
 3837WAT     H216069   7.089   4.753   5.021  0.1163 -2.8811 -0.6081
 3837WAT    EPW16070   7.163   4.755   5.044  0.1244 -0.1782 -0.5292
 3838WAT      O16071   2.075   6.561   5.501 -0.2321 -0.1999 -0.0769
 3838WAT     H116072   2.128   6.505   5.542 -0.5304 -0.2280  0.2770
 3838WAT     H216073   2.124   6.632   5.490  0.2383 -0.6176 -0.7680
 3838WAT    EPW16074   2.090   6.563   5.505 -0.2066 -0.2657 -0.1267
 3839WAT      O16075   6.026   1.896   1.783  0.0208  0.1011  0.4290
 3839WAT     H116076   6.091   1.851   1.746 -0.2256 -1.2779  1.5933
 3839WAT     H216077   5.956   1.845   1.772 -1.0295  1.8290 -1.3140
 3839WAT    EPW16078   6.026   1.882   1.776 -0.1708  0.1526  0.3435
 3840WAT      O16079   5.440   0.734   2.083  0.2823  0.2487  0.0890
 3840WAT     H116080   5.378   0.769   2.134  0.5882  1.1425 -0.1403
 3840WAT     H216081   5.487   0.803   2.058  0.1577 -0.1628 -1.3759
 3840WAT    EPW16082   5.438   0.749   2.087  0.3091  0.3199 -0.1612
 3841WAT      O16083   0.479   5.243   4.816  0.4176 -0.0487 -0.0069
 3841WAT     H116084   0.445   5.205   4.745  0.2760  0.9672 -0.4937
 3841WAT     H216085   0.491   5.326   4.792 -0.6947  0.6001  1.5204
 3841WAT    EPW16086   0.476   5.250   4.802  0.2324  0.1972  0.1468
 3842WAT      O16087   4.515   0.891   5.083 -0.3200  0.1058 -0.5463
 3842WAT     H116088   4.512   0.818   5.035  2.2359 -0.4263 -0.0475
 3842WAT     H216089   4.577   0.938   5.045 -0.8953  1.3875  0.0287
 3842WAT    EPW16090   4.523   0.887   5.070 -0.0274  0.2165 -0.3877
 3843WAT      O16091   6.366   6.003   6.879 -0.0112  0.2520 -0.2240
 3843WAT     H116092   6.381   6.054   6.948 -3.1643 -0.6516  1.2851
 3843WAT     H216093   6.441   5.958   6.871  0.5234  0.4849  2.5363
 3843WAT    EPW16094   6.379   6.004   6.888 -0.3980  0.1529  0.4067
 3844WAT      O16095   7.090   5.139   0.920  0.0417 -0.3659 -0.2158
 3844WAT     H116096   7.022   5.084   0.924  0.2336 -0.6443 -0.6974
 3844WAT     H216097   7.132   5.126   0.995 -0.1707 -0.5422 -0.1276
 3844WAT    EPW16098   7.086   5.129   0.931  0.0387 -0.4331 -0.2739
 3845WAT      O16099   5.262   6.280   5.820 -0.0267  0.1301  0.0783
 3845WAT     H116100   5.282   6.308   5.740  0.7178  0.9781  0.5383
 3845WAT     H216101   5.211   6.343   5.851  1.2209  0.7695  0.9307
 3845WAT    EPW16102   5.257   6.293   5.813  0.2676  0.3498  0.2721
 3846WAT      O16103   4.923   5.823   2.613  0.2181 -0.3832  0.2012
 3846WAT     H116104   4.903   5.739   2.606 -0.1762 -0.4664  1.8670
 3846WAT     H216105   4.891   5.845   2.691  0.6011  1.2321 -0.0594
 3846WAT    EPW16106   4.915   5.814   2.624  0.2164 -0.1569  0.4088
 3847WAT      O16107   6.932   6.673   3.762 -0.2942 -0.4263 -0.7302
 3847WAT     H116108   6.916   6.665   3.848  0.7247 -2.2436 -0.6633
 3847WAT     H216109   6.874   6.733   3.736 -0.4616  0.3555  1.2670
 3847WAT    EPW16110   6.921   6.681   3.771 -0.1684 -0.5793 -0.4253
 3848WAT      O16111   0.156   1.699   0.737 -0.5073 -0.5039  0.0639
 3848WAT     H116112   0.226   1.652   0.762 -0.2296 -0.2674 -0.2573
 3848WAT     H216113   0.191   1.765   0.692 -0.8321  0.4524  1.1743
 3848WAT    EPW16114   0.172   1.702   0.734 -0.5143 -0.3277  0.1805
 3849WAT      O16115   5.535   2.909   2.961  0.0656  0.1592 -0.0616
 3849WAT     H116116   5.518   2.825   2.944 -0.9135  0.2448  0.3865
 3849WAT     H216117   5.537   2.946   2.882 -2.2066  0.1694 -0.1925
 3849WAT    EPW16118   5.533   2.902   2.947 -0.4147  0.1734 -0.0147
 3850WAT      O16119   6.710   6.536   3.573 -0.7726  0.7782 -0.0260
 3850WAT     H116120   6.761   6.472   3.602 -0.1327 -0.0663 -2.7152
 3850WAT     H216121   6.762   6.606   3.577  0.1903  0.1913 -1.4255
 3850WAT    EPW16122   6.725   6.537   3.578 -0.5358  0.5667 -0.6300
 3851WAT      O16123   1.753   0.029   0.212  0.3940 -0.6567 -0.4416
 3851WAT     H116124   1.684  -0.012   0.247 -0.5125 -0.0353 -1.4323
 3851WAT     H216125   1.748   0.009   0.127  0.2829  0.9291 -0.8520
 3851WAT    EPW16126   1.742   0.020   0.205  0.2437 -0.3307 -0.6486
 3852WAT      O16127   2.282   3.474   6.821  0.5466  0.3709  0.3281
 3852WAT     H116128   2.217   3.473   6.763 -0.1172  0.2672  1.0521
 3852WAT     H216129   2.292   3.391   6.843 -1.0649  0.6080  2.3266
 3852WAT    EPW16130   2.274   3.462   6.816  0.2105  0.3906  0.7303
 3853WAT      O16131   0.073   0.638   3.816 -0.1880 -0.1382 -0.0900
 3853WAT     H116132   0.121   0.577   3.774  0.2113  0.2743 -0.2388
 3853WAT     H216133   0.001   0.594   3.839  0.4536 -0.8946  0.5393
 3853WAT    EPW16134   0.070   0.622   3.813 -0.0342 -0.1890 -0.0190
 3854WAT      O16135   2.217   2.209   3.434  0.1300  0.5489  0.1616
 3854WAT     H116136   2.302   2.191   3.438 -0.2999 -1.9234 -0.3362
 3854WAT     H216137   2.198   2.201   3.349 -0.6480  0.8752  0.2906
 3854WAT    EPW16138   2.227   2.205   3.422 -0.0484  0.2319  0.1071
 3855WAT      O16139   0.410   0.680   4.885 -0.1571  0.2786  0.0545
 3855WAT     H116140   0.487   0.704   4.919 -0.3989 -0.0415  0.8542
 3855WAT     H216141   0.378   0.754   4.852  0.0583  0.6150  0.5860
 3855WAT    EPW16142   0.417   0.694   4.885 -0.1610  0.2810  0.2512
 3856WAT      O16143   5.791   1.426   3.246 -0.0840  0.5770 -0.2157
 3856WAT     H116144   5.803   1.355   3.295 -0.1766  0.2315 -0.6854
 3856WAT     H216145   5.757   1.484   3.302  0.1632  0.3153  0.2141
 3856WAT    EPW16146   5.788   1.425   3.262 -0.0611  0.4873 -0.2216
 3857WAT      O16147   4.877   5.784   0.786 -0.4394  0.1029 -0.7179
 3857WAT     H116148   4.963   5.782   0.769 -0.5302 -0.3976 -1.1498
 3857WAT     H216149   4.873   5.817   0.866  0.1347  0.5695 -0.8730
 3857WAT    EPW16150   4.889   5.789   0.795 -0.3680  0.0979 -0.8046
 3858WAT      O16151   3.543   4.391   1.657 -0.5010 -0.2875 -0.0849
 3858WAT     H116152   3.493   4.434   1.599  1.3127  0.2272 -1.3371
 3858WAT     H216153   3.488   4.333   1.691 -2.2556  0.9712 -0.5740
 3858WAT    EPW16154   3.527   4.389   1.653 -0.4923 -0.0255 -0.3422
 3859WAT      O16155   2.958   4.618   3.293  0.8596 -0.3022  0.4110
 3859WAT     H116156   2.880   4.611   3.254 -0.2967 -0.6036  2.6111
 3859WAT     H216157   3.012   4.581   3.236 -0.3286  1.1242 -1.8038
 3859WAT    EPW16158   2.954   4.611   3.279  0.5132 -0.1361  0.4088
 3860WAT      O16159   0.540   0.502   4.394 -0.0757 -0.3960 -0.0845
 3860WAT     H116160   0.493   0.512   4.321  1.1604  1.0053 -0.7456
 3860WAT     H216161   0.525   0.576   4.438 -0.1510 -0.8726  0.6998
 3860WAT    EPW16162   0.531   0.514   4.390  0.0958 -0.2594 -0.0663
 3861WAT      O16163   0.445   2.486   3.080 -0.0757 -0.8040  0.0496
 3861WAT     H116164   0.396   2.491   3.151 -0.4749 -2.8525 -0.0347
 3861WAT     H216165   0.387   2.472   3.016  0.2828  0.8916 -0.7253
 3861WAT    EPW16166   0.429   2.485   3.081 -0.0817 -0.8561 -0.0773
 3862WAT      O16167   3.601   1.479   0.864 -0.2320 -0.3327 -0.1828
 3862WAT     H116168   3.642   1.512   0.795 -0.4364 -3.8100 -2.1930
 3862WAT     H216169   3.519   1.468   0.837 -0.7662 -0.1733  1.2492
 3862WAT    EPW16170   3.595   1.482   0.850 -0.3411 -0.8228 -0.2682
 3863WAT      O16171   3.284   6.555   0.832  0.4884 -0.2310 -0.0645
 3863WAT     H116172   3.240   6.630   0.838  2.8021  1.3618 -1.2601
 3863WAT     H216173   3.223   6.497   0.812 -1.3123  1.4513  0.2444
 3863WAT    EPW16174   3.269   6.557   0.830  0.5642  0.2528 -0.1955
 3864WAT      O16175   1.507   5.896   3.397 -0.1543  0.1131  0.2500
 3864WAT     H116176   1.492   5.872   3.480 -3.0957  1.5503  0.2922
 3864WAT     H216177   1.593   5.906   3.394 -0.0031  1.0820  3.4706
 3864WAT    EPW16178   1.517   5.894   3.409 -0.5664  0.4685  0.7320
 3865WAT      O16179   0.755   6.795   2.763 -0.0902  0.0599 -0.0848
 3865WAT     H116180   0.702   6.852   2.722 -0.4312  0.2465  0.5969
 3865WAT     H216181   0.722   6.717   2.742  0.0980  0.1260 -0.6432
 3865WAT    EPW16182   0.742   6.792   2.754 -0.1128  0.0972 -0.0666
 3866WAT      O16183   1.186   5.309   6.654  0.0983 -0.0002 -0.6638
 3866WAT     H116184   1.104   5.334   6.670 -0.8601 -1.5288 -2.8057
 3866WAT     H216185   1.182   5.222   6.656  1.6419 -0.1004 -0.9743
 3866WAT    EPW16186   1.173   5.300   6.657  0.1848 -0.2408 -1.0261
 3867WAT      O16187   6.920   4.770   0.461  0.0124  0.0146 -0.0918
 3867WAT     H116188   6.974   4.702   0.460  0.5451  0.4302 -0.5626
 3867WAT     H216189   6.972   4.837   0.438 -0.4959  0.5766  0.3638
 3867WAT    EPW16190   6.936   4.770   0.458  0.0160  0.1590 -0.0940
 3868WAT      O16191   0.564   1.006   5.075 -0.2856  0.4561  0.3708
 3868WAT     H116192   0.517   1.058   5.126 -0.4064 -0.1134  0.8494
 3868WAT     H216193   0.534   1.024   4.995 -1.2042  0.2358  0.6499
 3868WAT    EPW16194   0.553   1.016   5.071 -0.4392  0.3394  0.4828
 3869WAT      O16195   3.719   2.191   3.415  0.0749  0.3170 -0.1424
 3869WAT     H116196   3.737   2.106   3.406 -1.3501  0.0970 -1.3510
 3869WAT     H216197   3.674   2.194   3.489  1.2703  0.2471  0.6174
 3869WAT    EPW16198   3.715   2.179   3.424  0.0410  0.2742 -0.2087
 3870WAT      O16199   4.463   2.861   3.939 -0.2708 -0.4728  0.3220
 3870WAT     H116200   4.533   2.847   3.989  1.0454  2.2772 -0.5778
 3870WAT     H216201   4.495   2.858   3.858 -0.7277  2.4675 -0.0687
 3870WAT    EPW16202   4.478   2.858   3.935 -0.1439  0.3678  0.1313
 3871WAT      O16203   1.761   1.070   5.468  0.3143  0.2084  0.4009
 3871WAT     H116204   1.731   1.137   5.515 -1.2527 -0.9782  1.1814
 3871WAT     H216205   1.692   1.046   5.420  1.9987  1.8304 -3.2256
 3871WAT    EPW16206   1.746   1.076   5.468  0.3316  0.2727 -0.0195
 3872WAT      O16207   6.686   2.311   5.232 -0.7835 -0.1796  0.0210
 3872WAT     H116208   6.629   2.332   5.294 -0.9022  0.5334 -0.3191
 3872WAT     H216209   6.687   2.224   5.233 -3.2265 -0.2965 -1.1668
 3872WAT    EPW16210   6.678   2.301   5.241 -1.1619 -0.0915 -0.2047
 3873WAT      O16211   6.903   5.427   4.592  0.1551 -0.0962  0.1185
 3873WAT     H116212   6.967   5.486   4.591  0.8202 -0.7937 -1.5396
 3873WAT     H216213   6.943   5.352   4.613 -0.0100 -0.6046 -1.2472
 3873WAT    EPW16214   6.918   5.424   4.595  0.2290 -0.2743 -0.3282
 3874WAT      O16215   1.152   4.680   1.775 -0.4657 -0.4741  0.5814
 3874WAT     H116216   1.211   4.617   1.781  1.2076  0.5780 -2.3893
 3874WAT     H216217   1.099   4.652   1.711  1.0648  1.4693 -1.7326
 3874WAT    EPW16218   1.153   4.667   1.766  0.0076 -0.0316 -0.1993
 3875WAT      O16219   0.579   4.007   0.055 -0.9228  0.0549  0.0140
 3875WAT     H116220   0.587   3.968   0.133 -0.4615 -0.2859 -0.1961
 3875WAT     H216221   0.657   3.992   0.018 -1.2515 -0.0501 -0.6318
 3875WAT    EPW16222   0.592   3.999   0.061 -0.9032 -0.0109 -0.1124
 3876WAT      O16223   3.746   4.939   0.138  0.6730  0.0929  0.2557
 3876WAT     H116224   3.803   4.878   0.113  0.5030 -1.7726  3.7763
 3876WAT     H216225   3.791   4.985   0.197 -0.6439  0.2683  1.1601
 3876WAT    EPW16226   3.761   4.937   0.143  0.4534 -0.1568  0.9094
 3877WAT      O16227   0.859   1.481   3.379  0.0701  0.2502 -0.2126
 3877WAT     H116228   0.869   1.423   3.314 -0.1749 -0.5605  0.4646
 3877WAT     H216229   0.806   1.541   3.345  0.1358 -0.0442 -0.8483
 3877WAT    EPW16230   0.853   1.481   3.364  0.0436  0.0870 -0.2065
 3878WAT      O16231   0.154   0.240   2.063 -0.0944  0.0598 -0.4328
 3878WAT     H116232   0.206   0.185   2.020 -1.1743 -0.6700 -0.8392
 3878WAT     H216233   0.156   0.313   2.015 -0.2416 -0.3036 -1.0012
 3878WAT    EPW16234   0.162   0.243   2.050 -0.2757 -0.1017 -0.5768
 3879WAT      O16235   7.001   5.146   3.551 -0.1637  0.1107 -0.4211
 3879WAT     H116236   7.049   5.073   3.549  0.0187  0.2328 -0.6637
 3879WAT     H216237   7.047   5.201   3.501 -0.1891  0.4566 -0.0677
 3879WAT    EPW16238   7.015   5.143   3.544 -0.1405  0.1798 -0.4048
 3880WAT      O16239   2.270   4.519   7.024  0.0166 -0.3027 -0.3594
 3880WAT     H116240   2.236   4.598   7.036 -1.3309 -1.0111  0.7271
 3880WAT     H216241   2.222   4.486   6.958  0.2729 -0.3743 -0.5103
 3880WAT    EPW16242   2.258   4.526   7.016 -0.1446 -0.4179 -0.2212
 3881WAT      O16243   5.929   1.657   2.542 -0.0344  0.4342  0.1774
 3881WAT     H116244   5.854   1.669   2.585  1.2495  0.1600  2.6417
 3881WAT     H216245   5.930   1.571   2.525 -0.0596  0.3551  0.5730
 3881WAT    EPW16246   5.918   1.646   2.546  0.1515  0.3820  0.5999
 3882WAT      O16247   3.668   2.645   6.525  0.5021  0.2195  0.0744
 3882WAT     H116248   3.665   2.732   6.525  1.2275  0.2519 -0.5492
 3882WAT     H216249   3.702   2.625   6.448  0.8624 -0.6035  0.4285
 3882WAT    EPW16250   3.673   2.655   6.514  0.6625  0.1027  0.0346
 3883WAT      O16251   7.162   4.175   1.766 -0.1105 -0.7274 -0.2315
 3883WAT     H116252   7.219   4.207   1.709  0.9020 -0.1305  1.0816
 3883WAT     H216253   7.194   4.096   1.785  0.0371 -0.5806  0.1475
 3883WAT    EPW16254   7.175   4.168   1.761  0.0609 -0.6175  0.0185
 3884WAT      O16255   6.390   3.635   4.221  0.0066  0.4645 -0.9963
 3884WAT     H116256   6.360   3.711   4.190 -1.8597  0.6064  0.9491
 3884WAT     H216257   6.401   3.651   4.306 -1.8774 -1.8012 -0.2437
 3884WAT    EPW16258   6.387   3.649   4.229 -0.5474  0.1508 -0.5978
 3885WAT      O16259   2.581   4.470   4.344  0.3128  0.0296 -0.3401
 3885WAT     H116260   2.631   4.434   4.406 -1.4671 -0.4900  0.8813
 3885WAT     H216261   2.576   4.554   4.368  0.0836 -0.0600 -0.0507
 3885WAT    EPW16262   2.587   4.477   4.357  0.0160 -0.0604 -0.1170
 3886WAT      O16263   5.556   3.360   3.051 -0.1141 -0.1914 -0.5864
 3886WAT     H116264   5.582   3.404   2.980 -0.8542  0.9117 -0.2083
 3886WAT     H216265   5.618   3.376   3.110 -0.5650  0.7123 -0.3312
 3886WAT    EPW16266   5.569   3.369   3.049 -0.2901  0.1051 -0.4928
 3887WAT      O16267   6.213   0.043   4.636 -0.4730 -0.3477 -0.1718
 3887WAT     H116268   6.196  -0.020   4.578 -0.9690  0.3955 -0.8548
 3887WAT     H216269   6.250   0.106   4.589 -1.9857  0.7725  0.0299
 3887WAT    EPW16270   6.216   0.043   4.621 -0.7697 -0.0725 -0.2429
 3888WAT      O16271   2.660   3.422   2.575 -0.3231 -0.0831  0.2408
 3888WAT     H116272   2.694   3.402   2.653 -0.5747  0.0768  0.3921
 3888WAT     H216273   2.601   3.360   2.562 -0.2355 -0.1474  0.1451
 3888WAT    EPW16274   2.657   3.410   2.585 -0.3473 -0.0690  0.2490
 3889WAT      O16275   5.965   4.472   6.144  0.6477 -0.1150 -0.1989
 3889WAT     H116276   5.903   4.529   6.164 -0.9622 -1.0370 -2.1494
 3889WAT     H216277   5.957   4.410   6.205 -1.7156 -1.1278 -1.3885
 3889WAT    EPW16278   5.955   4.471   6.156  0.0608 -0.4008 -0.6628
 3890WAT      O16279   2.213   3.375   4.459 -0.0575 -0.0039 -1.0315
 3890WAT     H116280   2.176   3.404   4.385  1.9895  0.2241 -2.0294
 3890WAT     H216281   2.202   3.440   4.515 -0.0767  0.5589 -1.6819
 3890WAT    EPW16282   2.206   3.389   4.456  0.2420  0.1129 -1.2750
 3891WAT      O16283   5.020   0.593   3.261  0.4717 -0.6697 -0.1013
 3891WAT     H116284   5.066   0.606   3.334  0.5793  2.0797 -0.5467
 3891WAT     H216285   4.953   0.649   3.268 -0.4794 -1.5981 -1.3354
 3891WAT    EPW16286   5.017   0.603   3.273  0.3471 -0.4007 -0.3494
 3892WAT      O16287   5.949   1.945   4.682  0.0982 -0.0948 -0.0403
 3892WAT     H116288   6.032   1.970   4.672  0.4623 -0.7227  1.1465
 3892WAT     H216289   5.910   1.974   4.610  1.3581  0.1669 -0.6529
 3892WAT    EPW16290   5.955   1.953   4.670  0.3381 -0.1489  0.0446
 3893WAT      O16291   4.579   4.519   6.958 -0.0579 -0.4662  0.1338
 3893WAT     H116292   4.662   4.538   6.979 -0.0562 -2.0492  1.7806
 3893WAT     H216293   4.584   4.439   6.924 -0.8243 -0.2330 -0.5505
 3893WAT    EPW16294   4.592   4.510   6.956 -0.1709 -0.6656  0.2760
 3894WAT      O16295   1.335   6.309   6.297  0.1385  0.1956 -0.4142
 3894WAT     H116296   1.257   6.284   6.267 -0.1683  0.5656  0.0392
 3894WAT     H216297   1.331   6.396   6.290 -0.3853  0.3910  1.6637
 3894WAT    EPW16298   1.323   6.319   6.292  0.0158  0.2791 -0.0403
 3895WAT      O16299   1.591   5.263   6.579 -0.2562 -0.2518 -0.0846
 3895WAT     H116300   1.519   5.267   6.529  0.9291  0.2079 -1.8303
 3895WAT     H216301   1.655   5.250   6.521  1.3903  1.8919  1.1551
 3895WAT    EPW16302   1.590   5.261   6.563  0.1621  0.1328 -0.1593
 3896WAT      O16303   2.621   3.096   0.350  0.4258  0.2018  0.3966
 3896WAT     H116304   2.625   3.176   0.385 -0.4049  1.0234 -1.2399
 3896WAT     H216305   2.702   3.066   0.360  0.9945  1.5984  0.3250
 3896WAT    EPW16306   2.634   3.104   0.356  0.3871  0.5294  0.1443
 3897WAT      O16307   1.542   4.418   7.208 -0.0161  0.3574  0.1262
 3897WAT     H116308   1.540   4.450   7.289 -1.1935  1.2748 -0.2324
 3897WAT     H216309   1.457   4.414   7.186  0.2732 -0.1521 -0.9505
 3897WAT    EPW16310   1.529   4.422   7.217 -0.1473  0.4177 -0.0858
 3898WAT      O16311   7.070   6.469   2.687 -0.3667  0.3218 -0.1630
 3898WAT     H116312   7.102   6.547   2.662 -1.0376  0.6559 -0.0059
 3898WAT     H216313   7.009   6.453   2.626  0.1719 -0.3706 -0.5359
 3898WAT    EPW16314   7.066   6.478   2.674 -0.3863  0.2688 -0.1949
 3899WAT      O16315   1.690   1.734   4.805  0.1727 -0.6347 -0.3260
 3899WAT     H116316   1.775   1.726   4.790  0.0732 -0.5042 -0.9735
 3899WAT     H216317   1.686   1.780   4.880  0.6666 -0.7009 -0.2595
 3899WAT    EPW16318   1.702   1.740   4.814  0.2309 -0.6252 -0.4118
 3900WAT      O16319   1.700   3.165   7.096 -0.0268 -0.3101 -0.3315
 3900WAT     H116320   1.705   3.165   7.183  1.7225  3.6899 -0.2438
 3900WAT     H216321   1.769   3.117   7.072  1.2428  0.9787  0.5710
 3900WAT    EPW16322   1.711   3.158   7.106  0.4192  0.4712 -0.1852
 3901WAT      O16323   1.232   5.131   0.327  0.1823  0.4799 -0.9341
 3901WAT     H116324   1.304   5.169   0.295 -0.5556  2.0655 -0.8553
 3901WAT     H216325   1.214   5.178   0.398 -0.5862 -0.2785 -0.6041
 3901WAT    EPW16326   1.240   5.144   0.333 -0.0402  0.6021 -0.8737
 3902WAT      O16327   5.363   1.289   2.907 -0.8463  0.3273  0.0740
 3902WAT     H116328   5.283   1.303   2.875 -1.0352  0.3897  0.5705
 3902WAT     H216329   5.387   1.213   2.870 -0.9245  0.5673 -0.4770
 3902WAT    EPW16330   5.355   1.280   2.897 -0.8858  0.3720  0.0659
 3903WAT      O16331   7.135   0.131   6.613  0.2988 -0.0641  0.2307
 3903WAT     H116332   7.125   0.068   6.672 -1.3423  0.3679  0.4695
 3903WAT     H216333   7.167   0.090   6.543 -1.6396 -1.3710  0.0562
 3903WAT    EPW16334   7.138   0.116   6.612 -0.2300 -0.1934  0.2402
 3904WAT      O16335   0.714   2.507   2.980  0.1242 -0.0189 -0.2426
 3904WAT     H116336   0.653   2.501   3.042  2.1584 -0.0099  1.8607
 3904WAT     H216337   0.746   2.426   2.974 -0.5936 -0.2198 -1.9501
 3904WAT    EPW16338   0.710   2.494   2.988  0.3186 -0.0473 -0.1841
 3905WAT      O16339   6.013   1.581   0.547  0.0171 -0.3772  0.1237
 3905WAT     H116340   6.005   1.494   0.549  0.1023 -0.3803  0.4366
 3905WAT     H216341   5.937   1.608   0.515 -0.1695 -0.5469  0.4193
 3905WAT    EPW16342   6.001   1.572   0.543  0.0021 -0.4027  0.2136
 3906WAT      O16343   2.657   0.024   4.756 -0.1340 -0.0138 -0.0471
 3906WAT     H116344   2.703   0.007   4.683 -1.5957  0.4600 -1.1327
 3906WAT     H216345   2.577  -0.003   4.736 -1.3147  2.9358  0.1508
 3906WAT    EPW16346   2.652   0.018   4.742 -0.5243  0.4919 -0.1782
 3907WAT      O16347   4.385   4.328   4.160 -0.0008  0.4245  0.2185
 3907WAT     H116348   4.433   4.300   4.092  0.6916  0.8215  0.5317
 3907WAT     H216349   4.443   4.331   4.225 -0.5391  0.5766  0.6906
 3907WAT    EPW16350   4.401   4.324   4.160  0.0220  0.5056  0.3345
 3908WAT      O16351   6.315   7.156   4.878  0.3424 -0.1662  0.2335
 3908WAT     H116352   6.354   7.222   4.918 -0.3816 -0.1023  0.8604
 3908WAT     H216353   6.273   7.194   4.812  0.4148 -0.0792  0.2384
 3908WAT    EPW16354   6.314   7.171   4.874  0.2462 -0.1439  0.3268
 3909WAT      O16355   2.066   3.411   5.053 -0.2542 -0.2094 -0.7940
 3909WAT     H116356   2.000   3.435   5.105 -0.1753 -0.3002 -0.6541
 3909WAT     H216357   2.133   3.400   5.107 -0.3900 -1.1620 -0.8026
 3909WAT    EPW16358   2.066   3.413   5.068 -0.2626 -0.3636 -0.7746
 3910WAT      O16359   5.862   0.452   1.474  0.1724  0.2996 -0.1709
 3910WAT     H116360   5.899   0.380   1.442  1.8924  0.3154  1.5834
 3910WAT     H216361   5.887   0.452   1.558 -1.2208  2.0393  0.3024
 3910WAT    EPW16362   5.871   0.441   1.482  0.2207  0.5589  0.1581
 3911WAT      O16363   4.637   3.367   3.337 -0.4195 -0.1538 -0.0006
 3911WAT     H116364   4.689   3.297   3.341 -0.6658 -0.3213  0.3242
 3911WAT     H216365   4.679   3.420   3.282  0.2353 -0.1770  0.4516
 3911WAT    EPW16366   4.651   3.364   3.330 -0.3591 -0.1819  0.1142
 3912WAT      O16367   1.241   3.342   0.310 -0.6050 -0.0877  0.2906
 3912WAT     H116368   1.320   3.316   0.336 -1.7858 -3.4217  1.1686
 3912WAT     H216369   1.253   3.368   0.228  1.3401 -1.1445  0.1805
 3912WAT    EPW16370   1.254   3.342   0.302 -0.4921 -0.7363  0.4041
 3913WAT      O16371   4.149   6.958   3.860 -0.2860  0.3949  0.5721
 3913WAT     H116372   4.111   6.883   3.836 -0.3781  0.5076  0.3568
 3913WAT     H216373   4.118   6.973   3.940 -0.3997  0.2894  0.5473
 3913WAT    EPW16374   4.139   6.949   3.868 -0.3164  0.3959  0.5366
 3914WAT      O16375   1.131   0.164   4.142  0.2143 -0.0757  0.4554
 3914WAT     H116376   1.146   0.094   4.092 -0.3578  0.0129  0.1514
 3914WAT     H216377   1.073   0.210   4.096  1.4399  1.1901  0.0901
 3914WAT    EPW16378   1.125   0.161   4.128  0.3109  0.1244  0.3565
 3915WAT      O16379   1.432   6.428   1.972  0.0139 -0.1675  0.5469
 3915WAT     H116380   1.485   6.418   2.041 -0.4102  0.1906  0.9347
 3915WAT     H216381   1.418   6.346   1.945  1.0565 -0.2449  0.2026
 3915WAT    EPW16382   1.437   6.414   1.978  0.1052 -0.1260  0.5534
 3916WAT      O16383   3.473   6.882   6.122 -0.7851  1.0407  0.4551
 3916WAT     H116384   3.442   6.945   6.070  0.9362  1.1017 -0.5941
 3916WAT     H216385   3.552   6.866   6.089 -1.0932 -1.5806  0.7809
 3916WAT    EPW16386   3.480   6.889   6.109 -0.5764  0.6625  0.3482
 3917WAT      O16387   2.948   6.610   4.243  0.1045 -0.0725  0.7620
 3917WAT     H116388   2.916   6.535   4.275  0.3421 -0.4977  0.0352
 3917WAT     H216389   2.884   6.637   4.189  0.5119 -0.3856  0.1047
 3917WAT    EPW16390   2.934   6.603   4.240  0.1998 -0.1815  0.5575
 3918WAT      O16391   4.994   6.319   4.042 -0.0697 -0.0763 -0.4851
 3918WAT     H116392   5.049   6.254   4.060 -0.7358 -0.4865  0.0982
 3918WAT     H216393   5.040   6.371   3.989  1.2779  0.1628  0.8547
 3918WAT    EPW16394   5.009   6.317   4.037  0.0309 -0.1016 -0.2010
 3919WAT      O16395   0.442   4.296   0.790 -0.4425 -0.6708  0.3336
 3919WAT     H116396   0.523   4.328   0.793 -0.3148 -0.9775  0.1849
 3919WAT     H216397   0.399   4.355   0.741 -0.3410 -0.4415  0.5209
 3919WAT    EPW16398   0.448   4.309   0.783 -0.4087 -0.6823  0.3393
 3920WAT      O16399   1.210   6.834   1.970 -0.2257 -0.3839  0.3861
 3920WAT     H116400   1.267   6.870   2.025 -2.9307  0.2570  3.0243
 3920WAT     H216401   1.136   6.833   2.015 -2.4363 -0.9007 -2.9199
 3920WAT    EPW16402   1.208   6.839   1.985 -0.9518 -0.3655  0.2874
 3921WAT      O16403   0.587   2.384   2.512  0.6553 -0.8744  0.7468
 3921WAT     H116404   0.534   2.344   2.569 -0.4761 -0.5334 -0.0385
 3921WAT     H216405   0.565   2.468   2.519 -1.2711 -1.0507 -1.8997
 3921WAT    EPW16406   0.576   2.391   2.522  0.2036 -0.8501  0.2399
 3922WAT      O16407   1.529   2.659   6.245 -0.0827 -0.1096  0.0621
 3922WAT     H116408   1.596   2.606   6.229 -2.4762 -3.1871 -0.7536
 3922WAT     H216409   1.526   2.663   6.332 -0.3050 -2.1757  0.2095
 3922WAT    EPW16410   1.538   2.652   6.256 -0.4691 -0.8694 -0.0366
 3923WAT      O16411   4.335   1.048   0.781 -0.5201 -0.1149  0.5452
 3923WAT     H116412   4.291   1.066   0.708 -0.9291  2.3919  1.3222
 3923WAT     H216413   4.389   0.983   0.757 -0.2334  0.9990 -2.1391
 3923WAT    EPW16414   4.337   1.041   0.767 -0.5381  0.4200  0.2634
 3924WAT      O16415   1.455   5.748   3.634  0.0421 -0.1174 -0.2777
 3924WAT     H116416   1.384   5.698   3.636  1.1926 -1.8937 -1.3708
 3924WAT     H216417   1.518   5.696   3.663  1.2946  0.6934 -1.3942
 3924WAT    EPW16418   1.454   5.733   3.639  0.3971 -0.2600 -0.6041
 3925WAT      O16419   6.433   3.286   5.312 -0.1241  0.0113  0.0270
 3925WAT     H116420   6.380   3.222   5.338 -0.8301 -0.3547 -2.1611
 3925WAT     H216421   6.431   3.342   5.379 -0.8722 -1.4020  1.2516
 3925WAT    EPW16422   6.425   3.285   5.326 -0.3389 -0.2515 -0.1153
 3926WAT      O16423   2.925   6.256   4.549  0.2323 -1.3290 -0.1189
 3926WAT     H116424   3.006   6.289   4.552  0.2410 -1.2224 -1.1179
 3926WAT     H216425   2.926   6.193   4.609  0.2412  0.4084  1.8488
 3926WAT    EPW16426   2.937   6.252   4.559  0.2349 -1.0566  0.0242
 3927WAT      O16427   1.750   5.237   1.840 -0.0090  0.1328  0.0205
 3927WAT     H116428   1.827   5.230   1.880 -0.4256 -0.6830  0.7118
 3927WAT     H216429   1.765   5.201   1.762  0.9564  2.2391 -0.8469
 3927WAT    EPW16430   1.764   5.230   1.834  0.0720  0.3234 -0.0055
 3928WAT      O16431   1.967   3.030   5.859  0.5812 -0.7044  0.1787
 3928WAT     H116432   1.927   3.108   5.859  2.1232  0.1392  0.3207
 3928WAT     H216433   1.923   2.985   5.799 -1.8825 -0.6080  1.7757
 3928WAT    EPW16434   1.955   3.035   5.850  0.4451 -0.5656  0.4356
 3929WAT      O16435   6.305   5.460   3.334  0.4414  0.5808 -0.0450
 3929WAT     H116436   6.236   5.432   3.381  1.7051  0.4720  1.8305
 3929WAT     H216437   6.268   5.500   3.266 -1.4687 -1.0584 -0.0760
 3929WAT    EPW16438   6.289   5.461   3.331  0.3459  0.3226  0.2275
 3930WAT      O16439   5.561   6.714   3.777  0.2922 -0.4601 -0.0872
 3930WAT     H116440   5.625   6.655   3.778  0.7388  0.0049 -0.5305
 3930WAT     H216441   5.572   6.756   3.701 -0.4954 -0.3219 -0.1431
 3930WAT    EPW16442   5.572   6.712   3.766  0.2418 -0.3710 -0.1609
 3931WAT      O16443   4.448   7.060   2.883 -0.6911 -0.1824 -0.1085
 3931WAT     H116444   4.445   7.063   2.796  0.0521  0.6127 -0.1098
 3931WAT     H216445   4.365   7.043   2.905 -0.6607 -1.6710 -1.0007
 3931WAT    EPW16446   4.435   7.058   2.873 -0.5768 -0.2848 -0.2405
 3932WAT      O16447   0.414   2.574   4.327  0.5021 -0.4335 -0.0124
 3932WAT     H116448   0.485   2.536   4.361 -0.3195 -1.8808  0.1809
 3932WAT     H216449   0.409   2.539   4.247  1.5923  1.8399 -1.1586
 3932WAT    EPW16450   0.424   2.563   4.320  0.5418 -0.3115 -0.1532
 3933WAT      O16451   4.777   1.507   7.097  0.5128 -0.1888  0.2866
 3933WAT     H116452   4.693   1.518   7.118  0.9509 -0.8065  2.5413
 3933WAT     H216453   4.817   1.575   7.134  1.3227 -1.2966  1.4978
 3933WAT    EPW16454   4.771   1.519   7.105  0.6971 -0.4437  0.7986
 3934WAT      O16455   7.164   0.502   5.408  0.5660  0.4908  0.0043
 3934WAT     H116456   7.202   0.478   5.333 -0.0674  1.4356 -0.6349
 3934WAT     H216457   7.079   0.497   5.391  0.3751 -0.9636  1.2245
 3934WAT    EPW16458   7.157   0.498   5.394  0.4443  0.4155  0.0902
 3935WAT      O16459   1.442   1.797   6.796  0.4821  0.5254  0.6755
 3935WAT     H116460   1.389   1.851   6.754 -0.6068 -2.0458 -1.5750
 3935WAT     H216461   1.485   1.757   6.731  0.8550 -1.6049  2.1436
 3935WAT    EPW16462   1.441   1.799   6.780  0.3763 -0.1691  0.5600
 3936WAT      O16463   0.017   2.154   5.689  0.8550  0.0718  0.2836
 3936WAT     H116464  -0.007   2.083   5.733 -0.0195  0.9597  1.2861
 3936WAT     H216465   0.094   2.132   5.655 -0.6735 -2.4330 -1.9545
 3936WAT    EPW16466   0.025   2.141   5.690  0.5000 -0.1670  0.1011
 3937WAT      O16467   3.127   4.918   3.512  0.2914 -0.3819 -0.3990
 3937WAT     H116468   3.115   5.004   3.521  1.2210 -0.3310  0.4161
 3937WAT     H216469   3.166   4.911   3.434  0.0050 -0.0985 -0.5740
 3937WAT    EPW16470   3.131   4.930   3.502  0.3864 -0.3325 -0.3044
 3938WAT      O16471   6.313   0.587   0.093  0.1924  0.3151  0.3928
 3938WAT     H116472   6.250   0.598   0.034  0.9425 -1.6950 -0.8640
 3938WAT     H216473   6.386   0.597   0.047  0.8425  1.7442  1.6469
 3938WAT    EPW16474   6.314   0.590   0.077  0.3993  0.2293  0.3924
 3939WAT      O16475   7.241   2.505   1.384  0.6096  0.0991  0.3414
 3939WAT     H116476   7.171   2.500   1.332  0.3958 -0.7314  0.6920
 3939WAT     H216477   7.308   2.498   1.329  0.4219  0.6532  0.0291
 3939WAT    EPW16478   7.241   2.503   1.368  0.5503  0.0583  0.3471
 3940WAT      O16479   4.846   0.612   5.369 -0.3715 -0.5983 -0.2436
 3940WAT     H116480   4.819   0.628   5.288 -0.4754 -1.4699 -0.3946
 3940WAT     H216481   4.893   0.539   5.360 -1.0914 -1.1817  0.6063
 3940WAT    EPW16482   4.849   0.604   5.356 -0.4932 -0.8132 -0.1404
 3941WAT      O16483   1.219   5.628   5.551 -0.6038 -0.0176 -0.2155
 3941WAT     H116484   1.257   5.554   5.528 -3.4093 -1.8992  0.7089
 3941WAT     H216485   1.198   5.666   5.475  0.9863 -0.0502 -0.6928
 3941WAT    EPW16486   1.221   5.623   5.537 -0.7834 -0.3004 -0.1495
 3942WAT      O16487   2.036   6.154   5.980 -0.4545 -0.5975 -0.0092
 3942WAT     H116488   2.103   6.117   5.938 -1.0147 -1.8548  0.1360
 3942WAT     H216489   2.068   6.230   6.007  0.5693 -0.6891 -0.8894
 3942WAT    EPW16490   2.051   6.160   5.978 -0.3860 -0.7968 -0.1178
 3943WAT      O16491   5.066   3.979   0.833 -0.9101  0.3809  0.4509
 3943WAT     H116492   5.037   4.024   0.764 -0.2424 -0.6300 -0.5466
 3943WAT     H216493   5.014   4.003   0.898 -2.0981  0.7508 -0.6075
 3943WAT    EPW16494   5.054   3.989   0.832 -0.9870  0.2862  0.1472
 3944WAT      O16495   2.176   0.985   5.825 -0.7721 -0.2833  0.2418
 3944WAT     H116496   2.106   1.014   5.868 -0.1819 -0.2087  1.1834
 3944WAT     H216497   2.193   0.908   5.862 -0.7705 -0.6249 -0.4601
 3944WAT    EPW16498   2.168   0.978   5.837 -0.6847 -0.3228  0.2772
 3945WAT      O16499   3.299   5.620   4.794  0.3430 -0.2693 -0.0737
 3945WAT     H116500   3.329   5.699   4.817  0.7609 -0.6726  0.8220
 3945WAT     H216501   3.299   5.576   4.869  2.8965 -2.0368 -0.9913
 3945WAT    EPW16502   3.303   5.625   4.809  0.7819 -0.5900 -0.0769
 3946WAT      O16503   0.919   3.879   0.783  0.6953 -0.9125 -0.1997
 3946WAT     H116504   0.861   3.916   0.837  2.1342  0.4022  0.5241
 3946WAT     H216505   0.944   3.944   0.732  2.0559 -1.2441 -0.0132
 3946WAT    EPW16506   0.914   3.894   0.784  1.1089 -0.7673 -0.0653
 3947WAT      O16507   7.125   6.950   2.989  0.5220 -0.2251  0.0310
 3947WAT     H116508   7.077   7.006   2.942 -2.2289 -2.1047  0.3053
 3947WAT     H216509   7.187   6.925   2.933  0.1786  1.0661 -0.9897
 3947WAT    EPW16510   7.127   6.954   2.974  0.0649 -0.3120 -0.0793
 3948WAT      O16511   3.401   0.010   3.526  0.1564 -0.2830  0.3287
 3948WAT     H116512   3.319   0.004   3.496  0.0470  0.8628  0.3521
 3948WAT     H216513   3.425  -0.074   3.536 -1.5126 -0.6708  1.6746
 3948WAT    EPW16514   3.393  -0.003   3.523 -0.1063 -0.1710  0.5310
 3949WAT      O16515   6.391   7.065   4.315 -0.1116  0.4082 -0.1437
 3949WAT     H116516   6.385   7.120   4.248  0.0059 -1.5018 -1.8141
 3949WAT     H216517   6.309   7.063   4.347 -0.4102  0.5802 -0.8773
 3949WAT    EPW16518   6.378   7.073   4.310 -0.1383  0.1514 -0.4988
 3950WAT      O16519   6.839   7.103   4.236 -0.5744 -0.3907 -0.7255
 3950WAT     H116520   6.899   7.146   4.283  0.0772 -1.2094 -0.7932
 3950WAT     H216521   6.765   7.144   4.257  0.1083  1.2995 -1.4140
 3950WAT    EPW16522   6.837   7.116   4.246 -0.3773 -0.2620 -0.8372
 3951WAT      O16523   7.085   0.471   0.507 -0.6755  0.2631 -0.2101
 3951WAT     H116524   7.033   0.412   0.545 -0.2737  0.4067  0.5641
 3951WAT     H216525   7.097   0.438   0.427 -0.4730 -0.7130  0.2064
 3951WAT    EPW16526   7.079   0.457   0.501 -0.5862  0.1401 -0.0342
 3952WAT      O16527   0.382   0.804   3.219  0.8384  0.2793 -0.1432
 3952WAT     H116528   0.300   0.830   3.206  0.4096 -0.1677  1.5317
 3952WAT     H216529   0.378   0.717   3.211  1.1377  0.2489  0.0296
 3952WAT    EPW16530   0.369   0.795   3.216  0.8193  0.2088  0.1298
 3953WAT      O16531   6.146   4.624   3.131 -0.4403 -0.2967 -0.1470
 3953WAT     H116532   6.230   4.628   3.153 -0.7526 -1.8097  1.5504
 3953WAT     H216533   6.142   4.555   3.078 -0.9696 -1.9884  1.9775
 3953WAT    EPW16534   6.158   4.615   3.126 -0.5646 -0.7701  0.4176
 3954WAT      O16535   2.738   1.025   5.329 -0.6261 -0.0496 -0.1808
 3954WAT     H116536   2.741   1.025   5.416  1.0525 -0.4855 -0.1986
 3954WAT     H216537   2.702   0.948   5.310 -0.7638 -0.0628  0.1240
 3954WAT    EPW16538   2.733   1.014   5.339 -0.3985 -0.1160 -0.1384
 3955WAT      O16539   0.760   6.762   5.725 -0.2072  0.0332 -0.2892
 3955WAT     H116540   0.759   6.705   5.659  3.1025 -1.8091  1.0393
 3955WAT     H216541   0.694   6.736   5.776 -1.6085  0.3394 -1.8437
 3955WAT    EPW16542   0.750   6.750   5.723  0.0747 -0.1937 -0.3226
 3956WAT      O16543   0.273   3.635   3.006 -0.3657 -0.4726  0.2000
 3956WAT     H116544   0.344   3.680   3.030 -0.9966  1.1137 -0.7214
 3956WAT     H216545   0.220   3.641   3.076 -0.8422  1.1714 -0.2512
 3956WAT    EPW16546   0.275   3.643   3.020 -0.5293  0.0046 -0.0027
 3957WAT      O16547   5.809   0.901   0.701 -0.5530 -0.7065 -0.1827
 3957WAT     H116548   5.736   0.890   0.748 -1.8660 -1.5445 -2.2847
 3957WAT     H216549   5.780   0.931   0.625  1.3504 -0.7608 -0.9896
 3957WAT    EPW16550   5.794   0.904   0.697 -0.4658 -0.8383 -0.6124
 3958WAT      O16551   3.694   3.151   0.819 -0.1374 -0.6026 -0.1251
 3958WAT     H116552   3.700   3.142   0.905  0.1213  0.1197 -0.0588
 3958WAT     H216553   3.739   3.083   0.788  1.9878  0.5155  0.3390
 3958WAT    EPW16554   3.702   3.139   0.827  0.2147 -0.3307 -0.0467
 3959WAT      O16555   1.781   1.634   3.166 -0.0931 -0.0990  0.0430
 3959WAT     H116556   1.715   1.578   3.150 -0.3942  0.7948 -2.2368
 3959WAT     H216557   1.840   1.585   3.207 -1.2124 -1.5406  0.0085
 3959WAT    EPW16558   1.780   1.618   3.169 -0.3029 -0.1799 -0.2989
 3960WAT      O16559   4.063   0.217   6.019  0.2575 -0.4228  0.3061
 3960WAT     H116560   4.064   0.300   5.992 -0.1153 -0.3578  0.4826
 3960WAT     H216561   4.043   0.224   6.104  0.0015 -0.7037  0.2713
 3960WAT    EPW16562   4.060   0.230   6.028  0.1646 -0.4547  0.3270
 3961WAT      O16563   3.616   6.944   3.861 -0.1324  0.0882 -0.1344
 3961WAT     H116564   3.529   6.944   3.869 -0.3382  2.1767 -1.4460
 3961WAT     H216565   3.643   6.984   3.934 -0.4161  0.7475 -0.3773
 3961WAT    EPW16566   3.607   6.950   3.873 -0.2047  0.4941 -0.3640
 3962WAT      O16567   0.114   2.693   7.299  0.3001 -0.5416  0.1523
 3962WAT     H116568   0.098   2.614   7.332 -3.0996 -0.6266 -1.2732
 3962WAT     H216569   0.181   2.722   7.347  2.5339 -4.6392 -0.0354
 3962WAT    EPW16570   0.122   2.686   7.311  0.1279 -1.1594 -0.0860
 3963WAT      O16571   0.239   3.260   4.592  0.0278  0.2691  0.0788
 3963WAT     H116572   0.262   3.344   4.584 -1.3136  0.8572  1.7382
 3963WAT     H216573   0.236   3.249   4.679  2.6950 -2.2462 -0.0136
 3963WAT    EPW16574   0.242   3.271   4.604  0.2237 -0.0156  0.3103
 3964WAT      O16575   6.445   2.921   2.387 -0.0645  0.2645 -0.5992
 3964WAT     H116576   6.519   2.960   2.363  0.1660  0.8509  0.9631
 3964WAT     H216577   6.387   2.949   2.328  0.1827  2.6897  0.2185
 3964WAT    EPW16578   6.447   2.931   2.374  0.0061  0.7094 -0.2476
 3965WAT      O16579   0.202   4.435   6.180  0.6769 -0.3803  0.1578
 3965WAT     H116580   0.173   4.510   6.216  2.1791 -0.6427  2.0880
 3965WAT     H216581   0.184   4.445   6.095  0.6293  2.0852  0.3807
 3965WAT    EPW16582   0.195   4.448   6.173  0.8918 -0.0549  0.4759
 3966WAT      O16583   1.729   1.799   0.710  0.3846  0.5637 -0.1762
 3966WAT     H116584   1.744   1.751   0.782 -0.2661  1.1939  0.3875
 3966WAT     H216585   1.649   1.831   0.723 -0.6167 -0.9648 -2.1201
 3966WAT    EPW16586   1.719   1.796   0.722  0.1406  0.4310 -0.3801
 3967WAT      O16587   7.272   0.005   3.845  0.1032 -0.6117  0.2334
 3967WAT     H116588   7.261   0.063   3.781 -1.6242  0.1267  1.1269
 3967WAT     H216589   7.192  -0.005   3.878  0.5261 -2.7961  0.7422
 3967WAT    EPW16590   7.259   0.012   3.841 -0.0895 -0.8253  0.4405
 3968WAT      O16591   2.100   3.949   6.633 -0.0989 -0.5155 -0.0654
 3968WAT     H116592   2.105   3.904   6.558 -0.1822 -0.6646  0.0180
 3968WAT     H216593   2.092   4.031   6.607 -1.9217 -0.7228 -0.2482
 3968WAT    EPW16594   2.100   3.954   6.618 -0.3805 -0.5682 -0.0801
 3969WAT      O16595   7.153   4.251   3.495 -0.1453  0.2375 -0.0265
 3969WAT     H116596   7.067   4.241   3.486  0.1558 -2.0464 -1.1547
 3969WAT     H216597   7.170   4.213   3.572  0.0970 -1.7345 -0.9814
 3969WAT    EPW16598   7.143   4.244   3.505 -0.0651 -0.3912 -0.3342
 3970WAT      O16599   5.624   3.523   1.871  0.2958  0.0128  0.3841
 3970WAT     H116600   5.636   3.494   1.952  1.4266 -0.6841 -0.0044
 3970WAT     H216601   5.588   3.455   1.830  0.6095  0.0287  0.0761
 3970WAT    EPW16602   5.621   3.509   1.877  0.5092 -0.0878  0.2812
 3971WAT      O16603   0.022   2.352   3.043  0.5203  0.2297 -0.1505
 3971WAT     H116604  -0.056   2.323   3.015  0.4157 -0.1229  0.4678
 3971WAT     H216605   0.064   2.279   3.066  0.7319  0.4737  0.2560
 3971WAT    EPW16606   0.016   2.337   3.043  0.5361  0.2136  0.0009
 3972WAT      O16607   7.228   2.831   0.087 -0.5574  0.2712 -0.2451
 3972WAT     H116608   7.299   2.790   0.057  0.0331 -0.9154  2.5526
 3972WAT     H216609   7.162   2.777   0.066 -0.1664 -0.4885  0.4351
 3972WAT    EPW16610   7.228   2.817   0.079 -0.4124 -0.0163  0.2687
 3973WAT      O16611   4.661   0.404   0.458 -0.4030  0.0683 -0.6409
 3973WAT     H116612   4.654   0.490   0.446 -0.7337  0.0165 -0.8507
 3973WAT     H216613   4.638   0.393   0.541  1.6728  0.4039  0.0284
 3973WAT    EPW16614   4.656   0.415   0.469 -0.1452  0.1102 -0.5730
 3974WAT      O16615   0.278   0.884   4.769 -0.4177  0.4534 -0.3229
 3974WAT     H116616   0.204   0.914   4.805  0.6776  2.5748  0.3509
 3974WAT     H216617   0.332   0.952   4.774  1.3078 -0.7299 -1.6615
 3974WAT    EPW16618   0.275   0.898   4.775 -0.0010  0.5920 -0.4211
 3975WAT      O16619   5.466   5.679   2.270  0.4288  0.2212 -0.1692
 3975WAT     H116620   5.491   5.717   2.195  0.1439  0.1205 -0.3129
 3975WAT     H216621   5.541   5.673   2.315  0.4063  1.5125  0.1078
 3975WAT    EPW16622   5.481   5.684   2.266  0.3834  0.3970 -0.1495
 3976WAT      O16623   6.384   5.662   3.065 -0.2779  0.3964 -0.2538
 3976WAT     H116624   6.341   5.726   3.107 -1.5353  0.0095 -0.8748
 3976WAT     H216625   6.390   5.693   2.983  0.4601  0.3503 -0.2219
 3976WAT    EPW16626   6.378   5.676   3.059 -0.3546  0.3325 -0.3408
 3977WAT      O16627   4.622   5.689   6.287  0.4763  0.4225 -0.3434
 3977WAT     H116628   4.544   5.667   6.317  0.2258  0.7977 -0.6981
 3977WAT     H216629   4.608   5.704   6.202  1.7703 -3.8354 -1.5662
 3977WAT    EPW16630   4.609   5.688   6.279  0.6304 -0.1510 -0.5764
 3978WAT      O16631   0.700   6.372   1.838  0.4389 -0.2748  0.0529
 3978WAT     H116632   0.643   6.311   1.862 -0.2412  0.7398  1.0872
 3978WAT     H216633   0.712   6.356   1.753  0.5122 -2.0045  0.3521
 3978WAT    EPW16634   0.694   6.361   1.829  0.3493 -0.3805  0.2499
 3979WAT      O16635   5.947   4.913   1.446  0.2425  0.0049  0.1969
 3979WAT     H116636   5.938   4.827   1.432 -1.4380 -0.1210  1.6353
 3979WAT     H216637   5.996   4.940   1.379  2.9187 -2.4600  0.9617
 3979WAT    EPW16638   5.953   4.904   1.434  0.3896 -0.3778  0.5224
 3980WAT      O16639   1.678   4.942   4.472 -0.3758  0.5286  0.1892
 3980WAT     H116640   1.595   4.964   4.458 -0.7561 -0.2553  1.0959
 3980WAT     H216641   1.723   5.004   4.430 -1.3884 -0.3270 -2.3547
 3980WAT    EPW16642   1.673   4.955   4.464 -0.5816  0.2864 -0.0526
 3981WAT      O16643   3.364   0.707   6.159 -0.1503 -0.4141 -0.4300
 3981WAT     H116644   3.291   0.751   6.141 -0.3092 -1.1513 -1.6898
 3981WAT     H216645   3.426   0.769   6.156 -0.5100 -0.0723 -1.0171
 3981WAT    EPW16646   3.362   0.723   6.156 -0.2269 -0.4725 -0.7028
 3982WAT      O16647   4.257   2.416   0.562  0.1603  0.7819 -0.3170
 3982WAT     H116648   4.208   2.487   0.572 -2.5436 -1.1495  1.3612
 3982WAT     H216649   4.237   2.388   0.482  1.4542  1.9327 -1.1038
 3982WAT    EPW16650   4.247   2.422   0.551 -0.0480  0.6665 -0.1853
 3983WAT      O16651   0.321   2.927   5.019  0.4475 -0.5532  0.2415
 3983WAT     H116652   0.357   2.890   5.089  0.8021 -0.9349 -0.1374
 3983WAT     H216653   0.386   2.929   4.960  0.1741 -0.1825 -0.0618
 3983WAT    EPW16654   0.336   2.922   5.020  0.4595 -0.5548  0.1407
 3984WAT      O16655   5.045   5.199   0.655  0.7022 -0.3625 -0.0098
 3984WAT     H116656   5.120   5.243   0.663 -0.5110  1.6575  1.1858
 3984WAT     H216657   5.007   5.236   0.585 -0.5488  0.9620  1.2955
 3984WAT    EPW16658   5.051   5.211   0.646  0.3382  0.1315  0.3596
 3985WAT      O16659   0.516   1.111   2.752 -0.4746 -0.1309 -0.4877
 3985WAT     H116660   0.545   1.185   2.788  0.0681 -0.2356 -0.7099
 3985WAT     H216661   0.471   1.074   2.816 -0.5502  0.2782 -0.3000
 3985WAT    EPW16662   0.514   1.116   2.767 -0.4056 -0.0860 -0.4928
 3986WAT      O16663   3.459   7.072   0.664  0.0440  0.2676 -0.2816
 3986WAT     H116664   3.482   6.992   0.636 -2.1531 -0.6106  0.2709
 3986WAT     H216665   3.472   7.122   0.594  1.0272 -0.6353 -0.7846
 3986WAT    EPW16666   3.465   7.067   0.649 -0.1353  0.0045 -0.2743
 3987WAT      O16667   3.325   1.393   2.771  0.3480  0.3550  0.2516
 3987WAT     H116668   3.261   1.442   2.804  0.2363  0.1040  0.4198
 3987WAT     H216669   3.298   1.311   2.789 -0.3894  0.1315 -1.6614
 3987WAT    EPW16670   3.311   1.388   2.779  0.2225  0.2849 -0.0061
 3988WAT      O16671   1.266   0.987   6.066  0.0145 -0.4794 -0.8173
 3988WAT     H116672   1.206   0.925   6.050 -2.3032  0.8884  1.7352
 3988WAT     H216673   1.229   1.060   6.034 -0.1467  0.5427  1.5492
 3988WAT    EPW16674   1.251   0.989   6.059 -0.3517 -0.1264 -0.0907
 3989WAT      O16675   0.927   1.151   5.888  1.1455 -1.3126 -0.2256
 3989WAT     H116676   0.891   1.125   5.963  1.0531 -0.8878 -0.1239
 3989WAT     H216677   0.923   1.079   5.838 -1.9507 -0.7567 -1.0436
 3989WAT    EPW16678   0.921   1.136   5.891  0.6744 -1.1677 -0.3314
 3990WAT      O16679   6.494   4.363   3.085  0.2704 -0.3243 -0.1360
 3990WAT     H116680   6.577   4.388   3.081  0.9854 -2.1002  1.7194
 3990WAT     H216681   6.457   4.422   3.137 -0.2768  1.7316 -2.6269
 3990WAT    EPW16682   6.501   4.375   3.092  0.2952 -0.2830 -0.2299
 3991WAT      O16683   2.479   4.093   1.709  0.3901  0.2121  0.1930
 3991WAT     H116684   2.440   4.168   1.686 -0.6238 -0.4325 -0.2568
 3991WAT     H216685   2.554   4.119   1.744  0.1904  1.4294 -0.2359
 3991WAT    EPW16686   2.484   4.108   1.711  0.2108  0.2967  0.0632
 3992WAT      O16687   6.966   5.834   6.115  0.1028 -0.0204 -0.0782
 3992WAT     H116688   6.902   5.784   6.147 -0.5462  0.1167 -1.1335
 3992WAT     H216689   7.034   5.779   6.110 -0.1235 -0.3478  0.3970
 3992WAT    EPW16690   6.967   5.818   6.119 -0.0265 -0.0485 -0.1639
 3993WAT      O16691   7.186   0.908   0.756 -0.2380 -0.4371 -0.2724
 3993WAT     H116692   7.125   0.913   0.818 -0.9612  4.8340 -0.9857
 3993WAT     H216693   7.141   0.902   0.682  0.4877 -2.4751 -0.6244
 3993WAT    EPW16694   7.170   0.908   0.754 -0.2377  0.0405 -0.4297
 3994WAT      O16695   3.891   3.967   0.255 -0.1562 -0.0769 -0.0871
 3994WAT     H116696   3.826   3.919   0.221  0.9748 -0.2448 -2.2051
 3994WAT     H216697   3.932   3.997   0.184  0.6942  1.9626  1.1961
 3994WAT    EPW16698   3.887   3.964   0.239  0.1365  0.1996 -0.2105
 3995WAT      O16699   1.585   6.708   0.145 -0.0112  0.7061 -0.3063
 3995WAT     H116700   1.560   6.625   0.154  2.2451 -0.1842 -1.3397
 3995WAT     H216701   1.558   6.728   0.064 -1.1031  1.2183  0.1726
 3995WAT    EPW16702   1.578   6.699   0.134  0.1608  0.6503 -0.3882
 3996WAT      O16703   6.178   5.018   4.220  0.1119  0.6689 -0.0809
 3996WAT     H116704   6.111   5.068   4.195  0.9204  1.0147 -1.6567
 3996WAT     H216705   6.146   4.975   4.289 -0.9384  2.6088  0.7392
 3996WAT    EPW16706   6.163   5.019   4.227  0.0762  1.0066 -0.1926
 3997WAT      O16707   4.288   2.512   0.835  0.2755 -0.1415  0.2439
 3997WAT     H116708   4.286   2.487   0.752 -0.3329  0.9363 -0.0865
 3997WAT     H216709   4.223   2.466   0.872  2.1794 -2.6292  0.7855
 3997WAT    EPW16710   4.278   2.502   0.828  0.4668 -0.3497  0.2751
 3998WAT      O16711   1.210   1.807   3.516  0.2779 -0.2510  0.2294
 3998WAT     H116712   1.131   1.821   3.481  0.8895  3.5305  0.0305
 3998WAT     H216713   1.265   1.826   3.451  1.3836 -0.0814  1.1916
 3998WAT    EPW16714   1.206   1.812   3.501  0.5316  0.3327  0.3422
 3999WAT      O16715   1.040   1.414   5.541 -0.0324 -0.0238 -0.2895
 3999WAT     H116716   1.047   1.465   5.470 -1.8278 -0.4608 -0.8285
 3999WAT     H216717   1.004   1.466   5.601  2.0181  0.5190  0.5584
 3999WAT    EPW16718   1.036   1.429   5.539  0.0053 -0.0082 -0.2438
 4000WAT      O16719   1.100   2.450   2.559  0.3319 -0.2585  0.4779
 4000WAT     H116720   1.181   2.418   2.564  0.4377 -0.0488  0.1878
 4000WAT     H216721   1.091   2.496   2.632  0.3379 -0.5928  0.6884
 4000WAT    EPW16722   1.111   2.452   2.570  0.3484 -0.2769  0.4661
 4001WAT      O16723   4.909   4.902   5.083  0.2491  0.9117  0.1601
 4001WAT     H116724   4.902   4.846   5.016  1.5316  1.1299 -0.1885
 4001WAT     H216725   4.912   4.851   5.153  0.7277  0.5773 -0.1022
 4001WAT    EPW16726   4.908   4.887   5.083  0.5092  0.8946  0.0698
 4002WAT      O16727   5.891   3.692   1.973  0.2944  0.2334  0.5001
 4002WAT     H116728   5.823   3.726   1.930 -0.4424 -0.3083  1.1976
 4002WAT     H216729   5.854   3.655   2.043  1.2815 -0.3104  0.7490
 4002WAT    EPW16730   5.875   3.691   1.977  0.3314  0.0731  0.6399
 4003WAT      O16731   2.495   1.661   2.147 -0.3259 -0.8408  0.4730
 4003WAT     H116732   2.581   1.668   2.138 -0.6194  2.7154 -2.1670
 4003WAT     H216733   2.476   1.720   2.208 -0.9642  0.0387 -0.5306
 4003WAT    EPW16734   2.505   1.671   2.155 -0.4635 -0.1856 -0.0652
 4004WAT      O16735   5.237   3.906   3.011 -0.1495  0.2248 -0.3765
 4004WAT     H116736   5.300   3.846   3.017  0.3619  0.8991  1.6470
 4004WAT     H216737   5.165   3.859   3.000  0.2007 -0.8296  1.5035
 4004WAT    EPW16738   5.236   3.890   3.010 -0.0222  0.1686  0.2002
 4005WAT      O16739   2.670   1.319   3.578  0.3659  0.7096  0.3826
 4005WAT     H116740   2.747   1.284   3.600  1.2876  2.7928  0.7294
 4005WAT     H216741   2.627   1.252   3.542  2.9429 -0.1855 -1.3341
 4005WAT    EPW16742   2.675   1.304   3.576  0.8827  0.8851  0.1803
 4006WAT      O16743   1.405   4.485   3.372 -0.3120 -0.0263  0.3174
 4006WAT     H116744   1.424   4.400   3.385  0.9321  0.5582  3.0750
 4006WAT     H216745   1.483   4.524   3.382 -0.9353  1.4878 -0.5716
 4006WAT    EPW16746   1.420   4.478   3.375 -0.2203  0.2837  0.5934
 4007WAT      O16747   6.355   2.273   4.718 -0.0508 -0.1086 -0.3481
 4007WAT     H116748   6.411   2.234   4.664  0.6146 -0.2254  0.4078
 4007WAT     H216749   6.393   2.264   4.796 -0.7229  0.5453  0.0596
 4007WAT    EPW16750   6.369   2.266   4.722 -0.0518 -0.0293 -0.1762
 4008WAT      O16751   1.659   3.638   5.502 -0.2145 -0.2778 -0.3739
 4008WAT     H116752   1.742   3.630   5.528 -0.0778  0.2240 -0.6489
 4008WAT     H216753   1.627   3.557   5.512 -0.6055  0.1438  2.7625
 4008WAT    EPW16754   1.667   3.625   5.507 -0.2521 -0.1414  0.0488
 4009WAT      O16755   3.333   0.890   0.721 -0.2768 -0.0410 -0.0944
 4009WAT     H116756   3.289   0.955   0.683 -0.1099  0.1336  0.0080
 4009WAT     H216757   3.417   0.909   0.703 -0.1578  0.3734  0.8676
 4009WAT    EPW16758   3.339   0.903   0.713 -0.2346  0.0460  0.0628
 4010WAT      O16759   3.407   4.488   6.742 -0.2777 -0.1688 -0.1830
 4010WAT     H116760   3.466   4.424   6.737 -1.8915 -1.7220 -0.3789
 4010WAT     H216761   3.454   4.560   6.728  1.2671 -1.4870 -2.5432
 4010WAT    EPW16762   3.423   4.489   6.739 -0.2879 -0.5930 -0.5606
 4011WAT      O16763   3.959   4.813   4.128 -0.2998  0.2403  0.3352
 4011WAT     H116764   3.995   4.853   4.196 -1.6468  0.8975  0.6927
 4011WAT     H216765   3.953   4.730   4.154 -0.2904  0.3817  0.7975
 4011WAT    EPW16766   3.963   4.807   4.141 -0.4974  0.3583  0.4563
 4012WAT      O16767   6.445   1.761   2.586  0.1106  0.0685 -0.3009
 4012WAT     H116768   6.363   1.745   2.609 -0.6040  0.5789 -2.2807
 4012WAT     H216769   6.453   1.847   2.592  0.4348  0.0466 -0.3609
 4012WAT    EPW16770   6.434   1.771   2.590  0.0529  0.1407 -0.6022
 4013WAT      O16771   5.441   0.397   6.623  0.3348  0.6913 -0.3728
 4013WAT     H116772   5.359   0.410   6.648  0.3990 -0.5982  0.6275
 4013WAT     H216773   5.439   0.317   6.588  0.6646  1.6454 -2.7673
 4013WAT    EPW16774   5.429   0.387   6.621  0.3930  0.6418 -0.5788
 4014WAT      O16775   6.147   7.041   1.514 -0.2036 -0.7670 -0.7728
 4014WAT     H116776   6.146   6.954   1.525  0.0943 -0.6000  0.7567
 4014WAT     H216777   6.098   7.052   1.442 -3.8906 -1.9171  1.2480
 4014WAT    EPW16778   6.139   7.030   1.505 -0.7042 -0.9122 -0.2484
 4015WAT      O16779   5.562   4.181   2.783 -0.1419  0.2488 -0.3252
 4015WAT     H116780   5.484   4.147   2.765  0.2236 -2.3340  2.3292
 4015WAT     H216781   5.568   4.177   2.870  2.9271  0.4078 -0.3972
 4015WAT    EPW16782   5.551   4.176   2.793  0.3654 -0.1093  0.0562
 4016WAT      O16783   6.976   3.720   5.511  0.4177  0.3761  0.1015
 4016WAT     H116784   6.994   3.792   5.557 -2.5761  2.0026 -0.9562
 4016WAT     H216785   6.993   3.745   5.429  2.8396 -1.4619 -0.0475
 4016WAT    EPW16786   6.981   3.735   5.505  0.3332  0.3448 -0.0768
 4017WAT      O16787   0.049   6.312   1.513  0.0494 -0.1001  0.5442
 4017WAT     H116788   0.133   6.323   1.493 -0.6956  1.7947 -1.9827
 4017WAT     H216789   0.043   6.346   1.593  1.2876  2.1326 -0.2223
 4017WAT    EPW16790   0.061   6.319   1.522  0.1223  0.5096  0.0577
 4018WAT      O16791   4.545   0.150   6.143  0.2154 -0.0332  0.0013
 4018WAT     H116792   4.465   0.128   6.117 -0.0340 -0.8307  1.3497
 4018WAT     H216793   4.597   0.101   6.092 -0.2192 -0.8116  0.2979
 4018WAT    EPW16794   4.541   0.139   6.131  0.1144 -0.2660  0.2443
 4019WAT      O16795   6.988   0.368   3.327 -0.0117 -0.5652  0.3203
 4019WAT     H116796   6.934   0.385   3.261  0.0232 -1.4655  0.0481
 4019WAT     H216797   7.058   0.416   3.309 -0.1364 -0.5451 -0.1272
 4019WAT    EPW16798   6.990   0.377   3.314 -0.0250 -0.6952  0.2140
 4020WAT      O16799   6.580   5.186   3.287 -0.0941  0.5864 -0.1480
 4020WAT     H116800   6.645   5.229   3.325 -1.3456  1.2921  1.3085
 4020WAT     H216801   6.621   5.128   3.235  1.6467  1.5025  0.1353
 4020WAT    EPW16802   6.595   5.184   3.285 -0.0218  0.8260  0.1090
 4021WAT      O16803   3.540   2.001   4.914 -0.4422 -0.0847 -0.3837
 4021WAT     H116804   3.505   2.077   4.940  0.0386  0.0803 -0.1951
 4021WAT     H216805   3.498   1.942   4.963 -1.0595  0.0225 -0.7733
 4021WAT    EPW16806   3.529   2.004   4.925 -0.4624 -0.0445 -0.4134
 4022WAT      O16807   0.813   5.853   6.630  0.2824 -0.1390  0.1651
 4022WAT     H116808   0.830   5.924   6.583  1.4069 -0.9867 -0.7695
 4022WAT     H216809   0.833   5.877   6.712  0.5896  0.6348 -0.1334
 4022WAT    EPW16810   0.818   5.867   6.635  0.4939 -0.1499 -0.0170
 4023WAT      O16811   0.832   3.061   5.678  0.6969 -0.2822 -0.0008
 4023WAT     H116812   0.788   3.128   5.713 -0.5486 -1.0348 -0.0970
 4023WAT     H216813   0.845   3.085   5.595  0.3401 -0.1216 -0.0081
 4023WAT    EPW16814   0.827   3.074   5.671  0.4602 -0.3696 -0.0161
 4024WAT      O16815   5.423   2.097   1.932 -0.6521 -0.3374 -0.3743
 4024WAT     H116816   5.398   2.070   1.852  0.1224 -2.1818 -0.0548
 4024WAT     H216817   5.377   2.045   1.985  2.1194 -2.3891  0.2590
 4024WAT    EPW16818   5.412   2.085   1.928 -0.1283 -0.9129 -0.2336
 4025WAT      O16819   2.421   6.933   5.455  0.1597 -0.4114  0.0048
 4025WAT     H116820   2.467   6.960   5.386 -0.9607  0.1532 -0.5390
 4025WAT     H216821   2.479   6.887   5.501  1.1950  0.0555 -0.7927
 4025WAT    EPW16822   2.436   6.930   5.452  0.1471 -0.2590 -0.1934
 4026WAT      O16823   2.437   5.634   3.372  0.2274  0.2174 -0.4386
 4026WAT     H116824   2.466   5.621   3.291 -0.8468 -0.9238 -0.6908
 4026WAT     H216825   2.460   5.716   3.390 -1.4468  1.3430 -2.7732
 4026WAT    EPW16826   2.445   5.644   3.363 -0.1786  0.2151 -0.8207
 4027WAT      O16827   2.512   3.755   1.220  0.1453 -0.3846 -0.3992
 4027WAT     H116828   2.469   3.811   1.168  0.9442  2.3540  1.6318
 4027WAT     H216829   2.465   3.682   1.216 -2.6579  1.3055 -1.0335
 4027WAT    EPW16830   2.499   3.753   1.212 -0.1508  0.2696 -0.1929
 4028WAT      O16831   2.074   0.937   5.557  0.0027 -0.6343 -0.2663
 4028WAT     H116832   2.134   0.961   5.499  0.3043  0.9014  0.6395
 4028WAT     H216833   2.108   0.961   5.634 -1.4423 -0.4030  0.3418
 4028WAT    EPW16834   2.088   0.944   5.560 -0.1662 -0.3733 -0.0427
 4029WAT      O16835   3.718   2.183   4.599  0.0474 -0.2699  0.2386
 4029WAT     H116836   3.642   2.184   4.643  0.4524 -1.9858  1.0757
 4029WAT     H216837   3.751   2.262   4.614 -1.8005  0.7210 -0.6095
 4029WAT    EPW16838   3.712   2.195   4.608 -0.1658 -0.3770  0.2370
 4030WAT      O16839   0.650   6.315   6.088 -0.2146 -0.2687 -0.4479
 4030WAT     H116840   0.613   6.241   6.060 -1.9760 -0.0396  1.0769
 4030WAT     H216841   0.735   6.301   6.075 -0.4733 -2.6354 -0.0969
 4030WAT    EPW16842   0.657   6.302   6.082 -0.5130 -0.5844 -0.1708
 4031WAT      O16843   1.606   1.190   0.491  0.0692 -0.4643  0.4458
 4031WAT     H116844   1.671   1.227   0.447  0.3473 -1.2836  0.1554
 4031WAT     H216845   1.621   1.212   0.574  0.9209 -0.9376  0.4241
 4031WAT    EPW16846   1.618   1.198   0.497  0.2361 -0.6553  0.3997
 4032WAT      O16847   6.640   2.402   0.396 -0.8922  0.2281 -0.2010
 4032WAT     H116848   6.646   2.486   0.422 -0.1210 -0.2775  1.4149
 4032WAT     H216849   6.565   2.399   0.352 -1.4051  1.5757  0.5132
 4032WAT    EPW16850   6.630   2.414   0.393 -0.8541  0.3525  0.1432
 4033WAT      O16851   1.613   4.895   0.129 -0.4741  0.2337  0.0568
 4033WAT     H116852   1.609   4.936   0.052  0.3058 -0.4209 -0.3572
 4033WAT     H216853   1.621   4.811   0.107  0.8313  0.1262  0.8203
 4033WAT    EPW16854   1.614   4.889   0.114 -0.1661  0.1211  0.1084
 4034WAT      O16855   0.602   2.463   1.465 -0.4784  0.4268 -0.4951
 4034WAT     H116856   0.595   2.518   1.532 -1.4883  0.7418 -0.8405
 4034WAT     H216857   0.683   2.476   1.436 -0.7277  1.7949 -0.6258
 4034WAT    EPW16858   0.613   2.473   1.471 -0.6644  0.6754 -0.5655
 4035WAT      O16859   0.018   5.760   2.474 -0.2944 -0.5145  0.1453
 4035WAT     H116860   0.009   5.708   2.544  1.2096  1.3483  1.8509
 4035WAT     H216861  -0.030   5.830   2.495 -1.1192 -0.5486 -1.4597
 4035WAT    EPW16862   0.010   5.762   2.487 -0.1941 -0.2444  0.1601
 4036WAT      O16863   2.011   6.747   5.203  0.1639 -0.4557  0.0658
 4036WAT     H116864   2.028   6.662   5.204  2.5371 -0.1425 -2.2490
 4036WAT     H216865   2.063   6.779   5.265  0.0395 -0.5564  0.2252
 4036WAT    EPW16866   2.021   6.739   5.212  0.4961 -0.4243 -0.2526
 4037WAT      O16867   4.062   2.614   4.439  0.3068 -0.1696  0.2812
 4037WAT     H116868   4.147   2.624   4.420 -0.0697  0.6975 -1.0601
 4037WAT     H216869   4.038   2.546   4.391 -0.1406  0.6808 -0.7508
 4037WAT    EPW16870   4.071   2.606   4.429  0.1851  0.0841 -0.0694
 4038WAT      O16871   2.256   2.719   0.121  0.1100 -0.2346  0.3322
 4038WAT     H116872   2.332   2.737   0.081  0.0450  0.2624  0.4341
 4038WAT     H216873   2.229   2.797   0.149 -1.1698 -0.1686 -0.9731
 4038WAT    EPW16874   2.264   2.733   0.119 -0.0887 -0.1515  0.1544
 4039WAT      O16875   3.326   3.571   6.919  0.0675 -0.2753 -0.1358
 4039WAT     H116876   3.369   3.647   6.918  1.0964 -0.8431 -1.2513
 4039WAT     H216877   3.375   3.521   6.970  0.7687 -0.9183 -1.3939
 4039WAT    EPW16878   3.339   3.575   6.926  0.3231 -0.4541 -0.4864
 4040WAT      O16879   0.485   3.441   5.343 -0.3114  0.1312  0.7782
 4040WAT     H116880   0.543   3.379   5.322  1.4675  1.8393  0.3018
 4040WAT     H216881   0.467   3.426   5.427 -2.4506 -2.8788 -0.0531
 4040WAT    EPW16882   0.491   3.430   5.352 -0.3646 -0.0611  0.5850
 4041WAT      O16883   0.999   1.488   0.576 -0.4000 -0.3168 -0.4753
 4041WAT     H116884   1.045   1.424   0.540  1.2343  1.3013 -1.4758
 4041WAT     H216885   0.917   1.469   0.556 -0.3361 -3.4830  1.6130
 4041WAT    EPW16886   0.994   1.476   0.568 -0.1492 -0.5455 -0.3146
 4042WAT      O16887   6.375   3.011   4.720  0.2391 -0.0234 -1.0670
 4042WAT     H116888   6.344   3.092   4.714  0.4518  0.0914 -0.6444
 4042WAT     H216889   6.319   2.971   4.773  0.9891  0.2858  0.0005
 4042WAT    EPW16890   6.362   3.017   4.727  0.3813  0.0392 -0.8469
 4043WAT      O16891   7.277   0.867   3.687 -0.3567  0.3451 -0.2926
 4043WAT     H116892   7.303   0.787   3.711 -1.8416  0.2498  1.1953
 4043WAT     H216893   7.200   0.853   3.650 -0.2475  1.0189 -0.7915
 4043WAT    EPW16894   7.270   0.853   3.685 -0.5599  0.4306 -0.1465
 4044WAT      O16895   1.023   0.178   2.272  0.0377  0.2945 -0.1711
 4044WAT     H116896   1.079   0.149   2.332 -0.6716  2.0358  1.4284
 4044WAT     H216897   1.007   0.260   2.297 -2.2244  0.2681 -1.3115
 4044WAT    EPW16898   1.029   0.186   2.284 -0.4012  0.5478 -0.1033
 4045WAT      O16899   1.781   5.546   7.040 -0.5270  0.0458  0.1030
 4045WAT     H116900   1.812   5.625   7.061 -2.9394  0.6563  1.6294
 4045WAT     H216901   1.744   5.559   6.962 -0.9008  0.4129  0.3408
 4045WAT    EPW16902   1.780   5.559   7.031 -0.9386  0.1902  0.3636
 4046WAT      O16903   5.333   0.695   3.956  0.7569 -0.1817 -0.3109
 4046WAT     H116904   5.372   0.688   4.034  1.5868  0.9757 -0.5941
 4046WAT     H216905   5.251   0.717   3.976  0.6051 -1.2039  0.2603
 4046WAT    EPW16906   5.327   0.697   3.971  0.8571 -0.1617 -0.2684
 4047WAT      O16907   0.339   1.150   7.282 -0.2256 -0.1048 -0.1505
 4047WAT     H116908   0.357   1.233   7.266  0.7356 -0.0958  0.8700
 4047WAT     H216909   0.355   1.110   7.206 -1.0966  0.6864 -0.7617
 4047WAT    EPW16910   0.344   1.156   7.269 -0.2122  0.0134 -0.0901
 4048WAT      O16911   3.095   4.709   1.097 -0.1070  0.8311 -0.1619
 4048WAT     H116912   3.182   4.713   1.099  0.0672 -1.5082 -0.6801
 4048WAT     H216913   3.075   4.725   1.014 -0.0590 -0.0027 -0.3382
 4048WAT    EPW16914   3.105   4.712   1.085 -0.0741  0.3624 -0.2645
 4049WAT      O16915   2.314   7.037   6.968  0.4256 -0.1898  0.0293
 4049WAT     H116916   2.318   7.093   6.901 -0.6476  0.7189  0.6959
 4049WAT     H216917   2.355   6.967   6.938  1.2443  0.7181 -1.0699
 4049WAT    EPW16918   2.321   7.035   6.954  0.3880  0.0785 -0.0346
 4050WAT      O16919   6.097   6.104   6.823  0.2730  0.7426 -0.4042
 4050WAT     H116920   6.107   6.172   6.770 -1.0279 -0.0277 -1.6894
 4050WAT     H216921   6.179   6.075   6.836  1.0488  3.3621  1.3949
 4050WAT    EPW16922   6.111   6.110   6.817  0.1954  1.0158 -0.3283
 4051WAT      O16923   1.195   0.444   6.981 -0.6484  0.0064 -0.2049
 4051WAT     H116924   1.220   0.526   6.965  0.2927 -0.2477 -0.0877
 4051WAT     H216925   1.108   0.449   6.984 -0.6453  0.8309 -1.1195
 4051WAT    EPW16926   1.186   0.457   6.979 -0.5089  0.0907 -0.3227
 4052WAT      O16927   4.223   2.082   4.145  0.5974  0.0208  0.0504
 4052WAT     H116928   4.243   2.164   4.166  2.5100 -0.1743 -0.7682
 4052WAT     H216929   4.188   2.089   4.065 -0.1242  0.1239  0.3752
 4052WAT    EPW16930   4.221   2.095   4.136  0.7733  0.0072 -0.0225
 4053WAT      O16931   0.705   5.122   4.266  0.1658  0.3427 -0.5753
 4053WAT     H116932   0.747   5.076   4.327 -1.0427  0.4440  0.3744
 4053WAT     H216933   0.656   5.177   4.313 -3.0642 -1.5498 -1.4739
 4053WAT    EPW16934   0.704   5.124   4.282 -0.4899  0.0781 -0.5678
 4054WAT      O16935   3.659   5.266   5.845  0.1289 -0.1567  0.4041
 4054WAT     H116936   3.648   5.325   5.781 -0.0769 -1.5362 -0.8739
 4054WAT     H216937   3.744   5.249   5.843 -0.2323 -2.0718 -1.2820
 4054WAT    EPW16938   3.670   5.272   5.835  0.0452 -0.6434 -0.0337
 4055WAT      O16939   1.698   6.577   3.267 -0.2712 -0.3246 -0.1721
 4055WAT     H116940   1.643   6.614   3.323 -0.2239 -0.1207 -0.2568
 4055WAT     H216941   1.767   6.556   3.317 -0.5218 -0.7993 -0.0218
 4055WAT    EPW16942   1.700   6.579   3.283 -0.3013 -0.3646 -0.1624
 4056WAT      O16943   3.418   6.298   7.200 -0.0676 -0.3256  0.1431
 4056WAT     H116944   3.350   6.352   7.205 -0.8922 -1.2833 -0.4511
 4056WAT     H216945   3.398   6.244   7.134  0.7676 -1.2953  0.6453
 4056WAT    EPW16946   3.405   6.298   7.191 -0.0660 -0.6103  0.1295
 4057WAT      O16947   1.511   4.697   1.882 -0.2300 -0.2769  0.0313
 4057WAT     H116948   1.504   4.759   1.943 -1.2916 -0.6347  0.3015
 4057WAT     H216949   1.526   4.624   1.928 -0.6930 -0.4906 -0.1516
 4057WAT    EPW16950   1.512   4.695   1.898 -0.4553 -0.3613  0.0442
 4058WAT      O16951   3.651   2.027   2.959  0.0998  0.1811  0.1217
 4058WAT     H116952   3.718   1.987   2.998  0.1682 -0.4062 -0.5672
 4058WAT     H216953   3.615   2.074   3.022  0.2674 -0.6566  0.8541
 4058WAT    EPW16954   3.656   2.028   2.974  0.1347 -0.0294  0.1282
 4059WAT      O16955   2.729   4.256   6.137 -0.1957  0.3929  0.0598
 4059WAT     H116956   2.756   4.212   6.066 -1.2031 -1.1790  0.5882
 4059WAT     H216957   2.796   4.247   6.193  0.0284  0.4088 -0.2058
 4059WAT    EPW16958   2.743   4.248   6.135 -0.3114  0.1631  0.0986
 4060WAT      O16959   3.957   4.561   4.238  0.4308 -0.0556 -0.3909
 4060WAT     H116960   4.020   4.511   4.206 -0.5758 -2.2920  0.8737
 4060WAT     H216961   3.972   4.561   4.324 -0.4738  0.5295 -0.2148
 4060WAT    EPW16962   3.968   4.554   4.246  0.1485 -0.2995 -0.1780
 4061WAT      O16963   4.681   7.090   1.222  0.3698 -0.3603 -0.1685
 4061WAT     H116964   4.636   7.054   1.157 -2.0325  2.4308 -0.2660
 4061WAT     H216965   4.650   7.049   1.293 -1.1886  0.3495 -0.3899
 4061WAT    EPW16966   4.670   7.078   1.223 -0.2153  0.1568 -0.2156
 4062WAT      O16967   4.962   5.543   5.571 -0.3208  0.1594  0.1065
 4062WAT     H116968   5.003   5.620   5.563  0.6000 -0.3515 -0.2912
 4062WAT     H216969   4.889   5.563   5.614  0.4978  1.0638  1.1451
 4062WAT    EPW16970   4.957   5.557   5.576 -0.0639  0.2175  0.2012
 4063WAT      O16971   1.160   3.781   1.575 -0.0723 -0.0062  0.0819
 4063WAT     H116972   1.153   3.814   1.656 -1.2776  1.0597 -0.4188
 4063WAT     H216973   1.218   3.717   1.584  1.0511  1.1394  1.4549
 4063WAT    EPW16974   1.167   3.776   1.589 -0.0844  0.3205  0.2108
 4064WAT      O16975   5.130   1.973   5.258  0.1880  0.1448 -0.3182
 4064WAT     H116976   5.073   2.039   5.262  0.6943  0.8389 -2.8230
 4064WAT     H216977   5.079   1.902   5.254 -0.5775  0.7279 -2.2119
 4064WAT    EPW16978   5.114   1.973   5.258  0.1497  0.3335 -0.9679
 4065WAT      O16979   4.057   0.934   1.193  0.4058 -0.6150  0.4651
 4065WAT     H116980   4.116   0.937   1.129  0.1306 -0.1790  0.2262
 4065WAT     H216981   3.996   0.880   1.162 -0.2640  0.4358 -0.1221
 4065WAT    EPW16982   4.057   0.927   1.179  0.2662 -0.3953  0.3431
 4066WAT      O16983   0.975   2.081   6.367 -0.3223 -0.2996 -0.0106
 4066WAT     H116984   0.984   1.999   6.339  2.3547 -0.8225  1.9685
 4066WAT     H216985   1.011   2.128   6.303  0.8866 -0.9983  0.1052
 4066WAT    EPW16986   0.982   2.076   6.353  0.2517 -0.4801  0.2988
 4067WAT      O16987   3.769   1.102   6.923  1.0594 -0.7121 -0.4064
 4067WAT     H116988   3.708   1.071   6.868  0.5353 -0.6125  0.1146
 4067WAT     H216989   3.838   1.051   6.907  0.4365 -1.6891 -0.0785
 4067WAT    EPW16990   3.770   1.090   6.912  0.8900 -0.8417 -0.2810
 4068WAT      O16991   4.482   1.270   3.326 -0.3152  0.1281  0.2346
 4068WAT     H116992   4.450   1.231   3.397  0.4396 -1.9077 -0.4770
 4068WAT     H216993   4.567   1.279   3.345  0.1911 -1.7271 -0.8740
 4068WAT    EPW16994   4.490   1.266   3.340 -0.1289 -0.4467 -0.0343
 4069WAT      O16995   4.854   2.408   1.811  0.3458  0.1581  0.2565
 4069WAT     H116996   4.918   2.352   1.829  2.7590  2.9208  0.9733
 4069WAT     H216997   4.863   2.470   1.871 -3.5537  0.4171  0.8650
 4069WAT    EPW16998   4.865   2.409   1.822  0.1263  0.6044  0.4523
 4070WAT      O16999   2.045   3.776   2.697  0.2157 -0.0648  0.4721
 4070WAT     H117000   2.097   3.759   2.764  2.8697  0.4040 -1.3133
 4070WAT     H217001   2.018   3.857   2.711  1.5328  0.3766  0.5434
 4070WAT    EPW17002   2.049   3.785   2.709  0.8023  0.0696  0.2189
 4071WAT      O17003   5.621   3.288   3.718 -0.0618  0.5811  0.2398
 4071WAT     H117004   5.638   3.206   3.693 -1.8131  0.4172 -0.4773
 4071WAT     H217005   5.651   3.336   3.652 -1.3772  0.3566 -0.5354
 4071WAT    EPW17006   5.628   3.283   3.705 -0.5148  0.5237  0.0193
 4072WAT      O17007   0.091   3.446   1.061 -0.4646  0.1529  0.3740
 4072WAT     H117008   0.146   3.501   1.101 -0.8342  0.2628  0.7346
 4072WAT     H217009   0.083   3.480   0.981 -0.3395  0.3738  0.4545
 4072WAT    EPW17010   0.098   3.459   1.055 -0.5007  0.2018  0.4392
 4073WAT      O17011   6.401   1.784   4.218 -0.0757  0.3779 -0.4751
 4073WAT     H117012   6.367   1.771   4.139  1.2917 -0.4638 -0.9587
 4073WAT     H217013   6.389   1.707   4.258 -0.4012  0.6728  0.0065
 4073WAT    EPW17014   6.394   1.770   4.212  0.0782  0.2971 -0.4754
 4074WAT      O17015   1.860   2.730   5.074 -0.2203  0.3731 -0.1635
 4074WAT     H117016   1.847   2.799   5.125  1.4945  0.2399  0.5001
 4074WAT     H217017   1.946   2.715   5.080 -0.5211 -1.7734 -0.3270
 4074WAT    EPW17018   1.871   2.738   5.082 -0.0114  0.0364 -0.0896
 4075WAT      O17019   6.708   3.772   4.902  0.0799  0.2211 -0.5119
 4075WAT     H117020   6.675   3.696   4.928 -0.2814  0.7284  0.5519
 4075WAT     H217021   6.646   3.829   4.924  1.2949  1.1000  0.7924
 4075WAT    EPW17022   6.694   3.769   4.909  0.2060  0.4259 -0.1621
 4076WAT      O17023   2.561   1.666   1.723  0.1320 -0.7071  0.1096
 4076WAT     H117024   2.595   1.697   1.798 -0.3951  0.7375 -0.2132
 4076WAT     H217025   2.550   1.737   1.675 -0.7427 -1.4734 -0.8647
 4076WAT    EPW17026   2.565   1.681   1.727 -0.0751 -0.6069 -0.0820
 4077WAT      O17027   5.828   0.114   7.390  0.3034  0.1977 -0.2726
 4077WAT     H117028   5.914   0.113   7.405  0.0858 -0.4531  1.1365
 4077WAT     H217029   5.804   0.031   7.405 -0.4851  0.2265 -1.2603
 4077WAT    EPW17030   5.837   0.101   7.395  0.1547  0.1058 -0.2104
 4078WAT      O17031   4.140   6.212   4.534 -0.3837 -0.4247  0.5962
 4078WAT     H117032   4.188   6.148   4.568  0.2798 -0.2985 -0.0797
 4078WAT     H217033   4.101   6.174   4.466 -0.5896 -0.3085  0.6497
 4078WAT    EPW17034   4.141   6.197   4.529 -0.3161 -0.3889  0.5043
 4079WAT      O17035   6.748   6.982   1.669 -0.0731  0.1372 -0.2812
 4079WAT     H117036   6.667   6.955   1.689  0.1255 -0.1293  0.1842
 4079WAT     H217037   6.750   6.978   1.582 -0.6118  0.2953 -0.3012
 4079WAT    EPW17038   6.736   6.977   1.659 -0.1234  0.1212 -0.2154
 4080WAT      O17039   0.991   1.053   2.659 -0.4274  0.1025 -0.4078
 4080WAT     H117040   1.018   1.086   2.583  0.5349 -1.1447 -0.6369
 4080WAT     H217041   1.048   0.990   2.676  0.0978  1.1195  1.9888
 4080WAT    EPW17042   1.003   1.049   2.650 -0.2077  0.0685 -0.0876
 4081WAT      O17043   2.679   6.932   0.872  0.3074 -0.4988 -0.4124
 4081WAT     H117044   2.712   6.982   0.935 -1.0651  1.5803 -1.2254
 4081WAT     H217045   2.619   6.884   0.913 -0.0647  0.3075  0.0215
 4081WAT    EPW17046   2.675   6.933   0.887  0.0497 -0.0726 -0.4684
 4082WAT      O17047   5.802   6.981   1.241 -0.2788  0.2306  0.0850
 4082WAT     H117048   5.750   7.002   1.175 -1.2000 -0.7809  0.4665
 4082WAT     H217049   5.751   6.934   1.294  0.7132  0.1607  1.0197
 4082WAT    EPW17050   5.787   6.977   1.239 -0.2684  0.0708  0.2795
 4083WAT      O17051   2.107   3.640   6.993 -0.7419 -0.2659  0.6912
 4083WAT     H117052   2.041   3.616   6.941  0.4666  0.6815 -1.4102
 4083WAT     H217053   2.176   3.598   6.960 -0.1493 -0.8666  2.5418
 4083WAT    EPW17054   2.107   3.631   6.981 -0.4759 -0.2147  0.6542
 4084WAT      O17055   0.230   5.992   0.393  0.0111  0.1714  0.1656
 4084WAT     H117056   0.150   5.987   0.358  1.1930 -0.1712 -2.8004
 4084WAT     H217057   0.217   6.036   0.468 -2.9999 -0.4304  0.1187
 4084WAT    EPW17058   0.216   5.998   0.399 -0.2591  0.0319 -0.2795
 4085WAT      O17059   7.189   3.564   5.655 -0.0874  0.0605  0.6374
 4085WAT     H117060   7.263   3.611   5.658  0.8897 -1.2552 -1.0778
 4085WAT     H217061   7.129   3.623   5.632  1.2242  0.4952 -2.1769
 4085WAT    EPW17062   7.191   3.580   5.652  0.2507 -0.0697 -0.0317
 4086WAT      O17063   3.313   3.293   2.666  0.3246 -1.2244 -0.1081
 4086WAT     H117064   3.347   3.235   2.610  1.7788 -0.7547  0.2452
 4086WAT     H217065   3.381   3.318   2.713 -0.8126 -1.3838  1.7071
 4086WAT    EPW17066   3.328   3.288   2.664  0.3714 -1.1786  0.2122
 4087WAT      O17067   2.789   2.549   7.295 -0.3233  0.3253  0.0240
 4087WAT     H117068   2.775   2.463   7.299 -2.1190  0.6236  1.0719
 4087WAT     H217069   2.744   2.574   7.224  0.7176  0.3395 -0.6545
 4087WAT    EPW17070   2.780   2.540   7.285 -0.4348  0.3715  0.0786
 4088WAT      O17071   6.476   6.027   2.740  0.2818 -0.1362 -0.0300
 4088WAT     H117072   6.443   6.073   2.673  1.5284 -1.2694 -1.4989
 4088WAT     H217073   6.560   6.017   2.718 -0.2149 -4.5924 -0.7486
 4088WAT    EPW17074   6.484   6.032   2.727  0.3926 -0.9618 -0.3532
 4089WAT      O17075   5.400   5.239   5.642  0.1240 -0.2519 -0.0226
 4089WAT     H117076   5.338   5.199   5.688 -1.5562  1.4235 -0.7211
 4089WAT     H217077   5.439   5.290   5.701  0.8552 -1.2869  0.4125
 4089WAT    EPW17078   5.397   5.240   5.657 -0.0162 -0.1573 -0.0615
 4090WAT      O17079   4.878   0.857   3.263  0.5544 -0.1828  0.1994
 4090WAT     H117080   4.832   0.863   3.189  1.3105 -1.8551 -0.4596
 4090WAT     H217081   4.918   0.935   3.269  0.9053 -0.1996 -1.4496
 4090WAT    EPW17082   4.877   0.870   3.253  0.7179 -0.4323 -0.1416
 4091WAT      O17083   6.107   0.141   3.429 -0.5020 -0.3366  0.3856
 4091WAT     H117084   6.162   0.108   3.488  0.6524  0.9191  0.0684
 4091WAT     H217085   6.128   0.100   3.355  0.3808  0.4944  0.1598
 4091WAT    EPW17086   6.118   0.130   3.427 -0.2010 -0.0284  0.3054
 4092WAT      O17087   3.253   0.267   1.610 -0.7791  0.2214 -0.0159
 4092WAT     H117088   3.296   0.340   1.589 -0.0673  0.0296  0.7222
 4092WAT     H217089   3.193   0.260   1.547 -0.9310  1.4919 -0.0444
 4092WAT    EPW17090   3.250   0.277   1.598 -0.6964  0.3807  0.0889
 4093WAT      O17091   6.237   0.159   6.176  0.1960  0.5343  0.2188
 4093WAT     H117092   6.221   0.155   6.091  0.7470 -0.8848  0.1610
 4093WAT     H217093   6.314   0.118   6.184  0.2223  0.7810  1.3867
 4093WAT    EPW17094   6.246   0.152   6.165  0.2813  0.3611  0.3828
 4094WAT      O17095   3.964   5.738   4.242  0.3303 -0.5653  0.1171
 4094WAT     H117096   3.890   5.694   4.257 -1.0079  1.9915  1.6095
 4094WAT     H217097   3.986   5.770   4.320  1.6609  0.7685 -0.7439
 4094WAT    EPW17098   3.956   5.736   4.255  0.3292  0.0094  0.2104
 4095WAT      O17099   5.864   6.260   5.009 -0.2745  0.8021  0.1019
 4095WAT     H117100   5.872   6.268   5.096 -2.5533  1.5246  0.3089
 4095WAT     H217101   5.946   6.268   4.980  0.5117  0.7452  2.1601
 4095WAT    EPW17102   5.878   6.262   5.018 -0.4950  0.9004  0.4365
 4096WAT      O17103   0.559   6.008   0.764  0.0033 -0.1365 -0.3864
 4096WAT     H117104   0.575   5.967   0.839  1.9881  1.3493  0.0832
 4096WAT     H217105   0.581   6.091   0.780 -0.2932  0.3847 -2.3588
 4096WAT    EPW17106   0.565   6.014   0.777  0.2527  0.1600 -0.6084
 4097WAT      O17107   0.426   1.412   3.093  0.7130  0.1711  0.3725
 4097WAT     H117108   0.406   1.434   3.011  1.6260 -1.7678 -0.4358
 4097WAT     H217109   0.470   1.482   3.122 -1.5599  1.8608  0.0675
 4097WAT    EPW17110   0.430   1.426   3.085  0.5121  0.1343  0.2081
 4098WAT      O17111   5.937   5.638   1.703 -0.0101 -0.5870  0.5728
 4098WAT     H117112   5.969   5.674   1.630  2.5379 -1.8825  0.9542
 4098WAT     H217113   5.856   5.615   1.680 -0.8511  2.7413 -0.4978
 4098WAT    EPW17114   5.930   5.640   1.689  0.2421 -0.2867  0.4710
 4099WAT      O17115   2.247   1.059   0.607 -0.1794 -0.0340 -0.6102
 4099WAT     H117116   2.261   1.102   0.533 -1.3758  1.9390  0.2237
 4099WAT     H217117   2.168   1.023   0.595 -0.5636  0.6369 -0.1781
 4099WAT    EPW17118   2.237   1.060   0.594 -0.4129  0.3566 -0.4232
 4100WAT      O17119   3.250   3.932   0.471  1.0363  0.4588  0.3203
 4100WAT     H117120   3.216   3.979   0.536 -0.3082 -1.0090  0.7673
 4100WAT     H217121   3.287   3.991   0.419 -0.0932  1.9358  1.1225
 4100WAT    EPW17122   3.250   3.948   0.473  0.6708  0.4601  0.5048
 4101WAT      O17123   5.589   4.608   3.535 -0.6337 -0.2987 -0.8587
 4101WAT     H117124   5.613   4.631   3.615 -0.0244 -1.5993 -0.6423
 4101WAT     H217125   5.648   4.646   3.484  0.8896 -1.9952 -0.4511
 4101WAT    EPW17126   5.601   4.617   3.539 -0.3187 -0.7414 -0.7665
 4102WAT      O17127   5.602   4.603   1.969  0.4769  0.3967  0.0769
 4102WAT     H117128   5.587   4.526   2.007 -2.3311  1.1403  0.6691
 4102WAT     H217129   5.688   4.614   1.979  0.4854 -1.2626  2.7446
 4102WAT    EPW17130   5.613   4.593   1.976  0.0634  0.2614  0.5585
 4103WAT      O17131   6.432   3.595   1.815  0.7390  0.3742  0.1181
 4103WAT     H117132   6.512   3.624   1.796  0.2262  1.9115  0.2218
 4103WAT     H217133   6.436   3.580   1.901  0.9383  0.3654  0.1081
 4103WAT    EPW17134   6.445   3.597   1.825  0.6927  0.6000  0.1320
 4104WAT      O17135   6.099   5.517   3.109 -0.6662  0.4392 -0.5839
 4104WAT     H117136   6.075   5.567   3.042 -3.7735  0.0691  0.1144
 4104WAT     H217137   6.050   5.546   3.175  1.3252 -0.0836  1.2435
 4104WAT    EPW17138   6.089   5.529   3.109 -0.8310  0.3073 -0.2108
 4105WAT      O17139   1.399   5.953   0.222  0.0156  0.2265  0.5273
 4105WAT     H117140   1.381   5.871   0.196  2.0589 -0.4334  0.9645
 4105WAT     H217141   1.437   5.941   0.300  1.1377  1.5015  0.2175
 4105WAT    EPW17142   1.402   5.939   0.230  0.4832  0.3174  0.5461
 4106WAT      O17143   2.579   1.723   1.339  0.2510 -0.2538  0.0435
 4106WAT     H117144   2.644   1.750   1.287 -0.3258  0.7402 -0.1978
 4106WAT     H217145   2.563   1.642   1.311 -0.0412  0.2573 -1.3535
 4106WAT    EPW17146   2.586   1.715   1.327  0.1226 -0.0315 -0.1985
 4107WAT      O17147   0.721   0.108   7.271 -0.0033  0.0806  0.1974
 4107WAT     H117148   0.749   0.025   7.269 -2.2291 -0.7530 -0.9028
 4107WAT     H217149   0.731   0.132   7.354  1.9815 -0.7845  0.2497
 4107WAT    EPW17150   0.726   0.099   7.283 -0.0389 -0.1704  0.0426
 4108WAT      O17151   0.697   4.582   1.080  0.4268 -0.4121  0.2856
 4108WAT     H117152   0.664   4.661   1.096 -1.0072 -0.4256 -2.1019
 4108WAT     H217153   0.768   4.598   1.033  0.4174 -0.5071  0.2384
 4108WAT    EPW17154   0.702   4.596   1.075  0.2136 -0.4282 -0.0741
 4109WAT      O17155   1.103   1.164   3.204 -0.1138  0.0486  0.1402
 4109WAT     H117156   1.055   1.237   3.212  0.6839  0.8012 -1.3964
 4109WAT     H217157   1.074   1.130   3.129  0.4317 -0.5163  0.1842
 4109WAT    EPW17158   1.091   1.170   3.194  0.0846  0.0763 -0.0803
 4110WAT      O17159   6.515   4.883   6.126 -0.5445  0.2294 -0.1468
 4110WAT     H117160   6.593   4.898   6.088 -0.4967  0.3030 -0.0184
 4110WAT     H217161   6.525   4.804   6.162  0.4670  1.4095  2.3884
 4110WAT    EPW17162   6.528   4.874   6.125 -0.3880  0.4146  0.2467
 4111WAT      O17163   6.113   6.078   7.287  0.1435  0.3235 -0.8100
 4111WAT     H117164   6.062   6.122   7.232  1.4836  0.1994 -2.2047
 4111WAT     H217165   6.095   5.995   7.271 -0.6559  0.2962  0.1405
 4111WAT    EPW17166   6.103   6.072   7.277  0.2233  0.3012 -0.8756
 4112WAT      O17167   2.411   2.726   6.557  0.7682  0.3029  0.1690
 4112WAT     H117168   2.428   2.661   6.502  2.8654  0.1922  0.8634
 4112WAT     H217169   2.452   2.702   6.630  0.6765  1.8907  0.7800
 4112WAT    EPW17170   2.420   2.713   6.560  1.0644  0.5211  0.3619
 4113WAT      O17171   2.207   0.817   5.283 -0.1235  0.3162 -0.0200
 4113WAT     H117172   2.217   0.778   5.206 -1.0749  0.2048 -0.1044
 4113WAT     H217173   2.126   0.795   5.306  0.3652 -0.1946  1.3146
 4113WAT    EPW17174   2.197   0.808   5.275 -0.1919  0.2243  0.1647
 4114WAT      O17175   4.142   1.853   2.878  0.1292 -0.5450 -0.2453
 4114WAT     H117176   4.094   1.868   2.806  0.8217  0.3134 -0.5415
 4114WAT     H217177   4.149   1.766   2.880  1.2496 -0.5459 -1.9990
 4114WAT    EPW17178   4.136   1.842   2.868  0.3970 -0.4183 -0.5482
 4115WAT      O17179   3.352   4.473   1.426 -0.4645  0.5244 -0.0946
 4115WAT     H117180   3.344   4.556   1.451  0.8045  0.7850 -0.5002
 4115WAT     H217181   3.378   4.479   1.343 -0.3205 -0.2786 -0.1131
 4115WAT    EPW17182   3.354   4.486   1.418 -0.2558  0.4442 -0.1572
 4116WAT      O17183   0.168   1.478   4.661 -0.1795  0.1595  0.4228
 4116WAT     H117184   0.158   1.560   4.633 -2.1020  0.0094  0.5363
 4116WAT     H217185   0.121   1.431   4.604  0.8080 -0.8690  0.4171
 4116WAT    EPW17186   0.159   1.483   4.648 -0.3177 -0.0146  0.4388
 4117WAT      O17187   0.544   6.000   4.596 -0.5665  0.8832 -0.0559
 4117WAT     H117188   0.627   6.015   4.619 -0.7259  1.6454  0.0160
 4117WAT     H217189   0.533   6.049   4.525 -1.0582  1.0287  0.1188
 4117WAT    EPW17190   0.555   6.009   4.589 -0.6627  1.0173 -0.0195
 4118WAT      O17191   2.967   5.769   1.976  0.3997 -0.2700 -0.1446
 4118WAT     H117192   2.901   5.821   2.000  0.4470  0.4188 -1.4594
 4118WAT     H217193   2.973   5.713   2.043 -1.4242 -0.2721  0.0821
 4118WAT    EPW17194   2.958   5.768   1.990  0.1373 -0.1686 -0.3053
 4119WAT      O17195   2.186   6.212   4.631  0.2048  0.2751  0.2455
 4119WAT     H117196   2.230   6.161   4.688  0.7321 -0.2220 -0.5864
 4119WAT     H217197   2.211   6.181   4.553 -0.7180  0.7746 -0.2559
 4119WAT    EPW17198   2.196   6.200   4.628  0.1464  0.2755  0.0486
 4120WAT      O17199   4.618   5.584   4.915 -0.3312 -0.1087 -0.2332
 4120WAT     H117200   4.660   5.516   4.949 -0.7523  0.3694  1.2868
 4120WAT     H217201   4.549   5.595   4.967 -0.1907  1.5808 -0.3418
 4120WAT    EPW17202   4.614   5.576   4.927 -0.3727  0.2115 -0.0247
 4121WAT      O17203   1.927   5.569   4.751 -0.3538 -0.1778 -0.2378
 4121WAT     H117204   1.877   5.633   4.782  0.9584  0.8955 -0.2680
 4121WAT     H217205   1.997   5.570   4.803 -0.0728 -1.2461 -0.5648
 4121WAT    EPW17206   1.930   5.579   4.763 -0.1185 -0.1770 -0.2905
 4122WAT      O17207   2.340   5.265   3.228 -0.1351  0.0562  0.2637
 4122WAT     H117208   2.299   5.271   3.305  0.6986  0.0965  0.7227
 4122WAT     H217209   2.343   5.348   3.200 -0.3839  0.0492  0.2127
 4122WAT    EPW17210   2.335   5.278   3.235 -0.0487  0.0611  0.3240
 4123WAT      O17211   6.435   4.869   2.550 -0.2853  0.1279 -0.6484
 4123WAT     H117212   6.425   4.792   2.589 -0.2545 -0.8516 -2.4706
 4123WAT     H217213   6.355   4.903   2.550 -0.4909 -0.3441 -0.6595
 4123WAT    EPW17214   6.422   4.863   2.555 -0.3111 -0.0865 -0.9192
 4124WAT      O17215   1.307   3.443   4.452  0.3183 -0.8154  0.0711
 4124WAT     H117216   1.298   3.522   4.416  0.2718 -0.7452  0.2377
 4124WAT     H217217   1.278   3.454   4.533 -1.1893 -1.4038 -0.3716
 4124WAT    EPW17218   1.302   3.456   4.459  0.0887 -0.8919  0.0303
 4125WAT      O17219   6.569   5.201   4.930 -0.5168  0.0955  0.4076
 4125WAT     H117220   6.561   5.147   4.998 -0.0720 -0.0516  0.3447
 4125WAT     H217221   6.638   5.250   4.950 -0.4549  0.1303  0.1138
 4125WAT    EPW17222   6.578   5.200   4.943 -0.4420  0.0789  0.3549
 4126WAT      O17223   5.021   3.637   4.215  0.4062  0.1080 -0.6156
 4126WAT     H117224   5.055   3.567   4.174 -2.1459 -1.4758 -0.2788
 4126WAT     H217225   4.985   3.602   4.287 -2.5903  1.3789 -1.3562
 4126WAT    EPW17226   5.021   3.621   4.219 -0.4134  0.0618 -0.6753
 4127WAT      O17227   6.480   0.966   1.563  0.0391 -0.2158 -0.4636
 4127WAT     H117228   6.516   0.934   1.635  1.6974  1.0125 -0.6979
 4127WAT     H217229   6.505   0.911   1.501  1.3546  0.4728 -0.5784
 4127WAT    EPW17230   6.489   0.953   1.565  0.4784  0.0674 -0.5152
 4128WAT      O17231   4.516   2.778   3.670 -0.1168 -0.4595  0.0665
 4128WAT     H117232   4.602   2.769   3.664 -0.1234  0.1979 -1.3447
 4128WAT     H217233   4.486   2.696   3.663  0.2818 -0.4732 -2.7981
 4128WAT    EPW17234   4.524   2.764   3.668 -0.0589 -0.3644 -0.5651
 4129WAT      O17235   4.193   5.533   7.320 -0.5012 -0.0201 -0.6249
 4129WAT     H117236   4.268   5.493   7.339  0.3924  1.5750 -0.6313
 4129WAT     H217237   4.135   5.494   7.373  0.5911 -0.3522  0.3705
 4129WAT    EPW17238   4.195   5.521   7.331 -0.2078  0.1665 -0.4788
 4130WAT      O17239   6.833   4.710   6.386  0.6760 -0.0403 -0.1234
 4130WAT     H117240   6.885   4.653   6.347 -1.3207 -1.5408 -0.7345
 4130WAT     H217241   6.753   4.683   6.366 -0.4033  1.3672  1.8742
 4130WAT    EPW17242   6.829   4.698   6.378  0.2216 -0.0541  0.0814
 4131WAT      O17243   0.417   6.462   2.066  0.0434 -0.8284 -0.0962
 4131WAT     H117244   0.351   6.492   2.017  0.8396 -0.9072 -1.2606
 4131WAT     H217245   0.449   6.396   2.018  1.9678  0.2153 -0.3295
 4131WAT    EPW17246   0.412   6.456   2.052  0.4453 -0.6859 -0.3027
 4132WAT      O17247   6.641   2.322   2.941  0.5446 -0.2818  0.3715
 4132WAT     H117248   6.606   2.307   3.020  1.4352  1.0485  1.0574
 4132WAT     H217249   6.590   2.384   2.908  1.1366  0.3255  0.5901
 4132WAT    EPW17250   6.628   2.329   2.948  0.7636  0.0044  0.5051
 4133WAT      O17251   5.131   6.550   3.878 -0.7292 -0.3652 -0.7140
 4133WAT     H117252   5.205   6.559   3.923 -0.7899 -1.9133 -0.2440
 4133WAT     H217253   5.082   6.618   3.903 -0.4474 -0.7390  0.9401
 4133WAT    EPW17254   5.135   6.561   3.888 -0.6965 -0.6491 -0.4002
 4134WAT      O17255   0.535   4.228   1.579  0.0236 -0.4544  0.6218
 4134WAT     H117256   0.555   4.187   1.505 -0.7118 -0.0757  0.1955
 4134WAT     H217257   0.591   4.295   1.581 -0.7296  0.2383 -0.2363
 4134WAT    EPW17258   0.546   4.232   1.568 -0.1963 -0.2961  0.4320
 4135WAT      O17259   6.050   3.420   4.062 -0.0670  0.0720  0.5651
 4135WAT     H117260   6.111   3.418   4.124  2.6331 -0.1533 -1.8540
 4135WAT     H217261   6.059   3.500   4.028 -0.5165 -0.2504 -0.3494
 4135WAT    EPW17262   6.060   3.432   4.066  0.2654 -0.0089  0.0726
 4136WAT      O17263   6.995   6.684   5.286 -0.6225  0.4870 -0.3846
 4136WAT     H117264   6.958   6.750   5.243 -3.9745 -1.2153 -0.4631
 4136WAT     H217265   7.028   6.722   5.357 -2.7188  2.2766 -0.2483
 4136WAT    EPW17266   6.994   6.699   5.290 -1.4273  0.4999 -0.3761
 4137WAT      O17267   1.734   0.493   5.490 -0.1735  0.1070  0.3704
 4137WAT     H117268   1.810   0.535   5.482  0.8598 -1.9848 -2.9606
 4137WAT     H217269   1.754   0.422   5.535 -0.3726 -0.0182  0.2632
 4137WAT    EPW17270   1.748   0.489   5.496 -0.0503 -0.2205 -0.1375
 4138WAT      O17271   6.838   3.611   2.654 -0.5669 -0.4227  0.2359
 4138WAT     H117272   6.908   3.582   2.696 -0.5927 -2.4359 -0.9541
 4138WAT     H217273   6.868   3.677   2.606 -0.1533  0.6639  1.9285
 4138WAT    EPW17274   6.852   3.616   2.653 -0.5096 -0.5596  0.3102
 4139WAT      O17275   3.256   2.313   1.091  0.5641  0.1393  0.3876
 4139WAT     H117276   3.239   2.230   1.114  0.1867 -0.0567 -0.5407
 4139WAT     H217277   3.195   2.359   1.133 -0.0745 -0.2057 -0.1219
 4139WAT    EPW17278   3.244   2.307   1.100  0.4140  0.0594  0.1752
 4140WAT      O17279   0.156   1.665   6.052 -0.0038 -0.2314  0.0710
 4140WAT     H117280   0.183   1.607   6.112  0.5847  0.3993  0.4213
 4140WAT     H217281   0.196   1.639   5.980  1.9172  0.9153  0.6634
 4140WAT    EPW17282   0.166   1.652   6.051  0.3669  0.0312  0.2102
 4141WAT      O17283   0.934   2.542   4.687 -0.1052  0.3795  0.5330
 4141WAT     H117284   0.916   2.471   4.734  0.5449  0.6128  1.1554
 4141WAT     H217285   0.871   2.598   4.711 -1.6953 -0.5245 -1.2724
 4141WAT    EPW17286   0.922   2.540   4.698 -0.2440  0.2804  0.3583
 4142WAT      O17287   4.006   0.769   2.186 -0.1054  0.1460 -0.2921
 4142WAT     H117288   3.941   0.719   2.216 -1.4465  1.6665 -0.5417
 4142WAT     H217289   4.078   0.728   2.214 -1.1039 -2.0415 -0.7018
 4142WAT    EPW17290   4.007   0.755   2.194 -0.4510  0.0475 -0.3895
 4143WAT      O17291   0.501   6.227   7.173  0.0308  0.2649 -0.0029
 4143WAT     H117292   0.534   6.149   7.149 -0.7566 -0.2631  0.5773
 4143WAT     H217293   0.566   6.283   7.157  1.6936 -0.8891  2.2408
 4143WAT    EPW17294   0.515   6.224   7.167  0.1601  0.0164  0.4142
 4144WAT      O17295   6.870   6.316   3.691 -0.3519  0.1383  0.2599
 4144WAT     H117296   6.949   6.354   3.692  0.1457 -0.8502 -0.3226
 4144WAT     H217297   6.861   6.290   3.608 -1.0341 -0.2950  0.4615
 4144WAT    EPW17298   6.880   6.318   3.679 -0.3791 -0.0718  0.2036
 4145WAT      O17299   5.428   3.301   4.606 -0.5159  0.0857  0.2479
 4145WAT     H117300   5.346   3.282   4.626 -0.9260 -0.6099 -1.8155
 4145WAT     H217301   5.475   3.252   4.661 -1.5058 -0.7743  0.3549
 4145WAT    EPW17302   5.423   3.291   4.617 -0.7227 -0.1441 -0.0411
 4146WAT      O17303   2.144   3.895   1.397  0.2955 -0.3607 -0.2988
 4146WAT     H117304   2.089   3.871   1.460 -0.4427  0.5447 -0.5673
 4146WAT     H217305   2.220   3.861   1.421  0.4263  1.2818  1.9186
 4146WAT    EPW17306   2.147   3.886   1.410  0.2058  0.0157 -0.0109
 4147WAT      O17307   6.964   3.693   6.006  0.4151 -0.5313 -0.6917
 4147WAT     H117308   7.028   3.656   5.959 -1.0226 -1.8961 -1.6990
 4147WAT     H217309   6.910   3.724   5.946 -1.4062 -2.1849 -0.0402
 4147WAT    EPW17310   6.966   3.692   5.990 -0.0663 -0.9772 -0.7443
 4148WAT      O17311   5.613   6.972   3.302  0.0370  0.7090  0.3506
 4148WAT     H117312   5.595   7.049   3.340 -0.1428  0.1687  1.4159
 4148WAT     H217313   5.536   6.931   3.304 -0.2583  1.0698 -1.6622
 4148WAT    EPW17314   5.599   6.977   3.308 -0.0332  0.6825  0.2106
 4149WAT      O17315   1.315   6.013   1.030  0.1700  0.0180  0.3593
 4149WAT     H117316   1.323   6.061   1.102  0.0110  0.6293 -0.0188
 4149WAT     H217317   1.315   6.072   0.966  0.6681 -0.5394 -0.1710
 4149WAT    EPW17318   1.316   6.029   1.031  0.2201  0.0260  0.2251
 4150WAT      O17319   3.200   1.723   7.061 -0.0511 -0.5565 -0.2573
 4150WAT     H117320   3.114   1.708   7.057 -0.6450  2.3512 -1.8202
 4150WAT     H217321   3.207   1.785   7.122  0.8291 -0.3636 -0.5359
 4150WAT    EPW17322   3.188   1.730   7.069 -0.0088 -0.0985 -0.5293
 4151WAT      O17323   6.799   1.164   5.628 -0.0184  0.4029 -0.2242
 4151WAT     H117324   6.797   1.168   5.715  0.9705  0.1181 -0.1713
 4151WAT     H217325   6.861   1.222   5.606  0.2598 -0.0606 -0.6847
 4151WAT    EPW17326   6.808   1.173   5.638  0.1688  0.2924 -0.2844
 4152WAT      O17327   1.256   3.747   6.601 -0.0798 -0.5526 -0.8433
 4152WAT     H117328   1.190   3.692   6.607 -1.6812  1.3332 -0.1287
 4152WAT     H217329   1.266   3.777   6.682 -0.3808  1.3729 -1.4563
 4152WAT    EPW17330   1.248   3.743   6.614 -0.3608  0.0104 -0.8283
 4153WAT      O17331   4.696   0.933   4.882  0.3173 -0.1678  0.0658
 4153WAT     H117332   4.754   0.878   4.847  0.9507 -0.9543  2.1621
 4153WAT     H217333   4.741   1.007   4.890 -0.0599  0.2376 -1.3745
 4153WAT    EPW17334   4.711   0.936   4.878  0.3552 -0.2241  0.1627
 4154WAT      O17335   3.467   1.565   6.265 -0.3471  0.3652 -0.4068
 4154WAT     H117336   3.495   1.483   6.273  2.1501  1.0626 -1.0989
 4154WAT     H217337   3.444   1.571   6.181  1.0666  0.7755 -0.7894
 4154WAT    EPW17338   3.468   1.554   6.254  0.2307  0.5289 -0.5655
 4155WAT      O17339   3.771   1.805   5.028 -0.4915  0.2027 -0.2850
 4155WAT     H117340   3.697   1.839   5.059 -0.2819  0.2791  0.1361
 4155WAT     H217341   3.822   1.875   5.017 -0.3608  0.1159 -0.2362
 4155WAT    EPW17342   3.767   1.820   5.031 -0.4412  0.2012 -0.2156
 4156WAT      O17343   1.100   3.324   6.100 -0.0285  1.0475 -0.2100
 4156WAT     H117344   1.128   3.253   6.141 -1.2452  0.5925 -0.1310
 4156WAT     H217345   1.100   3.385   6.163  0.6045  1.0183 -0.1758
 4156WAT    EPW17346   1.105   3.323   6.116 -0.1147  0.9760 -0.1933
 4157WAT      O17347   2.270   3.553   4.690  0.5654 -0.6046  0.1522
 4157WAT     H117348   2.353   3.571   4.711  0.7243 -1.8463  0.6599
 4157WAT     H217349   2.224   3.609   4.739  1.0997  2.3925 -2.4692
 4157WAT    EPW17350   2.276   3.564   4.701  0.6678 -0.3453 -0.1600
 4158WAT      O17351   0.129   4.215   0.585 -0.1251 -0.2987  0.0653
 4158WAT     H117352   0.088   4.202   0.661  0.5064 -1.8217  0.1700
 4158WAT     H217353   0.091   4.287   0.554 -1.4822 -0.5293  1.0967
 4158WAT    EPW17354   0.117   4.224   0.592 -0.2323 -0.5577  0.2331
 4159WAT      O17355   0.492   3.749   1.219 -0.3910  0.8506 -0.1368
 4159WAT     H117356   0.509   3.763   1.135  0.2756  1.2616  0.0573
 4159WAT     H217357   0.451   3.822   1.245  0.7753  1.4017  0.2493
 4159WAT    EPW17358   0.489   3.762   1.211 -0.1202  0.9927 -0.0511
 4160WAT      O17359   6.398   2.644   7.225  0.1633 -0.2260 -0.0618
 4160WAT     H117360   6.333   2.632   7.167 -0.3087  0.7668  0.2295
 4160WAT     H217361   6.456   2.583   7.205 -0.1564 -0.1249 -1.3572
 4160WAT    EPW17362   6.397   2.633   7.214  0.0464 -0.0644 -0.2101
 4161WAT      O17363   3.928   4.586   1.922  0.0023 -0.0035 -0.3451
 4161WAT     H117364   3.854   4.544   1.938 -0.9737  1.2978 -1.3008
 4161WAT     H217365   3.909   4.637   1.854  1.7454  0.4333 -0.5556
 4161WAT    EPW17366   3.915   4.587   1.914  0.1156  0.2532 -0.5174
 4162WAT      O17367   1.380   2.318   2.593 -0.4080  0.0549 -0.2258
 4162WAT     H117368   1.390   2.287   2.513 -4.6553 -0.7775 -0.6596
 4162WAT     H217369   1.424   2.261   2.643  1.2896 -0.0901 -1.8077
 4162WAT    EPW17370   1.388   2.305   2.589 -0.7846 -0.0895 -0.5236
 4163WAT      O17371   1.852   1.070   5.127  0.2581  0.2001  0.0000
 4163WAT     H117372   1.894   0.998   5.150  0.3455 -0.0094 -0.7795
 4163WAT     H217373   1.905   1.107   5.068 -0.2806  0.3393 -0.4051
 4163WAT    EPW17374   1.866   1.065   5.121  0.1914  0.1897 -0.1750
 4164WAT      O17375   5.311   1.355   3.188 -0.0830 -0.4030 -0.0696
 4164WAT     H117376   5.351   1.431   3.204 -1.9505  0.6141 -0.0219
 4164WAT     H217377   5.314   1.349   3.101 -1.6682  0.7691 -0.2470
 4164WAT    EPW17378   5.318   1.365   3.177 -0.5931 -0.0796 -0.0888
 4165WAT      O17379   6.216   1.048   0.975  0.0280  0.5023  0.4946
 4165WAT     H117380   6.146   1.084   0.937  1.0634  1.2523 -0.7632
 4165WAT     H217381   6.212   1.079   1.057  0.0279  2.2613 -0.1347
 4165WAT    EPW17382   6.205   1.058   0.981  0.1809  0.8729  0.2159
 4166WAT      O17383   4.582   3.625   1.992 -0.3790  0.3620 -0.8682
 4166WAT     H117384   4.503   3.621   1.955 -0.5044 -1.1530 -0.5100
 4166WAT     H217385   4.592   3.546   2.027  0.6529  1.0360  0.4560
 4166WAT    EPW17386   4.572   3.613   1.992 -0.2451  0.2378 -0.6197
 4167WAT      O17387   6.556   0.400   1.462  0.1006 -0.2811  0.6492
 4167WAT     H117388   6.636   0.428   1.485  0.2306 -1.6211  1.9729
 4167WAT     H217389   6.505   0.425   1.528 -0.4376 -0.1115  0.1790
 4167WAT    EPW17390   6.561   0.408   1.475  0.0403 -0.4540  0.7753
 4168WAT      O17391   3.799   3.628   3.942  0.2626 -0.6421  0.5111
 4168WAT     H117392   3.857   3.565   3.954  0.4426 -0.8007 -1.0891
 4168WAT     H217393   3.726   3.597   3.980  0.4882 -1.5909  0.1852
 4168WAT    EPW17394   3.797   3.614   3.950  0.3225 -0.8057  0.2265
 4169WAT      O17395   1.297   0.755   1.019  0.0284 -0.2442 -0.0999
 4169WAT     H117396   1.274   0.725   1.098 -0.4238  2.1960  0.7813
 4169WAT     H217397   1.244   0.712   0.965 -1.7578  0.1479  1.2319
 4169WAT    EPW17398   1.286   0.744   1.023 -0.3023  0.1742  0.2270
 4170WAT      O17399   7.119   4.503   1.093 -0.1855 -0.3629 -0.2899
 4170WAT     H117400   7.164   4.490   1.020  1.4245 -0.2919  0.6278
 4170WAT     H217401   7.097   4.422   1.118  0.2246 -0.4780 -0.2922
 4170WAT    EPW17402   7.122   4.489   1.086  0.1129 -0.3694 -0.1547
 4171WAT      O17403   5.687   2.300   1.293 -0.5117 -0.6055 -0.7576
 4171WAT     H117404   5.629   2.304   1.228  0.1155  0.1032 -1.3040
 4171WAT     H217405   5.718   2.218   1.289 -1.7191 -1.1088 -0.2143
 4171WAT    EPW17406   5.683   2.289   1.283 -0.5974 -0.5752 -0.7581
 4172WAT      O17407   1.827   1.646   0.952 -0.3666 -0.3591  0.3714
 4172WAT     H117408   1.903   1.689   0.955 -1.4764  1.6970  1.3326
 4172WAT     H217409   1.843   1.580   0.897  1.2234  1.8363 -2.0480
 4172WAT    EPW17410   1.841   1.643   0.944 -0.2957  0.2690  0.1560
 4173WAT      O17411   5.371   3.554   4.950 -0.1900 -0.4225 -0.2511
 4173WAT     H117412   5.415   3.551   4.875 -0.2745 -1.7587 -0.2737
 4173WAT     H217413   5.431   3.575   5.009  0.3874 -1.6196 -0.3754
 4173WAT    EPW17414   5.386   3.556   4.948 -0.1172 -0.7967 -0.2728
 4174WAT      O17415   5.814   7.114   6.494 -0.1505  0.6864 -0.1891
 4174WAT     H117416   5.898   7.111   6.518 -0.3664 -1.8917  0.5006
 4174WAT     H217417   5.801   7.038   6.454 -2.4433  0.4942  0.7588
 4174WAT    EPW17418   5.824   7.103   6.491 -0.5211  0.2772  0.0528
 4175WAT      O17419   1.261   5.559   4.528 -0.1711  1.0264  0.4205
 4175WAT     H117420   1.221   5.538   4.453  1.4540 -0.0629 -0.2114
 4175WAT     H217421   1.256   5.646   4.529 -2.9042  0.9643  0.6576
 4175WAT    EPW17422   1.254   5.569   4.517 -0.3348  0.8563  0.3622
 4176WAT      O17423   1.928   0.282   4.244  0.6647 -0.6330 -0.1376
 4176WAT     H117424   1.941   0.247   4.323 -0.4394 -2.0254 -0.5209
 4176WAT     H217425   1.855   0.242   4.216 -1.9804  3.3770  0.1653
 4176WAT    EPW17426   1.919   0.271   4.252  0.1109 -0.2463 -0.1495
 4177WAT      O17427   1.942   3.583   4.564 -0.3492 -0.4662 -0.4372
 4177WAT     H117428   1.942   3.660   4.606 -0.7774 -0.1599 -0.9853
 4177WAT     H217429   1.949   3.605   4.480 -0.1005 -1.0464 -0.5756
 4177WAT    EPW17430   1.943   3.598   4.558 -0.3757 -0.5067 -0.5386
 4178WAT      O17431   0.243   2.807   3.264  0.6416  0.1964  0.6973
 4178WAT     H117432   0.192   2.770   3.204 -2.3839  0.6444  2.7472
 4178WAT     H217433   0.264   2.741   3.316  1.4025  0.1856  0.3887
 4178WAT    EPW17434   0.238   2.792   3.263  0.3071  0.2610  0.9545
 4179WAT      O17435   0.941   0.396   4.675  0.1874 -0.2098 -0.3864
 4179WAT     H117436   0.900   0.319   4.674 -2.0261  0.8421  0.8918
 4179WAT     H217437   0.915   0.434   4.601 -0.6598  0.2029  0.1122
 4179WAT    EPW17438   0.931   0.391   4.664 -0.2647  0.0065 -0.1239
 4180WAT      O17439   1.848   6.930   0.082 -0.1728  0.7098  0.1136
 4180WAT     H117440   1.823   6.920   0.165  1.5590  0.5807  0.6523
 4180WAT     H217441   1.887   6.855   0.063  1.3300  1.5166 -0.1021
 4180WAT    EPW17442   1.850   6.918   0.091  0.3050  0.8099  0.1613
 4181WAT      O17443   7.055   3.693   4.173  1.0328 -0.5081  0.2197
 4181WAT     H117444   7.088   3.688   4.253  2.4237 -0.0372 -0.3030
 4181WAT     H217445   7.035   3.610   4.154 -0.5191 -0.4737  1.5083
 4181WAT    EPW17446   7.057   3.680   4.182  1.0090 -0.4334  0.3328
 4182WAT      O17447   1.773   2.582   4.864  0.3270 -0.1124 -0.3274
 4182WAT     H117448   1.808   2.633   4.925 -0.0697 -0.3333  0.0914
 4182WAT     H217449   1.825   2.594   4.795  0.3289  0.7351 -0.1923
 4182WAT    EPW17450   1.786   2.591   4.863  0.2687 -0.0198 -0.2456
 4183WAT      O17451   4.895   6.081   0.280 -0.2538 -0.7130  0.2913
 4183WAT     H117452   4.916   6.069   0.196  0.3472  0.2464  0.2959
 4183WAT     H217453   4.965   6.120   0.314 -1.0608  0.2734  0.8879
 4183WAT    EPW17454   4.908   6.085   0.273 -0.2842 -0.4256  0.3801
 4184WAT      O17455   6.122   3.957   5.675  0.3802 -0.6406 -0.8062
 4184WAT     H117456   6.103   3.970   5.591 -2.4196 -0.0262 -0.1575
 4184WAT     H217457   6.063   4.004   5.718 -0.4885 -3.5325  1.5311
 4184WAT    EPW17458   6.110   3.966   5.669 -0.1617 -0.9771 -0.3651
 4185WAT      O17459   7.184   2.916   6.411 -0.0309 -0.0489  0.1375
 4185WAT     H117460   7.176   3.001   6.391  1.8891  0.6365  1.8470
 4185WAT     H217461   7.105   2.883   6.394 -0.6309  1.9149 -1.2550
 4185WAT    EPW17462   7.171   2.924   6.405  0.1641  0.3424  0.1843
 4186WAT      O17463   0.052   0.739   5.770 -0.2962 -0.4658 -0.9113
 4186WAT     H117464   0.123   0.725   5.819  1.0758  0.7711 -2.4676
 4186WAT     H217465   0.079   0.724   5.689 -2.6112 -2.8291 -1.4087
 4186WAT    EPW17466   0.067   0.735   5.765 -0.4355 -0.6322 -1.2147
 4187WAT      O17467   0.548   3.689   2.361  0.4201  0.3144 -0.1064
 4187WAT     H117468   0.575   3.759   2.406  1.1255 -0.0878  0.1235
 4187WAT     H217469   0.617   3.635   2.365  0.7829  0.5322 -2.2752
 4187WAT    EPW17470   0.562   3.692   2.368  0.5779  0.2871 -0.3928
 4188WAT      O17471   0.034   3.938   1.013 -0.5770  0.5887 -0.2262
 4188WAT     H117472   0.010   3.927   1.096  0.0675 -1.2332 -0.2345
 4188WAT     H217473   0.120   3.948   1.017  0.1336 -3.5104 -0.8100
 4188WAT    EPW17474   0.043   3.937   1.026 -0.3768 -0.2860 -0.3137
 4189WAT      O17475   5.935   6.898   5.479 -0.3329 -0.1509 -0.1689
 4189WAT     H117476   6.004   6.848   5.460  1.2642  1.4819  0.9292
 4189WAT     H217477   5.952   6.973   5.437 -0.8624  0.6345  0.9577
 4189WAT    EPW17478   5.948   6.902   5.470 -0.1752  0.2063  0.1598
 4190WAT      O17479   4.231   3.562   0.417 -0.3270  0.2962  0.3331
 4190WAT     H117480   4.205   3.496   0.366 -0.8625  0.4358  0.4192
 4190WAT     H217481   4.224   3.632   0.366  2.1874  0.1019 -0.4493
 4190WAT    EPW17482   4.226   3.563   0.402 -0.0346  0.2881  0.2303
 4191WAT      O17483   6.012   4.051   4.980  0.0404 -0.5731  0.2139
 4191WAT     H117484   6.076   4.109   4.971  0.3692 -1.0571 -0.7808
 4191WAT     H217485   5.954   4.092   5.031  0.4076  0.4987 -0.1947
 4191WAT    EPW17486   6.013   4.066   4.986  0.1432 -0.4862  0.0066
 4192WAT      O17487   1.874   5.049   6.927 -0.5758 -0.3310 -0.1413
 4192WAT     H117488   1.905   5.062   7.007 -2.1864 -0.2093  0.4829
 4192WAT     H217489   1.835   5.124   6.907  0.7612  0.0534 -1.5297
 4192WAT    EPW17490   1.873   5.062   6.936 -0.6163 -0.2562 -0.2542
 4193WAT      O17491   5.207   3.959   6.296 -0.3777  0.1686 -0.1701
 4193WAT     H117492   5.204   4.046   6.307  0.0259  0.1289  0.2971
 4193WAT     H217493   5.286   3.938   6.325  0.2579 -0.1312 -2.0043
 4193WAT    EPW17494   5.218   3.969   6.302 -0.2242  0.1185 -0.3720
 4194WAT      O17495   4.653   2.171   6.850 -0.5672  0.1604  0.2259
 4194WAT     H117496   4.593   2.149   6.909 -1.5239 -0.3736 -0.9137
 4194WAT     H217497   4.607   2.209   6.787  0.5360  1.4188  0.1363
 4194WAT    EPW17498   4.638   2.174   6.850 -0.5456  0.2674  0.0443
 4195WAT      O17499   0.334   4.207   1.026 -0.1100 -0.3283  0.0529
 4195WAT     H117500   0.314   4.266   1.088  1.1444 -2.2682  2.5167
 4195WAT     H217501   0.377   4.254   0.966 -1.5571  1.7035  0.5125
 4195WAT    EPW17502   0.338   4.223   1.027 -0.1385 -0.3147  0.4848
 4196WAT      O17503   0.801   6.360   0.571 -0.4331 -1.0996 -0.2524
 4196WAT     H117504   0.866   6.382   0.517 -0.7748  1.0498  0.1235
 4196WAT     H217505   0.828   6.285   0.606  2.1598 -0.0040  0.3181
 4196WAT    EPW17506   0.815   6.352   0.568 -0.1006 -0.6203 -0.1126
 4197WAT      O17507   7.057   0.161   6.962 -0.0650  0.6964  0.2354
 4197WAT     H117508   7.024   0.209   6.896  0.0181 -0.3555 -0.5938
 4197WAT     H217509   7.058   0.217   7.029 -1.4693  1.3991 -0.2843
 4197WAT    EPW17510   7.052   0.177   6.962 -0.2602  0.6448  0.0361
 4198WAT      O17511   5.827   3.231   6.529  0.0343 -0.0354  0.0328
 4198WAT     H117512   5.845   3.312   6.504 -0.7042  0.8386  2.1013
 4198WAT     H217513   5.830   3.185   6.455 -1.9840  2.2821 -1.6178
 4198WAT    EPW17514   5.830   3.236   6.514 -0.3730  0.4360  0.0945
 4199WAT      O17515   4.335   0.531   6.697  0.0418  0.2381  0.1465
 4199WAT     H117516   4.308   0.581   6.763 -3.2496 -0.3696 -0.5593
 4199WAT     H217517   4.331   0.450   6.730  0.5302  0.0927 -0.1446
 4199WAT    EPW17518   4.330   0.526   6.712 -0.3723  0.1269 -0.0008
 4200WAT      O17519   5.960   5.149   2.253  0.4566 -0.6286 -0.1623
 4200WAT     H117520   5.895   5.182   2.205  0.8230 -0.0159 -0.2438
 4200WAT     H217521   5.980   5.075   2.212 -0.2935 -0.9000 -0.0488
 4200WAT    EPW17522   5.953   5.143   2.240  0.3999 -0.5782 -0.1576
 4201WAT      O17523   2.015   6.379   1.170  0.4524  0.3441 -0.4742
 4201WAT     H117524   2.007   6.384   1.083 -2.0157 -1.4485 -0.4481
 4201WAT     H217525   1.962   6.441   1.199 -0.2577 -0.3459 -0.2695
 4201WAT    EPW17526   2.006   6.389   1.162 -0.0171 -0.0227 -0.4401
 4202WAT      O17527   3.405   2.137   3.489 -0.2451 -0.1832  0.2449
 4202WAT     H117528   3.319   2.139   3.473 -0.1534 -0.6941 -0.3372
 4202WAT     H217529   3.409   2.129   3.576 -0.7794  0.2147  0.3107
 4202WAT    EPW17530   3.393   2.136   3.500 -0.3105 -0.1999  0.1686
 4203WAT      O17531   2.700   6.334   5.117 -0.0981 -0.1957  0.6810
 4203WAT     H117532   2.614   6.345   5.125 -0.2318  0.4380 -1.1743
 4203WAT     H217533   2.708   6.251   5.093 -0.3809  0.2115 -0.9441
 4203WAT    EPW17534   2.689   6.323   5.115 -0.1596 -0.0419  0.1668
 4204WAT      O17535   1.158   4.176   0.932 -0.2313  0.6601  0.0034
 4204WAT     H117536   1.088   4.214   0.898 -0.3140  1.7262  1.2817
 4204WAT     H217537   1.217   4.179   0.868 -0.7328  1.5650 -0.4279
 4204WAT    EPW17538   1.156   4.182   0.918 -0.3176  0.9513  0.1285
 4205WAT      O17539   5.769   6.483   4.907  0.2735 -0.5005 -0.2582
 4205WAT     H117540   5.801   6.403   4.924  1.0147  0.1399  1.6506
 4205WAT     H217541   5.702   6.490   4.963  1.7989  1.1300  1.5018
 4205WAT    EPW17542   5.764   6.472   4.918  0.6083 -0.1651  0.2838
 4206WAT      O17543   6.296   5.847   6.032 -0.0083  0.1911 -0.1953
 4206WAT     H117544   6.329   5.908   5.979 -0.8236  0.6607 -0.1648
 4206WAT     H217545   6.307   5.773   5.986 -0.6915  0.5871 -1.0307
 4206WAT    EPW17546   6.303   5.845   6.017 -0.2297  0.3190 -0.3142
 4207WAT      O17547   3.228   4.970   0.375  0.2089  0.2193  0.1523
 4207WAT     H117548   3.150   4.995   0.345 -0.1019 -0.1708  0.6040
 4207WAT     H217549   3.280   4.975   0.306 -0.2665  0.2984 -0.2017
 4207WAT    EPW17550   3.224   4.974   0.361  0.0928  0.1734  0.1667
 4208WAT      O17551   3.305   1.032   4.186 -0.2021  0.1466 -0.0940
 4208WAT     H117552   3.283   1.110   4.219  1.2397  0.7489 -0.4930
 4208WAT     H217553   3.239   1.013   4.133 -1.2048  0.4693  0.9880
 4208WAT    EPW17554   3.292   1.040   4.183 -0.1372  0.2833  0.0069
 4209WAT      O17555   2.856   0.393   4.794 -0.2211 -0.8258 -0.0033
 4209WAT     H117556   2.804   0.363   4.730 -1.9865  0.3728  0.7851
 4209WAT     H217557   2.827   0.474   4.808  1.7450 -0.1865  0.6744
 4209WAT    EPW17558   2.844   0.400   4.787 -0.1915 -0.5543  0.2133
 4210WAT      O17559   2.449   4.665   0.478  0.7323  0.5440  0.4599
 4210WAT     H117560   2.405   4.686   0.405 -0.2947  0.6664  1.0818
 4210WAT     H217561   2.515   4.617   0.450  1.1616  1.7632 -0.6893
 4210WAT    EPW17562   2.452   4.661   0.463  0.6440  0.7422  0.3820
 4211WAT      O17563   4.137   2.252   6.565  0.3507 -0.1818 -0.1675
 4211WAT     H117564   4.170   2.326   6.599 -0.6296  0.2892 -0.2223
 4211WAT     H217565   4.204   2.196   6.570  0.7982  0.4120  0.8317
 4211WAT    EPW17566   4.152   2.255   6.571  0.2720 -0.0245 -0.0280
 4212WAT      O17567   0.136   5.035   4.560  0.1494 -0.4442  0.4845
 4212WAT     H117568   0.217   5.059   4.540  0.1970 -0.8870  0.1331
 4212WAT     H217569   0.121   4.967   4.508 -1.0452  0.6223 -0.6354
 4212WAT    EPW17570   0.146   5.028   4.549 -0.0201 -0.3520  0.2671
 4213WAT      O17571   3.919   1.307   6.782  0.3036  0.1166  0.1386
 4213WAT     H117572   3.886   1.241   6.829 -0.7267  0.3842 -0.1774
 4213WAT     H217573   3.950   1.267   6.711 -0.0346 -0.0683  0.0910
 4213WAT    EPW17574   3.919   1.291   6.779  0.1014  0.1288  0.0849
 4214WAT      O17575   0.665   4.482   5.813  0.4104  0.1795  0.1818
 4214WAT     H117576   0.578   4.475   5.816  0.3902  0.6212  1.3329
 4214WAT     H217577   0.684   4.523   5.887  1.9222 -3.3193  1.9797
 4214WAT    EPW17578   0.655   4.487   5.824  0.6307 -0.2721  0.6174
 4215WAT      O17579   5.400   3.220   2.104  0.5193 -0.1488 -0.3402
 4215WAT     H117580   5.382   3.267   2.032  3.2262  2.6984  0.6126
 4215WAT     H217581   5.327   3.225   2.151 -0.4462  0.0308 -1.7754
 4215WAT    EPW17582   5.386   3.227   2.100  0.7765  0.2983 -0.4115
 4216WAT      O17583   6.868   2.158   6.973  0.0133  0.4418  0.9502
 4216WAT     H117584   6.927   2.222   6.972 -0.8814  1.3307 -1.2713
 4216WAT     H217585   6.792   2.200   6.970 -0.6418 -0.6973  0.8418
 4216WAT    EPW17586   6.865   2.173   6.972 -0.2156  0.4049  0.6060
 4217WAT      O17587   5.084   5.598   4.241 -0.2153 -0.0627  0.0215
 4217WAT     H117588   5.106   5.680   4.220  0.8934 -0.0192  1.1929
 4217WAT     H217589   5.104   5.593   4.326 -1.1784 -1.2631  0.1973
 4217WAT    EPW17590   5.090   5.609   4.250 -0.1938 -0.2336  0.2205
 4218WAT      O17591   5.067   1.392   2.166 -0.3043 -0.1344  0.2819
 4218WAT     H117592   5.109   1.317   2.177  1.0951  0.3648 -1.1618
 4218WAT     H217593   4.986   1.368   2.145 -0.0791 -1.2088  0.5808
 4218WAT    EPW17594   5.061   1.378   2.165 -0.0643 -0.2193  0.1128
 4219WAT      O17595   2.145   6.061   1.737  0.6149 -0.0356  0.0996
 4219WAT     H117596   2.136   6.109   1.665  0.5209 -0.6180 -0.2916
 4219WAT     H217597   2.156   6.119   1.801  1.3049  0.4681 -0.4751
 4219WAT    EPW17598   2.145   6.076   1.736  0.7029 -0.0472 -0.0431
 4220WAT      O17599   4.901   3.868   4.138  0.2634  0.2264 -0.4411
 4220WAT     H117600   4.926   3.786   4.151  1.1396  0.3950 -1.0505
 4220WAT     H217601   4.923   3.908   4.213 -0.1908 -0.0819 -0.1325
 4220WAT    EPW17602   4.908   3.862   4.151  0.3258  0.2058 -0.4855
 4221WAT      O17603   1.565   3.784   3.966  0.0830 -0.2410  0.0787
 4221WAT     H117604   1.572   3.811   3.883 -3.9431  1.5166  0.0783
 4221WAT     H217605   1.495   3.732   3.965 -0.2401  0.0438  2.3933
 4221WAT    EPW17606   1.555   3.780   3.954 -0.5595  0.0607  0.4206
 4222WAT      O17607   5.126   6.373   6.655  0.2013  0.0083 -0.0092
 4222WAT     H117608   5.075   6.316   6.613 -0.1931  0.3011  0.0734
 4222WAT     H217609   5.152   6.427   6.592 -1.0614  0.9486  0.2462
 4222WAT    EPW17610   5.122   6.373   6.640 -0.0435  0.1905  0.0408
 4223WAT      O17611   0.370   5.033   6.345 -0.2790  0.2735  0.3376
 4223WAT     H117612   0.394   5.068   6.422 -0.8136 -0.8339  1.0303
 4223WAT     H217613   0.287   5.057   6.336  0.2135  1.7810 -0.7336
 4223WAT    EPW17614   0.362   5.042   6.355 -0.2853  0.3326  0.2817
 4224WAT      O17615   4.518   2.182   0.976  0.4946  0.4350  1.1113
 4224WAT     H117616   4.539   2.265   0.993  1.0603  0.6408 -0.4005
 4224WAT     H217617   4.435   2.187   0.948  1.3466  0.9729 -1.6790
 4224WAT    EPW17618   4.508   2.195   0.974  0.7040  0.5449  0.4758
 4225WAT      O17619   3.603   4.512   4.892  0.0955 -0.2136 -0.2316
 4225WAT     H117620   3.547   4.568   4.929 -0.8662 -0.9147 -0.5935
 4225WAT     H217621   3.681   4.539   4.922 -0.5611 -0.3329  1.7346
 4225WAT    EPW17622   3.606   4.524   4.902 -0.1435 -0.3348  0.0054
 4226WAT      O17623   0.309   6.029   4.735  0.3901  0.1978  0.1005
 4226WAT     H117624   0.378   6.022   4.682 -0.1333  1.2620 -0.7654
 4226WAT     H217625   0.297   6.115   4.742 -1.3936  0.0449 -0.5111
 4226WAT    EPW17626   0.318   6.041   4.728  0.0493  0.3325 -0.1178
 4227WAT      O17627   0.687   7.092   4.353 -0.1635 -0.2801  0.5929
 4227WAT     H117628   0.766   7.058   4.340  0.7036  0.8585  2.4661
 4227WAT     H217629   0.667   7.127   4.276  0.8048 -1.2790 -0.1407
 4227WAT    EPW17630   0.696   7.092   4.340  0.1076 -0.2595  0.7612
 4228WAT      O17631   5.946   2.341   0.990  0.1347  0.0489  0.3976
 4228WAT     H117632   5.911   2.400   0.936 -0.6036 -1.3029 -0.6817
 4228WAT     H217633   5.935   2.376   1.069 -0.5930  1.1931 -0.1862
 4228WAT    EPW17634   5.939   2.355   0.994 -0.0819  0.0182  0.1519
 4229WAT      O17635   2.564   6.716   3.716 -0.1204 -0.0280  0.1674
 4229WAT     H117636   2.496   6.668   3.741  1.0669 -1.3902  0.9227
 4229WAT     H217637   2.615   6.659   3.674  0.9874  0.7371  0.4421
 4229WAT    EPW17638   2.562   6.701   3.714  0.2186 -0.1162  0.3196
 4230WAT      O17639   4.196   1.751   1.633  0.1038 -0.2858 -0.3029
 4230WAT     H117640   4.217   1.724   1.553 -1.1999  0.9292 -1.0986
 4230WAT     H217641   4.253   1.816   1.648  0.3903 -0.5555 -0.2026
 4230WAT    EPW17642   4.208   1.757   1.623 -0.0465 -0.1462 -0.4056
 4231WAT      O17643   2.158   2.383   2.747  0.2380  0.2345  0.1613
 4231WAT     H117644   2.188   2.330   2.809 -0.1216  0.9277  0.9337
 4231WAT     H217645   2.074   2.359   2.738 -0.0958  1.0639  0.9469
 4231WAT    EPW17646   2.150   2.371   2.755  0.1356  0.4594  0.3914
 4232WAT      O17647   1.287   3.631   0.873 -0.2633  0.0718  0.3791
 4232WAT     H117648   1.239   3.558   0.874  1.5464 -1.1770  0.0775
 4232WAT     H217649   1.332   3.627   0.947 -0.2653  0.9987  0.4430
 4232WAT    EPW17650   1.286   3.619   0.884  0.0037  0.0243  0.3440
 4233WAT      O17651   3.028   6.570   1.405 -0.0826 -0.3154 -0.4857
 4233WAT     H117652   2.941   6.576   1.402 -0.0783  0.9013  0.8270
 4233WAT     H217653   3.055   6.614   1.335 -0.4891  0.6540 -0.0383
 4233WAT    EPW17654   3.019   6.577   1.394 -0.1420  0.0075 -0.2257
 4234WAT      O17655   1.281   3.042   1.413  0.2728 -0.0351  0.2437
 4234WAT     H117656   1.229   3.049   1.343  0.9994  2.4106 -0.1530
 4234WAT     H217657   1.352   3.001   1.382  0.1468  0.0550 -0.1719
 4234WAT    EPW17658   1.284   3.037   1.398  0.3615  0.3395  0.1237
 4235WAT      O17659   3.267   6.117   3.544 -0.5749 -0.1466  0.4322
 4235WAT     H117660   3.306   6.127   3.622  1.0508 -4.5449  0.4799
 4235WAT     H217661   3.237   6.035   3.547 -0.8681 -0.3677 -3.4091
 4235WAT    EPW17662   3.268   6.107   3.556 -0.3780 -0.8290 -0.1282
 4236WAT      O17663   1.579   3.306   4.306 -0.3854 -0.2314 -0.0302
 4236WAT     H117664   1.559   3.345   4.381 -0.4140 -1.2923  0.5368
 4236WAT     H217665   1.502   3.272   4.279 -0.1267 -1.0059  0.1712
 4236WAT    EPW17666   1.564   3.307   4.313 -0.3514 -0.5025  0.0833
 4237WAT      O17667   1.582   1.425   6.355  0.2227  0.1542 -0.5028
 4237WAT     H117668   1.499   1.416   6.331  0.8460 -0.3607 -2.7163
 4237WAT     H217669   1.581   1.411   6.441 -1.9625  0.1692 -0.4909
 4237WAT    EPW17670   1.570   1.421   6.364 -0.0080  0.0803 -0.8280
 4238WAT      O17671   3.214   3.989   0.921 -0.1575  0.3121 -0.3628
 4238WAT     H117672   3.155   4.004   0.858 -0.0100 -1.3257 -0.9323
 4238WAT     H217673   3.166   3.990   0.994 -0.5366  1.0119 -0.6104
 4238WAT    EPW17674   3.198   3.991   0.923 -0.1917  0.1736 -0.4835
 4239WAT      O17675   4.577   3.421   5.582 -0.0536 -0.0452  0.1492
 4239WAT     H117676   4.624   3.386   5.517 -0.6901  0.6853 -0.7417
 4239WAT     H217677   4.637   3.461   5.632  0.2438  1.9742 -1.6594
 4239WAT    EPW17678   4.593   3.422   5.580 -0.1037  0.3610 -0.2496
 4240WAT      O17679   1.837   5.457   5.076 -0.0212 -0.3464 -0.2605
 4240WAT     H117680   1.793   5.395   5.034 -1.4493  0.2776  0.2262
 4240WAT     H217681   1.820   5.529   5.031 -1.5157  0.3224  1.2525
 4240WAT    EPW17682   1.828   5.459   5.063 -0.4529 -0.1554  0.0349
 4241WAT      O17683   2.144   0.226   1.507  0.1951 -0.2060 -0.1300
 4241WAT     H117684   2.167   0.263   1.430  2.0083 -0.3937  0.2717
 4241WAT     H217685   2.170   0.285   1.566 -2.1463  0.4190  0.3613
 4241WAT    EPW17686   2.151   0.240   1.504  0.1170 -0.1414  0.0019
 4242WAT      O17687   5.390   4.010   0.230  0.1867 -0.3244 -0.0845
 4242WAT     H117688   5.446   4.057   0.278  2.5961 -0.8423 -2.1475
 4242WAT     H217689   5.436   3.939   0.208 -1.2298 -0.7365 -2.0267
 4242WAT    EPW17690   5.405   4.007   0.233  0.3334 -0.4617 -0.6761
 4243WAT      O17691   5.101   2.235   0.950  0.3965 -0.1465 -0.8251
 4243WAT     H117692   5.121   2.207   0.870  0.8718 -1.8015 -0.1779
 4243WAT     H217693   5.017   2.258   0.944  0.2519 -0.8581 -1.6398
 4243WAT    EPW17694   5.092   2.234   0.937  0.4454 -0.4961 -0.8498
 4244WAT      O17695   4.484   5.530   0.619  0.0165 -0.1232 -0.1337
 4244WAT     H117696   4.518   5.560   0.545 -0.3438  0.8151  0.0624
 4244WAT     H217697   4.522   5.579   0.680  1.9149 -2.2515  0.5454
 4244WAT    EPW17698   4.494   5.542   0.617  0.2437 -0.2990 -0.0044
 4245WAT      O17699   0.454   6.936   0.677  0.2382  0.1662 -0.0822
 4245WAT     H117700   0.539   6.917   0.675  0.6234  1.4662  1.5386
 4245WAT     H217701   0.452   7.020   0.700 -1.5009  0.0380  0.3959
 4245WAT    EPW17702   0.466   6.946   0.680  0.0382  0.3393  0.2279
 4246WAT      O17703   0.242   2.429   2.908 -0.0006 -0.3167  0.0481
 4246WAT     H117704   0.220   2.496   2.856  0.2822  0.0179  0.3538
 4246WAT     H217705   0.166   2.396   2.932 -0.1951 -2.0475 -2.5434
 4246WAT    EPW17706   0.228   2.434   2.904  0.0124 -0.5230 -0.2896
 4247WAT      O17707   0.385   5.375   5.260 -0.1577  0.1753  0.5476
 4247WAT     H117708   0.363   5.331   5.332  1.6326  0.3723  1.2736
 4247WAT     H217709   0.320   5.431   5.249 -0.2278  0.4836  2.3182
 4247WAT    EPW17710   0.372   5.376   5.269  0.0964  0.2499  0.9164
 4248WAT      O17711   6.298   7.203   3.540 -0.8656  0.2426  0.1235
 4248WAT     H117712   6.372   7.185   3.582 -1.1694 -1.6719 -0.0737
 4248WAT     H217713   6.299   7.148   3.472 -1.8178  1.1600 -0.6780
 4248WAT    EPW17714   6.309   7.192   3.536 -1.0511  0.0953 -0.0240
 4249WAT      O17715   4.558   1.611   0.130  0.4615 -0.2441 -0.4364
 4249WAT     H117716   4.588   1.614   0.213  1.1328  1.9941 -0.7032
 4249WAT     H217717   4.631   1.603   0.083  0.1062 -1.1183 -0.8593
 4249WAT    EPW17718   4.573   1.610   0.136  0.5082 -0.0426 -0.5383
 4250WAT      O17719   4.720   3.803   7.327 -0.1663 -0.1674 -0.4675
 4250WAT     H117720   4.769   3.844   7.267  3.0914  0.2975  2.2292
 4250WAT     H217721   4.751   3.721   7.324 -0.6988 -0.3807 -0.1101
 4250WAT    EPW17722   4.732   3.797   7.318  0.2363 -0.1303 -0.0164
 4251WAT      O17723   0.209   6.206   5.862 -0.2980 -0.3824  0.3264
 4251WAT     H117724   0.278   6.255   5.883 -0.7938  1.6848 -2.3042
 4251WAT     H217725   0.242   6.145   5.810 -0.1038 -1.1033  1.2708
 4251WAT    EPW17726   0.224   6.204   5.858 -0.3425 -0.1836  0.0773
 4252WAT      O17727   3.973   6.720   4.893  0.1905 -0.7885 -0.3615
 4252WAT     H117728   3.939   6.723   4.812  0.9256 -0.4378 -0.6653
 4252WAT     H217729   3.904   6.738   4.944 -0.1159 -0.2155 -0.9587
 4252WAT    EPW17730   3.957   6.723   4.888  0.2538 -0.6520 -0.4946
 4253WAT      O17731   5.282   0.296   0.267  0.3176 -0.3354  0.8157
 4253WAT     H117732   5.331   0.363   0.292 -0.1875  0.0900  0.6720
 4253WAT     H217733   5.327   0.261   0.201 -0.5841  1.3577 -0.7725
 4253WAT    EPW17734   5.296   0.300   0.261  0.1098 -0.0224  0.5599
 4254WAT      O17735   2.205   5.231   5.046  0.0100 -0.2723  0.1250
 4254WAT     H117736   2.162   5.193   5.111 -0.1967 -0.9514 -0.4099
 4254WAT     H217737   2.289   5.223   5.071 -0.0782 -0.3066  0.4233
 4254WAT    EPW17738   2.211   5.224   5.060 -0.0336 -0.3777  0.0901
 4255WAT      O17739   6.962   3.745   3.163  0.2631  0.2706 -0.1559
 4255WAT     H117740   6.986   3.803   3.224 -0.9182  0.0404  0.5662
 4255WAT     H217741   6.892   3.781   3.126  0.0326 -0.3073 -0.2943
 4255WAT    EPW17742   6.955   3.759   3.167  0.0545  0.1512 -0.0697
 4256WAT      O17743   1.443   3.465   5.761 -0.2906  0.2336  0.1713
 4256WAT     H117744   1.438   3.551   5.747 -0.9517  0.1913  0.0843
 4256WAT     H217745   1.499   3.457   5.827 -0.1604  0.7243  0.1176
 4256WAT    EPW17746   1.450   3.476   5.769 -0.3690  0.2999  0.1505
 4257WAT      O17747   6.904   6.850   4.869  0.2138 -0.6866  0.6616
 4257WAT     H117748   6.977   6.869   4.826  0.7688 -1.4359  1.2403
 4257WAT     H217749   6.878   6.775   4.833  0.5446 -1.1866  1.4480
 4257WAT    EPW17750   6.911   6.842   4.858  0.3447 -0.8711  0.8632
 4258WAT      O17751   6.664   0.497   1.096 -0.0652 -0.4905  0.4215
 4258WAT     H117752   6.583   0.465   1.101  0.7164 -2.5339  1.1988
 4258WAT     H217753   6.713   0.436   1.136  2.2191 -0.6175 -2.2357
 4258WAT    EPW17754   6.660   0.483   1.103  0.3877 -0.8111  0.1438
 4259WAT      O17755   2.807   1.169   4.533  0.2878 -0.0797 -0.7424
 4259WAT     H117756   2.864   1.160   4.469  0.3735  0.9983 -0.8311
 4259WAT     H217757   2.830   1.244   4.572 -0.9397  0.3040 -0.6817
 4259WAT    EPW17758   2.819   1.179   4.530  0.1191  0.1362 -0.7465
 4260WAT      O17759   4.504   4.162   2.553 -0.1286 -0.1406 -0.2941
 4260WAT     H117760   4.429   4.193   2.586 -0.9169 -1.4160 -0.7769
 4260WAT     H217761   4.479   4.130   2.475  0.4335 -2.5116  0.4020
 4260WAT    EPW17762   4.489   4.162   2.546 -0.1620 -0.6792 -0.2626
 4261WAT      O17763   1.175   5.009   2.693  0.1214 -0.0678  0.3884
 4261WAT     H117764   1.258   4.990   2.676 -0.6320 -1.3435 -2.4345
 4261WAT     H217765   1.138   4.931   2.703 -1.0843  0.3717 -0.4525
 4261WAT    EPW17766   1.182   4.995   2.692 -0.1680 -0.1913 -0.1528
 4262WAT      O17767   2.090   6.567   2.611  0.4321  0.9813 -0.1476
 4262WAT     H117768   2.047   6.608   2.675 -1.1755 -1.7288  0.6370
 4262WAT     H217769   2.172   6.567   2.639 -0.2953 -0.6558  2.3507
 4262WAT    EPW17770   2.096   6.573   2.624  0.0872  0.3391  0.3373
 4263WAT      O17771   0.759   0.368   7.150  0.0536 -0.3950 -0.1210
 4263WAT     H117772   0.748   0.282   7.160 -0.2407 -0.4961 -1.1979
 4263WAT     H217773   0.717   0.402   7.219 -2.4536 -0.9978 -1.2516
 4263WAT    EPW17774   0.751   0.360   7.162 -0.3603 -0.4990 -0.4471
 4264WAT      O17775   1.682   4.625   5.872 -0.1138 -0.0526 -0.3137
 4264WAT     H117776   1.666   4.570   5.938 -0.3413  0.1644 -0.1871
 4264WAT     H217777   1.616   4.611   5.817 -0.4334  0.4267 -0.0607
 4264WAT    EPW17778   1.670   4.615   5.874 -0.1946  0.0503 -0.2576
 4265WAT      O17779   6.208   0.906   0.593  0.0754 -0.2443  0.0292
 4265WAT     H117780   6.258   0.887   0.662  0.8369 -0.4158 -0.5536
 4265WAT     H217781   6.253   0.873   0.526 -1.2118 -1.1386 -0.4364
 4265WAT    EPW17782   6.222   0.898   0.593 -0.0022 -0.4017 -0.1257
 4266WAT      O17783   7.017   3.498   6.619  0.5218 -0.1404 -0.0388
 4266WAT     H117784   6.976   3.433   6.660  0.0836  0.0569 -0.1600
 4266WAT     H217785   6.970   3.569   6.640  0.7555  0.0774 -0.2370
 4266WAT    EPW17786   7.004   3.499   6.628  0.4916 -0.0791 -0.0860
 4267WAT      O17787   1.989   3.252   7.315  0.0955  0.2875 -0.4296
 4267WAT     H117788   1.917   3.204   7.322 -1.6592  2.8610  0.7011
 4267WAT     H217789   2.034   3.232   7.388 -1.4216  1.4748  0.9076
 4267WAT    EPW17790   1.985   3.242   7.327 -0.3878  0.8431 -0.0651
 4268WAT      O17791   2.033   1.532   6.356 -0.3834  0.0123 -0.4183
 4268WAT     H117792   1.988   1.518   6.429 -0.7408 -0.8178 -0.7874
 4268WAT     H217793   2.114   1.548   6.385 -0.9710  2.0451  0.2860
 4268WAT    EPW17794   2.039   1.532   6.371 -0.5230  0.1900 -0.3688
 4269WAT      O17795   4.292   5.614   1.878  0.6481 -0.5460 -0.1220
 4269WAT     H117796   4.379   5.620   1.872  0.6584 -0.4508  0.1185
 4269WAT     H217797   4.278   5.528   1.871  0.6700 -0.4683 -1.3115
 4269WAT    EPW17798   4.303   5.602   1.876  0.6528 -0.5205 -0.2622
 4270WAT      O17799   4.834   1.981   2.460 -0.2166  0.6479  0.3842
 4270WAT     H117800   4.784   1.909   2.464 -0.0134  0.2850 -2.0625
 4270WAT     H217801   4.895   1.967   2.520 -0.8862 -0.6566  0.8000
 4270WAT    EPW17802   4.836   1.968   2.470 -0.2855  0.4016  0.0842
 4271WAT      O17803   6.320   0.080   0.762  0.5178  0.8506  0.1516
 4271WAT     H117804   6.315  -0.006   0.777  1.4766  0.9336  1.0168
 4271WAT     H217805   6.269   0.091   0.692  1.8650 -0.7127 -1.1587
 4271WAT    EPW17806   6.312   0.069   0.754  0.8584  0.6319  0.0858
 4272WAT      O17807   4.095   4.872   0.456  0.4055 -0.6001 -0.5126
 4272WAT     H117808   4.099   4.785   0.466 -1.6601 -0.5412  1.6337
 4272WAT     H217809   4.012   4.887   0.436  0.4219  0.9460  0.4182
 4272WAT    EPW17810   4.084   4.861   0.455  0.1028 -0.3630 -0.0581
 4273WAT      O17811   1.105   0.483   0.268  0.0089  0.2429 -0.3240
 4273WAT     H117812   1.097   0.570   0.267  1.3960  0.3952 -1.4952
 4273WAT     H217813   1.171   0.469   0.323 -0.6511 -0.1275  0.3784
 4273WAT    EPW17814   1.113   0.494   0.276  0.1163  0.2107 -0.3932
 4274WAT      O17815   2.129   6.918   2.074 -0.1698  0.0161 -0.3155
 4274WAT     H117816   2.111   6.868   2.005  0.2128  0.5891 -0.8392
 4274WAT     H217817   2.073   6.890   2.135 -1.2232  0.1926 -1.1742
 4274WAT    EPW17818   2.118   6.906   2.073 -0.2689  0.1268 -0.5197
 4275WAT      O17819   2.610   2.585   7.079 -0.1075 -0.3644 -0.2118
 4275WAT     H117820   2.555   2.651   7.093  0.2788  0.1408 -0.9694
 4275WAT     H217821   2.566   2.515   7.105  0.5000  0.3845  3.4629
 4275WAT    EPW17822   2.595   2.584   7.085  0.0393 -0.1792  0.2191
 4276WAT      O17823   3.045   6.722   7.127 -0.4697  0.4805  0.1266
 4276WAT     H117824   3.115   6.718   7.075 -0.2360  1.3634  0.3656
 4276WAT     H217825   2.978   6.726   7.070 -0.3853 -0.9102 -0.1045
 4276WAT    EPW17826   3.045   6.722   7.111 -0.4227  0.4055  0.1278
 4277WAT      O17827   2.410   3.214   6.504 -0.5253  0.4429  0.3195
 4277WAT     H117828   2.491   3.208   6.471 -0.7149 -0.9240  0.0550
 4277WAT     H217829   2.363   3.248   6.439 -0.6364 -1.0190 -0.3876
 4277WAT    EPW17830   2.415   3.218   6.490 -0.5697  0.0250  0.1760
 4278WAT      O17831   3.259   5.709   2.990  0.4737 -0.0210 -0.1129
 4278WAT     H117832   3.324   5.765   3.006 -0.5056  0.8951  0.7964
 4278WAT     H217833   3.298   5.631   2.995  1.3054  0.4582  1.5132
 4278WAT    EPW17834   3.275   5.706   2.993  0.4519  0.1851  0.2616
 4279WAT      O17835   5.829   0.947   6.931  0.7639 -0.1751  0.2656
 4279WAT     H117836   5.802   1.028   6.949  0.0083 -0.4925  0.6410
 4279WAT     H217837   5.829   0.909   7.010 -0.4851 -0.9883 -0.0877
 4279WAT    EPW17838   5.825   0.953   6.945  0.4678 -0.3421  0.2688
 4280WAT      O17839   6.922   1.392   2.100  0.5288  0.0874  0.7584
 4280WAT     H117840   6.939   1.411   2.017  0.1637  1.8888  1.0559
 4280WAT     H217841   6.912   1.470   2.137 -0.1634 -0.7018  2.3226
 4280WAT    EPW17842   6.923   1.407   2.093  0.3726  0.2369  1.0334
 4281WAT      O17843   1.425   3.694   6.396 -0.6496  0.1642  0.6202
 4281WAT     H117844   1.377   3.699   6.468  0.4502 -0.0287  1.3803
 4281WAT     H217845   1.469   3.619   6.405 -0.4258  0.1834 -0.2030
 4281WAT    EPW17846   1.424   3.683   6.408 -0.4541  0.1386  0.6108
 4282WAT      O17847   1.806   5.130   5.662 -0.1927 -0.1814  0.6022
 4282WAT     H117848   1.733   5.092   5.633 -0.9475  0.8297  1.1033
 4282WAT     H217849   1.861   5.124   5.594 -0.6416 -1.1932  0.3105
 4282WAT    EPW17850   1.803   5.124   5.647 -0.3705 -0.1815  0.6331
 4283WAT      O17851   2.957   3.402   4.253 -0.2616 -0.4236 -0.3175
 4283WAT     H117852   2.988   3.349   4.191  0.7912  0.2158 -0.3756
 4283WAT     H217853   3.018   3.464   4.258 -0.3204 -0.4753  1.3854
 4283WAT    EPW17854   2.971   3.403   4.244 -0.1147 -0.3368 -0.0745
 4284WAT      O17855   5.271   2.410   5.686 -0.2944 -0.3644 -0.2459
 4284WAT     H117856   5.218   2.478   5.670 -1.6634 -1.1867  0.6439
 4284WAT     H217857   5.244   2.350   5.629  0.0401 -0.6295 -0.1242
 4284WAT    EPW17858   5.260   2.411   5.675 -0.4472 -0.5250 -0.0965
 4285WAT      O17859   5.802   5.291   3.512 -0.2386 -0.2916 -0.1291
 4285WAT     H117860   5.743   5.321   3.569  1.6543  0.5283  1.5323
 4285WAT     H217861   5.852   5.239   3.561  0.8438 -0.3766 -1.2893
 4285WAT    EPW17862   5.801   5.288   3.528  0.2009 -0.1830 -0.0550
 4286WAT      O17863   2.591   3.258   2.826  0.4130 -0.0881  0.0160
 4286WAT     H117864   2.521   3.235   2.873 -0.2591 -1.6279 -1.6342
 4286WAT     H217865   2.647   3.289   2.885 -0.6001 -1.4220  1.7429
 4286WAT    EPW17866   2.589   3.259   2.841  0.1641 -0.5126  0.0273
 4287WAT      O17867   5.374   0.597   3.677 -0.5106 -0.3795  0.1578
 4287WAT     H117868   5.445   0.550   3.695  1.0521  1.5382 -0.7069
 4287WAT     H217869   5.355   0.636   3.752 -0.5945 -0.7726  0.3464
 4287WAT    EPW17870   5.382   0.596   3.691 -0.2922 -0.1543  0.0579
 4288WAT      O17871   2.016   4.343   0.456  0.3685 -0.1994  0.8016
 4288WAT     H117872   1.958   4.282   0.481 -0.6280  0.5875  0.4750
 4288WAT     H217873   1.998   4.354   0.371  1.7286 -0.6995  0.4215
 4288WAT    EPW17874   2.005   4.336   0.447  0.4222 -0.1570  0.6972
 4289WAT      O17875   2.646   1.033   1.392  0.3018 -0.5994  0.0931
 4289WAT     H117876   2.592   1.009   1.327  1.5615  0.4290 -1.4371
 4289WAT     H217877   2.722   0.996   1.370  0.6413 -0.6207  1.2710
 4289WAT    EPW17878   2.649   1.024   1.379  0.5380 -0.4507  0.0411
 4290WAT      O17879   2.151   3.817   4.444  0.2578  0.4241  0.1083
 4290WAT     H117880   2.077   3.818   4.399  0.3773  0.5801 -0.0889
 4290WAT     H217881   2.196   3.884   4.411  0.5980  0.1647  0.0369
 4290WAT    EPW17882   2.147   3.827   4.432  0.3257  0.4089  0.0686
 4291WAT      O17883   6.255   3.804   6.611  0.0586  0.0927  0.1406
 4291WAT     H117884   6.233   3.770   6.688  2.2363 -0.7183  0.4693
 4291WAT     H217885   6.252   3.890   6.625 -0.3790 -0.0357  0.8671
 4291WAT    EPW17886   6.251   3.812   6.624  0.3157 -0.0461  0.2965
 4292WAT      O17887   3.219   2.456   6.407  0.4151 -0.2935 -0.1170
 4292WAT     H117888   3.275   2.394   6.430  0.6098 -1.4732 -3.2174
 4292WAT     H217889   3.271   2.524   6.389  0.5495 -0.3765 -0.0437
 4292WAT    EPW17890   3.235   2.457   6.408  0.4637 -0.4800 -0.5642
 4293WAT      O17891   5.744   0.776   5.963  0.3196 -0.5562  0.3834
 4293WAT     H117892   5.715   0.715   6.018 -0.1038 -0.1819  0.5880
 4293WAT     H217893   5.675   0.828   5.953  0.6739 -0.1142  0.2154
 4293WAT    EPW17894   5.730   0.775   5.970  0.3094 -0.4356  0.3888
 4294WAT      O17895   2.680   3.244   0.983 -0.2755 -0.2145 -0.8983
 4294WAT     H117896   2.765   3.241   1.002 -0.3538 -0.9461 -0.6166
 4294WAT     H217897   2.668   3.326   0.955  0.6023 -0.2231 -1.3364
 4294WAT    EPW17898   2.691   3.256   0.981 -0.1574 -0.3239 -0.9214
 4295WAT      O17899   2.888   1.873   3.448  0.4048  0.3096 -0.1065
 4295WAT     H117900   2.931   1.901   3.378 -1.1728  0.8057 -0.9284
 4295WAT     H217901   2.952   1.854   3.505  1.7042  0.3771 -1.4747
 4295WAT    EPW17902   2.904   1.875   3.446  0.3637  0.3929 -0.4300
 4296WAT      O17903   6.063   4.007   7.001 -0.8425  0.0416 -0.0939
 4296WAT     H117904   6.020   3.968   7.066  0.4632  0.1498  0.8797
 4296WAT     H217905   6.046   3.956   6.932 -2.7726  0.2871  0.1636
 4296WAT    EPW17906   6.054   3.994   7.001 -0.9347  0.0939  0.0880
 4297WAT      O17907   0.828   4.243   5.180  0.3012  0.4720  0.0642
 4297WAT     H117908   0.810   4.203   5.256 -0.9371 -1.2635 -1.0504
 4297WAT     H217909   0.915   4.246   5.178  0.3666 -0.2065  1.1940
 4297WAT    EPW17910   0.838   4.237   5.191  0.1280  0.1154  0.0665
 4298WAT      O17911   2.732   4.308   2.018  0.4021 -0.2458  0.2063
 4298WAT     H117912   2.669   4.334   2.071 -0.0937 -0.0458 -0.4633
 4298WAT     H217913   2.803   4.351   2.046  0.9670 -2.5787  2.7755
 4298WAT    EPW17914   2.733   4.318   2.030  0.4123 -0.5608  0.4869
 4299WAT      O17915   0.651   6.884   7.165 -0.1554  0.0850  0.2387
 4299WAT     H117916   0.679   6.833   7.099 -0.4506  0.1945  0.0281
 4299WAT     H217917   0.592   6.935   7.128  0.9604  1.3837  0.1909
 4299WAT    EPW17918   0.646   6.884   7.150 -0.0342  0.2931  0.2005
 4300WAT      O17919   4.919   3.569   4.479 -0.6756  0.0761  0.2338
 4300WAT     H117920   4.899   3.633   4.535  0.4548 -0.0921  0.8717
 4300WAT     H217921   4.847   3.521   4.475 -2.0662  2.1298 -1.3397
 4300WAT    EPW17922   4.906   3.571   4.486 -0.7140  0.3546  0.0956
 4301WAT      O17923   6.248   0.261   5.580 -0.1155 -0.4185 -0.2019
 4301WAT     H117924   6.301   0.288   5.517 -0.1552 -1.6827 -0.7960
 4301WAT     H217925   6.188   0.325   5.586 -0.0958 -0.2664 -1.4224
 4301WAT    EPW17926   6.247   0.275   5.572 -0.1185 -0.5828 -0.4699
 4302WAT      O17927   2.948   1.768   1.671  0.1731  0.2606  0.2253
 4302WAT     H117928   2.901   1.831   1.708 -0.7899 -0.2975 -0.0030
 4302WAT     H217929   2.920   1.767   1.589  0.8684  0.1684 -0.0148
 4302WAT    EPW17930   2.937   1.777   1.665  0.1336  0.1645  0.1561
 4303WAT      O17931   5.694   2.294   4.950 -0.3780  0.0417  0.2542
 4303WAT     H117932   5.650   2.347   4.897 -0.9817 -0.8723 -0.1668
 4303WAT     H217933   5.633   2.264   5.004 -0.3930 -1.5951 -0.6213
 4303WAT    EPW17934   5.679   2.298   4.950 -0.4694 -0.3351  0.0627
 4304WAT      O17935   2.722   2.475   2.109  0.1682  0.0779 -0.1093
 4304WAT     H117936   2.669   2.422   2.064 -0.9609  0.5722  0.5804
 4304WAT     H217937   2.698   2.555   2.081  0.9656  0.2916 -0.2062
 4304WAT    EPW17938   2.711   2.479   2.098  0.1192  0.1825 -0.0217
 4305WAT      O17939   3.854   6.719   4.103 -0.0165 -0.2268  0.0736
 4305WAT     H117940   3.864   6.805   4.112  0.6322 -0.4586  2.1194
 4305WAT     H217941   3.780   6.711   4.058  0.4902  1.3886 -1.1447
 4305WAT    EPW17942   3.845   6.730   4.097  0.1542 -0.0224  0.1958
 4306WAT      O17943   7.093   4.251   2.973  0.6462 -0.5348  0.1454
 4306WAT     H117944   7.060   4.185   2.927 -0.5027  1.0399 -1.4312
 4306WAT     H217945   7.123   4.213   3.046 -0.3479 -2.7001 -0.5022
 4306WAT    EPW17946   7.093   4.236   2.977  0.3296 -0.6220 -0.1831
 4307WAT      O17947   0.754   4.865   2.316 -0.4917 -0.3015  0.0038
 4307WAT     H117948   0.726   4.804   2.372 -4.2693  0.4220 -0.8329
 4307WAT     H217949   0.712   4.937   2.341  1.5562  1.2950 -0.8525
 4307WAT    EPW17950   0.744   4.867   2.328 -0.7472  0.0412 -0.2463
 4308WAT      O17951   1.371   1.538   2.907  0.1737  0.1980  0.0697
 4308WAT     H117952   1.399   1.568   2.830 -1.2393 -1.1822 -1.0512
 4308WAT     H217953   1.345   1.457   2.888  1.0769 -0.6724  2.3144
 4308WAT    EPW17954   1.371   1.530   2.893  0.0984 -0.1344  0.2357
 4309WAT      O17955   4.212   5.140   7.193 -0.3669 -0.2197 -0.0896
 4309WAT     H117956   4.282   5.094   7.216  0.9011  2.0113  0.7533
 4309WAT     H217957   4.146   5.098   7.233  0.6360 -1.5660  0.2152
 4309WAT    EPW17958   4.213   5.127   7.203 -0.0315 -0.0890  0.0799
 4310WAT      O17959   5.801   5.177   7.361  0.0579 -0.2337  0.2928
 4310WAT     H117960   5.752   5.249   7.355 -1.1881 -1.1110 -0.8287
 4310WAT     H217961   5.792   5.140   7.283  2.5928 -0.4498  0.0154
 4310WAT    EPW17962   5.793   5.182   7.349  0.2483 -0.3952  0.0862
 4311WAT      O17963   6.167   2.342   1.957 -0.0522 -0.0736 -0.0118
 4311WAT     H117964   6.213   2.365   2.027 -2.1952 -1.7222  2.0887
 4311WAT     H217965   6.154   2.256   1.969  0.2758 -0.6394 -2.9638
 4311WAT    EPW17966   6.172   2.333   1.969 -0.3203 -0.4007 -0.1376
 4312WAT      O17967   0.840   5.997   6.867  0.4680 -0.0969  0.5931
 4312WAT     H117968   0.873   6.005   6.947  0.0724  1.0756  0.6607
 4312WAT     H217969   0.754   5.998   6.880  0.2054 -4.0497  0.5156
 4312WAT    EPW17970   0.832   5.998   6.881  0.3707 -0.5076  0.5916
 4313WAT      O17971   0.901   2.757   3.887 -0.3811 -0.3765 -0.2101
 4313WAT     H117972   0.983   2.727   3.890  0.8064  2.4780  2.5136
 4313WAT     H217973   0.861   2.714   3.951 -1.3962 -2.3954 -2.0896
 4313WAT    EPW17974   0.907   2.747   3.897 -0.3556 -0.2531 -0.0854
 4314WAT      O17975   2.773   1.334   6.062  0.3095  0.8156 -0.1826
 4314WAT     H117976   2.688   1.341   6.043  0.3117  1.1474 -0.0650
 4314WAT     H217977   2.802   1.275   6.004  0.0328  0.8230 -0.3280
 4314WAT    EPW17978   2.765   1.326   6.050  0.2689  0.8657 -0.1867
 4315WAT      O17979   7.057   1.151   4.060 -0.5582  0.1115 -0.0281
 4315WAT     H117980   7.110   1.110   4.005  0.8494  0.8176  0.7639
 4315WAT     H217981   7.011   1.087   4.096 -1.5538 -0.3795 -1.9972
 4315WAT    EPW17982   7.058   1.136   4.057 -0.4974  0.1433 -0.2020
 4316WAT      O17983   7.111   6.161   3.283 -0.3143 -0.0150 -0.3053
 4316WAT     H117984   7.092   6.205   3.210  0.3991  0.9694  0.0858
 4316WAT     H217985   7.055   6.194   3.341  1.8273  2.2632  0.6292
 4316WAT    EPW17986   7.100   6.172   3.281  0.1074  0.4670 -0.1095
 4317WAT      O17987   3.943   1.517   0.157 -0.7115  0.6581 -0.2451
 4317WAT     H117988   3.931   1.538   0.074 -0.9688  1.4256 -0.0244
 4317WAT     H217989   3.951   1.595   0.197  0.7362  0.2838  0.2479
 4317WAT    EPW17990   3.942   1.532   0.151 -0.5356  0.7162 -0.1397
 4318WAT      O17991   0.308   5.576   1.797 -0.2186  0.4851 -0.6623
 4318WAT     H117992   0.362   5.509   1.783  2.1392  2.0660  0.2333
 4318WAT     H217993   0.282   5.565   1.880  0.7022  1.0067 -0.2959
 4318WAT    EPW17994   0.312   5.565   1.807  0.2657  0.7957 -0.4759
 4319WAT      O17995   3.732   2.305   2.551 -0.0794 -0.0085  0.1083
 4319WAT     H117996   3.810   2.334   2.523 -0.2083 -0.0120 -0.2471
 4319WAT     H217997   3.685   2.298   2.479 -0.4888  0.2181  0.3519
 4319WAT    EPW17998   3.737   2.308   2.536 -0.1589  0.0244  0.0918
 4320WAT      O17999   1.203   2.261   4.604  0.3348  0.0980 -0.8807
 4320WAT     H118000   1.237   2.336   4.575 -0.6607  0.7838 -0.3074
 4320WAT     H218001   1.137   2.246   4.549  1.1062 -0.8778 -1.5796
 4320WAT    EPW18002   1.198   2.270   4.591  0.3017  0.0552 -0.8993
 4321WAT      O18003   5.306   6.295   0.805  0.2880 -0.5454 -0.0987
 4321WAT     H118004   5.263   6.246   0.748  0.1192 -2.2385  1.4114
 4321WAT     H218005   5.389   6.269   0.797  0.2063 -1.0528  0.6730
 4321WAT    EPW18006   5.312   6.284   0.795  0.2510 -0.8704  0.2383
 4322WAT      O18007   1.958   1.674   5.340 -0.1521 -0.1556  0.0192
 4322WAT     H118008   1.894   1.617   5.353  1.7506 -2.7496 -1.0171
 4322WAT     H218009   1.943   1.706   5.261 -0.7769  0.1676  0.2644
 4322WAT    EPW18010   1.946   1.671   5.330  0.0367 -0.4911 -0.0976
 4323WAT      O18011   1.556   0.669   3.316 -0.1256  0.1235 -0.2930
 4323WAT     H118012   1.585   0.633   3.390 -2.1902 -0.6787  0.1913
 4323WAT     H218013   1.624   0.716   3.288  1.0751 -0.4259  1.5277
 4323WAT    EPW18014   1.570   0.671   3.323 -0.2532 -0.0762  0.0475
 4324WAT      O18015   5.326   4.702   5.844 -0.0483  0.9784 -0.7298
 4324WAT     H118016   5.254   4.707   5.795  1.1230 -0.1248 -2.7191
 4324WAT     H218017   5.359   4.624   5.823 -0.7882 -0.8784  3.8726
 4324WAT    EPW18018   5.320   4.691   5.833  0.0155  0.5411 -0.3438
 4325WAT      O18019   1.327   2.528   4.572 -0.4620  0.3848  0.0689
 4325WAT     H118020   1.292   2.588   4.624 -0.5363 -0.1643  0.6679
 4325WAT     H218021   1.399   2.502   4.615 -1.7509 -1.7582  1.0992
 4325WAT    EPW18022   1.333   2.533   4.586 -0.6634 -0.0129  0.3096
 4326WAT      O18023   6.688   3.212   1.704  0.1392 -0.2580 -0.7032
 4326WAT     H118024   6.676   3.195   1.619  0.0536  0.9622 -0.9579
 4326WAT     H218025   6.608   3.233   1.732  0.3761  0.6281 -0.6490
 4326WAT    EPW18026   6.675   3.213   1.695  0.1615  0.0531 -0.7328
 4327WAT      O18027   1.359   0.144   1.332 -0.1690 -0.5924 -0.4786
 4327WAT     H118028   1.340   0.065   1.363  0.6588 -1.6013 -2.3299
 4327WAT     H218029   1.446   0.150   1.340 -0.2477  0.2568 -0.1051
 4327WAT    EPW18030   1.369   0.133   1.338 -0.0584 -0.6160 -0.6969
 4328WAT      O18031   1.035   0.902   1.576  0.5318  0.7084  0.6842
 4328WAT     H118032   1.054   0.959   1.512  1.4891 -0.3901 -0.0409
 4328WAT     H218033   1.063   0.943   1.648  2.3077  0.7148  0.0418
 4328WAT    EPW18034   1.042   0.917   1.577  0.9356  0.5471  0.4822
 4329WAT      O18035   1.511   6.163   4.087  0.2294 -0.5226 -0.0521
 4329WAT     H118036   1.425   6.152   4.102 -0.0462  0.9873 -0.4260
 4329WAT     H218037   1.548   6.106   4.142 -0.9925 -0.7266  0.6003
 4329WAT    EPW18038   1.504   6.153   4.097  0.0082 -0.3297 -0.0109
 4330WAT      O18039   3.572   3.108   2.970 -0.1207  0.2062 -0.1927
 4330WAT     H118040   3.604   3.055   2.908 -0.6622 -0.0391 -0.2653
 4330WAT     H218041   3.486   3.105   2.957 -0.4405 -1.3822  1.7736
 4330WAT    EPW18042   3.564   3.100   2.959 -0.2479 -0.0647  0.0870
 4331WAT      O18043   2.306   4.656   4.859  0.0865 -0.3216  0.0573
 4331WAT     H118044   2.364   4.720   4.874  0.2939 -0.1707 -1.2877
 4331WAT     H218045   2.279   4.672   4.778 -0.5342 -1.4278  0.0351
 4331WAT    EPW18046   2.311   4.668   4.849  0.0255 -0.4627 -0.1447
 4332WAT      O18047   3.051   5.112   7.015  0.6120 -0.3412  0.1339
 4332WAT     H118048   3.104   5.093   6.949  1.9315 -0.5742  1.2139
 4332WAT     H218049   3.090   5.179   7.054  0.0645 -0.4619  0.9091
 4332WAT    EPW18050   3.064   5.119   7.011  0.7260 -0.3935  0.4079
 4333WAT      O18051   1.625   2.672   0.150 -0.0868 -0.2469 -0.0734
 4333WAT     H118052   1.702   2.677   0.110  0.1199 -2.3534 -0.0337
 4333WAT     H218053   1.568   2.664   0.085 -0.0705 -0.5630 -0.0505
 4333WAT    EPW18054   1.628   2.672   0.134 -0.0539 -0.6048 -0.0642
 4334WAT      O18055   5.595   4.936   6.267  0.1948 -0.9042 -0.5456
 4334WAT     H118056   5.579   4.933   6.182  0.1325 -3.0219 -0.5232
 4334WAT     H218057   5.670   4.980   6.273  1.1735 -2.2830 -1.9010
 4334WAT    EPW18058   5.604   4.942   6.256  0.3302 -1.4207 -0.7425
 4335WAT      O18059   5.544   5.192   3.080  0.6908  0.3908  0.3596
 4335WAT     H118060   5.621   5.233   3.073  0.2175  1.2910  0.2432
 4335WAT     H218061   5.490   5.255   3.106 -0.0154 -0.2301  0.4256
 4335WAT    EPW18062   5.547   5.207   3.083  0.5166  0.4321  0.3522
 4336WAT      O18063   2.704   0.320   0.521 -0.2284 -0.1743  0.5314
 4336WAT     H118064   2.721   0.265   0.456 -0.0123  0.1951  0.2646
 4336WAT     H218065   2.767   0.380   0.513  0.2690 -0.5371  1.5600
 4336WAT    EPW18066   2.716   0.321   0.511 -0.1230 -0.1733  0.6440
 4337WAT      O18067   0.109   2.943   5.373 -0.0629  0.1629 -0.0082
 4337WAT     H118068   0.075   2.863   5.386 -0.7953 -0.0247 -2.4918
 4337WAT     H218069   0.039   2.995   5.368 -0.0545  0.0925 -3.1747
 4337WAT    EPW18070   0.094   2.939   5.374 -0.1699  0.1248 -0.8429
 4338WAT      O18071   3.112   6.134   7.211 -0.1827 -0.3962 -0.7891
 4338WAT     H118072   3.163   6.085   7.262  0.0764 -0.3532 -1.0065
 4338WAT     H218073   3.160   6.146   7.140 -0.5638 -0.4998 -1.0647
 4338WAT    EPW18074   3.126   6.128   7.208 -0.2007 -0.4051 -0.8619
 4339WAT      O18075   6.721   0.502   1.943 -0.0942 -0.1392  0.0122
 4339WAT     H118076   6.754   0.566   1.992 -1.3261  1.5484 -1.2627
 4339WAT     H218077   6.653   0.474   1.989  0.4392 -0.5594  0.5672
 4339WAT    EPW18078   6.716   0.507   1.957 -0.1974  0.0481 -0.0941
 4340WAT      O18079   0.379   4.742   6.358  0.6992 -0.0924 -0.0678
 4340WAT     H118080   0.335   4.726   6.284  0.0603  0.7075  0.1191
 4340WAT     H218081   0.379   4.829   6.363  0.6475 -0.1420  0.9240
 4340WAT    EPW18082   0.372   4.753   6.348  0.5972  0.0184  0.1063
 4341WAT      O18083   5.204   4.317   3.259  0.4541  0.0487 -0.1287
 4341WAT     H118084   5.197   4.237   3.225  0.2233  0.3830 -0.8700
 4341WAT     H218085   5.176   4.306   3.341  0.9006 -0.7307 -0.0748
 4341WAT    EPW18086   5.199   4.303   3.266  0.4859 -0.0171 -0.2302
 4342WAT      O18087   5.329   2.438   4.357  0.3071  0.4984  0.2414
 4342WAT     H118088   5.408   2.475   4.365 -0.0399  1.4329 -0.4814
 4342WAT     H218089   5.278   2.489   4.406  0.1520 -0.1296  0.7384
 4342WAT    EPW18090   5.333   2.451   4.366  0.2329  0.5437  0.2081
 4343WAT      O18091   6.246   3.921   4.025  0.3164  0.0188  0.4146
 4343WAT     H118092   6.232   4.007   4.035  0.3191  0.0387  0.2504
 4343WAT     H218093   6.170   3.885   4.050  0.3819  0.0584  0.6714
 4343WAT    EPW18094   6.232   3.928   4.030  0.3265  0.0276  0.4283
 4344WAT      O18095   6.749   3.966   0.043  0.3052  0.0318  0.0398
 4344WAT     H118096   6.704   3.897   0.012 -1.5624  1.0331  0.3469
 4344WAT     H218097   6.786   3.936   0.116 -2.4402 -0.1131  1.4985
 4344WAT    EPW18098   6.748   3.952   0.049 -0.3763  0.1583  0.3007
 4345WAT      O18099   6.796   2.979   2.562  0.0713  0.6453  0.1025
 4345WAT     H118100   6.830   2.919   2.616 -1.1343  0.9239  1.2133
 4345WAT     H218101   6.848   3.049   2.574  0.3964  0.3986  0.1615
 4345WAT    EPW18102   6.809   2.980   2.572 -0.0587  0.6500  0.2753
 4346WAT      O18103   1.510   0.274   6.679 -0.3661 -0.3315 -0.4573
 4346WAT     H118104   1.423   0.267   6.684 -0.4116 -2.6756 -2.5801
 4346WAT     H218105   1.527   0.348   6.722 -3.5597  1.0756 -1.3286
 4346WAT    EPW18106   1.499   0.284   6.686 -0.8446 -0.4699 -0.8996
 4347WAT      O18107   4.440   6.579   2.806  0.1473  0.4770 -0.5206
 4347WAT     H118108   4.366   6.625   2.804  0.0653  0.3929  0.2848
 4347WAT     H218109   4.423   6.515   2.862  0.6377  0.1059 -0.7848
 4347WAT    EPW18110   4.427   6.577   2.814  0.2076  0.4098 -0.4406
 4348WAT      O18111   6.480   1.649   3.073 -0.2162 -0.7326  0.2240
 4348WAT     H118112   6.460   1.729   3.045  1.3690  0.1014  1.3146
 4348WAT     H218113   6.484   1.658   3.159  0.7869 -1.7811  0.3060
 4348WAT    EPW18114   6.478   1.662   3.081  0.1661 -0.7643  0.3972
 4349WAT      O18115   1.362   4.743   4.896 -0.3782 -0.4565  0.2255
 4349WAT     H118116   1.291   4.753   4.845 -0.3063 -1.0459  0.0001
 4349WAT     H218117   1.422   4.793   4.858 -0.6554  0.0030  0.3846
 4349WAT    EPW18118   1.360   4.752   4.882 -0.4085 -0.4757  0.2157
 4350WAT      O18119   5.837   4.855   2.328 -1.1996 -0.0826  1.0910
 4350WAT     H118120   5.890   4.859   2.259 -1.7254 -1.4464  0.5579
 4350WAT     H218121   5.888   4.879   2.395  0.1567 -1.4817  0.6266
 4350WAT    EPW18122   5.852   4.859   2.328 -1.0769 -0.4908  0.9436
 4351WAT      O18123   4.537   6.114   2.659  0.9416  0.2398 -0.4158
 4351WAT     H118124   4.593   6.048   2.665  0.6493 -0.2762 -2.4950
 4351WAT     H218125   4.460   6.077   2.671  0.9051  0.5782  0.4169
 4351WAT    EPW18126   4.534   6.099   2.661  0.8931  0.2136 -0.5999
 4352WAT      O18127   0.093   6.699   0.639 -0.5419  0.6586 -0.0942
 4352WAT     H118128   0.149   6.751   0.596  1.5450  0.2521  1.9048
 4352WAT     H218129   0.098   6.624   0.595  0.5633  0.6226  0.0515
 4352WAT    EPW18130   0.102   6.696   0.626 -0.0703  0.5933  0.2226
 4353WAT      O18131   3.727   1.746   2.771  0.1838  0.0451  0.2225
 4353WAT     H118132   3.758   1.781   2.845 -0.9700  0.1560  0.6830
 4353WAT     H218133   3.641   1.741   2.786  0.1964 -2.2215 -0.1537
 4353WAT    EPW18134   3.719   1.750   2.785  0.0152 -0.2734  0.2350
 4354WAT      O18135   7.130   2.154   5.456  0.1230  0.1023 -0.6962
 4354WAT     H118136   7.167   2.177   5.380  0.0800 -0.7404 -0.9829
 4354WAT     H218137   7.195   2.162   5.514  0.2462  0.4268 -0.8816
 4354WAT    EPW18138   7.145   2.159   5.454  0.1348  0.0257 -0.7660
 4355WAT      O18139   1.164   6.863   4.886  0.1302 -0.2723  0.0263
 4355WAT     H118140   1.247   6.880   4.906  0.0696  1.1416 -0.7503
 4355WAT     H218141   1.167   6.844   4.801 -0.4583  0.9761 -0.2997
 4355WAT    EPW18142   1.177   6.863   4.876  0.0343  0.1210 -0.1366
 4356WAT      O18143   0.812   0.263   6.484 -0.6491 -0.2423  0.0289
 4356WAT     H118144   0.898   0.267   6.496 -0.4087  0.9709 -1.6666
 4356WAT     H218145   0.780   0.263   6.566  0.9259  0.1084  0.6855
 4356WAT    EPW18146   0.820   0.264   6.498 -0.3809 -0.0113 -0.1246
 4357WAT      O18147   0.989   5.474   3.058 -0.4827 -0.7184 -0.0840
 4357WAT     H118148   1.004   5.396   3.094 -3.8032 -1.3436  0.2881
 4357WAT     H218149   0.966   5.524   3.126 -1.6670 -0.4158 -0.6695
 4357WAT    EPW18150   0.988   5.470   3.073 -1.1481 -0.7661 -0.1155
 4358WAT      O18151   5.604   5.046   5.026 -0.5296  0.1039  0.6077
 4358WAT     H118152   5.678   5.019   5.064  0.2136  0.0936 -0.7775
 4358WAT     H218153   5.585   4.981   4.971  0.3404  1.5665 -1.5315
 4358WAT    EPW18154   5.612   5.033   5.024 -0.2913  0.3185  0.0870
 4359WAT      O18155   5.307   4.749   4.485  0.6789  0.0081 -0.2527
 4359WAT     H118156   5.304   4.825   4.443  0.7019  1.4816  2.1822
 4359WAT     H218157   5.248   4.759   4.549  0.3129 -2.2415 -0.1544
 4359WAT    EPW18158   5.298   4.761   4.488  0.6282 -0.1065  0.1215
 4360WAT      O18159   5.915   0.746   3.239  0.2684 -0.1884  0.2909
 4360WAT     H118160   5.855   0.725   3.180 -0.5451 -0.4713  1.2005
 4360WAT     H218161   5.908   0.832   3.245  0.2666 -0.1717  0.0829
 4360WAT    EPW18162   5.905   0.755   3.231  0.1480 -0.2277  0.3945
 4361WAT      O18163   2.098   0.097   4.880  0.5456  0.1300 -0.4541
 4361WAT     H118164   2.139   0.070   4.952 -1.4778 -0.8725  0.4193
 4361WAT     H218165   2.018   0.062   4.888  0.3225 -0.2256 -3.3400
 4361WAT    EPW18166   2.092   0.088   4.892  0.2137 -0.0706 -0.7514
 4362WAT      O18167   3.998   6.255   2.769  0.2154  0.1983 -0.1174
 4362WAT     H118168   4.037   6.235   2.845 -0.5098 -0.9392 -0.0237
 4362WAT     H218169   3.934   6.196   2.763  0.2565  0.2760 -1.6152
 4362WAT    EPW18170   3.995   6.243   2.780  0.1143  0.0418 -0.3248
 4363WAT      O18171   6.356   0.258   2.871 -0.5209  0.0385 -0.6547
 4363WAT     H118172   6.427   0.276   2.823 -2.1592  0.6945 -2.9754
 4363WAT     H218173   6.344   0.332   2.917  0.0110  0.0982 -0.6054
 4363WAT    EPW18174   6.365   0.272   2.871 -0.6843  0.1442 -0.9902
 4364WAT      O18175   2.448   0.459   1.659 -0.0175  0.0465 -0.1199
 4364WAT     H118176   2.361   0.459   1.654 -0.1233 -0.4918  1.3075
 4364WAT     H218177   2.471   0.386   1.617 -0.2764 -0.0306 -0.1271
 4364WAT    EPW18178   2.439   0.448   1.652 -0.0714 -0.0444  0.0899
 4365WAT      O18179   6.274   5.989   1.180  0.0029 -0.5545  0.1980
 4365WAT     H118180   6.298   6.072   1.193 -0.8528 -0.4519  1.1770
 4365WAT     H218181   6.268   5.956   1.260  0.4688 -1.6189 -0.1802
 4365WAT    EPW18182   6.277   5.996   1.193 -0.0547 -0.6966  0.2867
 4366WAT      O18183   1.941   6.038   0.166 -0.4337 -0.2360  0.3391
 4366WAT     H118184   1.884   6.105   0.170 -1.3186 -0.9360 -0.2972
 4366WAT     H218185   1.893   5.972   0.136  0.8398 -0.7282 -0.6824
 4366WAT    EPW18186   1.925   6.038   0.162 -0.3763 -0.4121  0.0942
 4367WAT      O18187   2.466   4.115   2.406  0.1349  0.2917 -0.0259
 4367WAT     H118188   2.521   4.182   2.394 -0.8028  1.1146  0.0344
 4367WAT     H218189   2.430   4.104   2.327  1.0416 -0.8619 -0.2937
 4367WAT    EPW18190   2.469   4.123   2.392  0.1303  0.2428 -0.0565
 4368WAT      O18191   5.491   2.863   2.337  0.4229  0.2442 -0.2750
 4368WAT     H118192   5.544   2.819   2.390 -0.5864  0.1408  0.6775
 4368WAT     H218193   5.415   2.864   2.380  0.2130  2.2866 -0.5757
 4368WAT    EPW18194   5.488   2.857   2.351  0.2428  0.5306 -0.1787
 4369WAT      O18195   2.682   4.321   2.383  0.1367  0.2109  0.1245
 4369WAT     H118196   2.691   4.387   2.326  0.9735  0.2869  0.3303
 4369WAT     H218197   2.763   4.291   2.391 -0.3598 -1.5014 -0.7396
 4369WAT    EPW18198   2.695   4.326   2.376  0.1870 -0.0308  0.0273
 4370WAT      O18199   5.450   5.438   6.147  0.0404 -0.1498  0.0192
 4370WAT     H118200   5.487   5.361   6.129  0.3732  0.2319 -0.9941
 4370WAT     H218201   5.385   5.444   6.089 -0.0534  0.2911  0.1653
 4370WAT    EPW18202   5.446   5.427   6.136  0.0757 -0.0283 -0.1089
 4371WAT      O18203   3.348   3.410   0.354  0.1879  0.7852 -0.1513
 4371WAT     H118204   3.265   3.384   0.351  0.3700  0.2644 -1.5803
 4371WAT     H218205   3.345   3.485   0.398 -0.9474  0.4674  0.3439
 4371WAT    EPW18206   3.335   3.417   0.360  0.0471  0.6613 -0.2893
 4372WAT      O18207   3.368   2.828   0.411 -0.0100  0.3061 -0.4290
 4372WAT     H118208   3.347   2.898   0.364  1.1382  1.3270  0.4961
 4372WAT     H218209   3.445   2.850   0.447  0.0629 -1.1726  0.3917
 4372WAT    EPW18210   3.376   2.842   0.410  0.1704  0.2385 -0.1711
 4373WAT      O18211   1.069   1.428   3.550 -0.2258  0.4897 -0.1464
 4373WAT     H118212   1.037   1.470   3.619  0.1031  0.9430 -0.2703
 4373WAT     H218213   1.004   1.431   3.492  0.2333  1.9504 -0.6261
 4373WAT    EPW18214   1.055   1.434   3.552 -0.1094  0.7725 -0.2355
 4374WAT      O18215   4.484   6.639   5.839 -0.1304  0.3423 -0.8936
 4374WAT     H118216   4.447   6.682   5.772  0.4368  1.9731 -0.2123
 4374WAT     H218217   4.469   6.691   5.907  0.8287 -0.4325 -0.0637
 4374WAT    EPW18218   4.476   6.653   5.839  0.0950  0.4688 -0.6703
 4375WAT      O18219   6.672   3.017   3.207  0.0565 -0.5858  0.1175
 4375WAT     H118220   6.591   3.006   3.178 -0.7273 -2.0574  2.5859
 4375WAT     H218221   6.686   2.946   3.256  2.5812 -0.0206  0.3632
 4375WAT    EPW18222   6.662   3.005   3.210  0.3137 -0.7197  0.5184
 4376WAT      O18223   2.837   0.411   3.423 -0.1453  0.4406 -0.8134
 4376WAT     H118224   2.874   0.423   3.501  0.1156  0.7111 -0.9791
 4376WAT     H218225   2.866   0.333   3.398 -1.5088 -0.4089  0.0752
 4376WAT    EPW18226   2.846   0.401   3.431 -0.3082  0.3551 -0.7066
 4377WAT      O18227   5.175   5.696   2.660 -0.3442  0.4173  0.6067
 4377WAT     H118228   5.107   5.751   2.662  0.6448  1.6927  0.5701
 4377WAT     H218229   5.199   5.691   2.744  0.5792  1.3863  0.4210
 4377WAT    EPW18230   5.169   5.703   2.673 -0.0617  0.7488  0.5739
 4378WAT      O18231   3.071   0.594   1.529  0.1904 -0.1016  0.4769
 4378WAT     H118232   3.121   0.610   1.598  0.5005 -0.3686  0.3198
 4378WAT     H218233   3.127   0.591   1.463 -0.1509  0.5399  0.1504
 4378WAT    EPW18234   3.086   0.596   1.529  0.1858 -0.0463  0.4054
 4379WAT      O18235   6.846   3.573   3.594 -0.1337 -0.0448  0.0618
 4379WAT     H118236   6.923   3.558   3.556 -0.5323 -0.9037 -0.4495
 4379WAT     H218237   6.807   3.630   3.541 -0.1501 -0.1984 -0.0923
 4379WAT    EPW18238   6.852   3.579   3.580 -0.1950 -0.1943 -0.0365
 4380WAT      O18239   5.028   5.053   2.731  0.2110 -0.5786  0.0399
 4380WAT     H118240   4.979   4.985   2.707  0.0104  0.3517 -2.3809
 4380WAT     H218241   4.972   5.104   2.774  0.1215 -1.4139  0.9756
 4380WAT    EPW18242   5.012   5.050   2.734  0.1682 -0.5646 -0.1795
 4381WAT      O18243   1.651   0.026   2.690  0.3266 -0.4847 -0.1580
 4381WAT     H118244   1.600  -0.014   2.748 -0.4338 -2.5480 -2.1266
 4381WAT     H218245   1.605   0.096   2.667  1.0311  0.8895  2.2654
 4381WAT    EPW18246   1.637   0.031   2.695  0.3184 -0.5865 -0.0908
 4382WAT      O18247   3.164   6.930   4.096 -0.1905  0.3213  0.5626
 4382WAT     H118248   3.194   6.949   4.176  0.9907 -0.0799  0.2385
 4382WAT     H218249   3.126   7.004   4.070  0.0715  0.6862  1.2017
 4382WAT    EPW18250   3.163   6.943   4.104  0.0227  0.3160  0.6091
 4383WAT      O18251   2.908   1.226   5.220  0.3766  0.4255  0.3464
 4383WAT     H118252   2.877   1.149   5.248  1.0093 -0.3311 -0.9794
 4383WAT     H218253   2.910   1.218   5.134  0.1591  2.0644  0.1524
 4383WAT    EPW18254   2.903   1.214   5.212  0.4379  0.5558  0.1219
 4384WAT      O18255   6.144   0.799   4.972  0.0614 -0.3119 -0.1893
 4384WAT     H118256   6.226   0.775   4.987 -0.0480  0.5765  2.2828
 4384WAT     H218257   6.097   0.731   5.000 -0.0758  0.4629  1.6330
 4384WAT    EPW18258   6.149   0.786   4.979  0.0249 -0.0662  0.4451
 4385WAT      O18259   6.659   4.515   0.735 -0.3729 -0.1144  0.0705
 4385WAT     H118260   6.583   4.543   0.703  0.2455  0.0407 -1.3011
 4385WAT     H218261   6.712   4.584   0.729  0.2580 -0.6177 -0.2783
 4385WAT    EPW18262   6.656   4.529   0.729 -0.1884 -0.1659 -0.1836
 4386WAT      O18263   4.662   4.063   5.943 -0.3177 -0.0083 -0.1847
 4386WAT     H118264   4.614   4.077   5.871  1.3630 -0.2547 -1.4066
 4386WAT     H218265   4.660   4.139   5.985 -1.0113  0.2506 -0.6766
 4386WAT    EPW18266   4.654   4.076   5.939 -0.1719 -0.0065 -0.4378
 4387WAT      O18267   3.190   1.669   0.059 -0.6110  0.1376  0.5347
 4387WAT     H118268   3.211   1.736   0.007  2.1143 -1.2236 -0.3408
 4387WAT     H218269   3.264   1.655   0.104 -1.2207 -1.9714  0.9705
 4387WAT    EPW18270   3.204   1.677   0.058 -0.2985 -0.3750  0.4697
 4388WAT      O18271   5.710   2.318   3.251  0.3120 -0.7741  0.0083
 4388WAT     H118272   5.663   2.365   3.307  0.9878 -1.7483  1.4454
 4388WAT     H218273   5.791   2.322   3.283  0.8199 -0.9515 -1.1864
 4388WAT    EPW18274   5.715   2.326   3.264  0.4869 -0.9442  0.0441
 4389WAT      O18275   0.447   0.267   1.421 -0.5071  0.0826 -0.2518
 4389WAT     H118276   0.488   0.344   1.429 -1.1838  0.3772  0.5775
 4389WAT     H218277   0.419   0.267   1.338 -2.2533  1.6716  0.2679
 4389WAT    EPW18278   0.449   0.279   1.410 -0.8650  0.3609 -0.0525
 4390WAT      O18279   5.367   5.174   4.930 -0.3946  0.2507  0.1027
 4390WAT     H118280   5.448   5.144   4.945 -0.4941 -0.3108 -0.4534
 4390WAT     H218281   5.341   5.202   5.009  0.1339 -0.0664  0.3955
 4390WAT    EPW18282   5.375   5.174   4.944 -0.3312  0.1209  0.0638
 4391WAT      O18283   4.541   5.592   1.715 -0.2609 -0.3881 -0.1240
 4391WAT     H118284   4.572   5.573   1.636 -0.0226  0.3684 -0.2159
 4391WAT     H218285   4.556   5.519   1.760  3.0159  0.3472  0.2530
 4391WAT    EPW18286   4.548   5.578   1.710  0.2584 -0.1677 -0.0819
 4392WAT      O18287   5.818   5.919   2.059 -0.1191  0.0518  0.1014
 4392WAT     H118288   5.776   5.957   2.125 -1.1486  0.3838 -0.7090
 4392WAT     H218289   5.819   5.980   1.997  0.1544 -0.4945 -0.4470
 4392WAT    EPW18290   5.812   5.934   2.059 -0.2308  0.0202 -0.0993
 4393WAT      O18291   2.729   1.916   0.786  0.1337 -0.5577 -0.2182
 4393WAT     H118292   2.652   1.950   0.764  0.6276  0.3735 -0.5996
 4393WAT     H218293   2.757   1.878   0.712  0.1804 -0.6182 -0.1700
 4393WAT    EPW18294   2.722   1.915   0.772  0.2135 -0.4291 -0.2674
 4394WAT      O18295   0.083   1.319   0.139 -0.1801 -0.5192  0.0566
 4394WAT     H118296   0.109   1.322   0.222  3.1143 -1.0176 -0.8305
 4394WAT     H218297   0.019   1.259   0.140  0.7184 -1.5319  2.0212
 4394WAT    EPW18298   0.077   1.311   0.151  0.4393 -0.7424  0.2158
 4395WAT      O18299   3.393   1.086   5.964  0.2476 -0.4169 -0.0207
 4395WAT     H118300   3.428   1.099   5.885  1.5495 -1.5718  0.3226
 4395WAT     H218301   3.337   1.152   5.972  0.0924 -0.2551 -1.8964
 4395WAT    EPW18302   3.390   1.098   5.953  0.4170 -0.5636 -0.2471
 4396WAT      O18303   5.903   5.203   2.694 -0.0374  0.2464 -0.0944
 4396WAT     H118304   5.819   5.195   2.672 -0.4126  2.1366  0.4872
 4396WAT     H218305   5.908   5.166   2.773  0.1835 -1.7868 -0.9973
 4396WAT    EPW18306   5.891   5.196   2.702 -0.0602  0.2253 -0.1419
 4397WAT      O18307   5.974   1.563   0.829  0.0129 -0.8431  0.7304
 4397WAT     H118308   6.012   1.546   0.905 -0.2471 -0.8971  0.8508
 4397WAT     H218309   6.023   1.520   0.771  0.1109 -0.9440  0.8881
 4397WAT    EPW18310   5.987   1.554   0.831 -0.0110 -0.8660  0.7715
 4398WAT      O18311   7.216   0.553   4.744 -1.0468 -0.2045  0.4817
 4398WAT     H118312   7.165   0.559   4.673 -0.7452  1.4995  0.3823
 4398WAT     H218313   7.296   0.540   4.710 -0.8479  0.9525  0.4605
 4398WAT    EPW18314   7.221   0.552   4.728 -0.9729  0.2182  0.4639
 4399WAT      O18315   0.779   4.838   3.155 -0.1502 -0.3788 -0.3126
 4399WAT     H118316   0.802   4.790   3.225  0.0417  0.8418  0.4989
 4399WAT     H218317   0.736   4.782   3.105  1.0505 -1.6968  0.0623
 4399WAT    EPW18318   0.776   4.823   3.158  0.0555 -0.3932 -0.1373
 4400WAT      O18319   3.489   3.473   3.091 -0.1430  0.1076 -0.5173
 4400WAT     H118320   3.539   3.415   3.050 -0.2316 -0.5561  0.2831
 4400WAT     H218321   3.524   3.479   3.171 -0.5929  0.5779 -0.3429
 4400WAT    EPW18322   3.501   3.465   3.097 -0.2225  0.0790 -0.3733
 4401WAT      O18323   5.655   7.165   4.791  0.1040  0.1558  0.5656
 4401WAT     H118324   5.604   7.153   4.861 -0.6177  1.2702  0.2661
 4401WAT     H218325   5.622   7.238   4.754  1.4246  0.4554 -0.0817
 4401WAT    EPW18326   5.642   7.174   4.796  0.1925  0.3647  0.4258
 4402WAT      O18327   5.364   2.220   0.626  0.0427  0.3201 -0.7878
 4402WAT     H118328   5.338   2.297   0.596 -0.1977 -0.5169 -2.8746
 4402WAT     H218329   5.419   2.191   0.565  0.7241 -0.8350  0.3280
 4402WAT    EPW18330   5.368   2.227   0.613  0.1079  0.0258 -0.9313
 4403WAT      O18331   5.807   4.165   4.300  0.0060  0.1262 -0.2557
 4403WAT     H118332   5.767   4.193   4.227 -0.8993 -2.7983 -1.0106
 4403WAT     H218333   5.748   4.180   4.362 -0.5937 -0.3647 -0.6890
 4403WAT    EPW18334   5.792   4.172   4.298 -0.2163 -0.3783 -0.4312
 4404WAT      O18335   4.190   3.459   1.679  0.0245 -0.5141  0.3035
 4404WAT     H118336   4.155   3.468   1.600 -0.7073  0.0997  0.6882
 4404WAT     H218337   4.252   3.520   1.682  0.2845 -0.7666  0.0792
 4404WAT    EPW18338   4.194   3.469   1.668 -0.0452 -0.4607  0.3272
 4405WAT      O18339   2.539   5.538   3.605  0.3150  0.2363  0.0035
 4405WAT     H118340   2.504   5.477   3.657  1.7157 -1.7836 -1.2947
 4405WAT     H218341   2.494   5.531   3.531  0.8217  0.4502 -0.3297
 4405WAT    EPW18342   2.528   5.528   3.602  0.5968 -0.0305 -0.2375
 4406WAT      O18343   5.275   5.921   6.789 -0.4805  0.9246 -0.3520
 4406WAT     H118344   5.233   5.898   6.716  0.6072  0.4968 -0.8718
 4406WAT     H218345   5.212   5.925   6.849 -1.3282  0.8313 -1.2127
 4406WAT    EPW18346   5.260   5.918   6.787 -0.4451  0.8476 -0.5559
 4407WAT      O18347   7.167   2.152   7.153 -0.0892  0.2131  0.2500
 4407WAT     H118348   7.142   2.166   7.070  0.9836  1.3638  0.0793
 4407WAT     H218349   7.131   2.075   7.173 -2.5457  1.0822 -0.4078
 4407WAT    EPW18350   7.158   2.143   7.143 -0.2936  0.5115  0.1276
 4408WAT      O18351   1.673   5.358   5.958  0.6928  0.9031 -0.1443
 4408WAT     H118352   1.641   5.432   5.924 -1.3534  0.4929  0.7063
 4408WAT     H218353   1.604   5.324   5.999  1.8632 -0.9637  0.3676
 4408WAT    EPW18354   1.658   5.364   5.959  0.5634  0.5667  0.0570
 4409WAT      O18355   5.710   5.301   2.228  0.0364  0.1502 -0.4712
 4409WAT     H118356   5.674   5.222   2.223  1.0029 -0.3326  0.0007
 4409WAT     H218357   5.699   5.323   2.312  0.2944  0.2662 -0.4688
 4409WAT    EPW18358   5.703   5.293   2.240  0.2173  0.0961 -0.4012
 4410WAT      O18359   3.248   4.916   2.858 -0.2087 -0.4786  0.8244
 4410WAT     H118360   3.213   4.976   2.910 -0.8676 -1.3280  1.3771
 4410WAT     H218361   3.285   4.860   2.913  1.2968 -0.0691  0.2854
 4410WAT    EPW18362   3.249   4.916   2.874 -0.0836 -0.5436  0.8264
 4411WAT      O18363   6.443   4.339   4.477  0.0967  0.2351 -0.7009
 4411WAT     H118364   6.415   4.338   4.394 -1.8336 -2.2853 -0.1461
 4411WAT     H218365   6.377   4.378   4.519 -0.4291 -1.3324 -0.0043
 4411WAT    EPW18366   6.429   4.345   4.471 -0.2661 -0.3688 -0.5160
 4412WAT      O18367   5.267   0.845   3.474  0.7296 -0.9972  0.0463
 4412WAT     H118368   5.247   0.851   3.389  0.9270  0.0031  0.0590
 4412WAT     H218369   5.350   0.817   3.474  0.1415 -2.8769 -0.0400
 4412WAT    EPW18370   5.276   0.842   3.461  0.6719 -1.1271  0.0354
 4413WAT      O18371   3.105   4.877   1.743 -0.1238  0.3980  0.0810
 4413WAT     H118372   3.051   4.825   1.787 -1.8723  1.8259 -0.2303
 4413WAT     H218373   3.088   4.858   1.659  0.7896 -0.0053 -0.0234
 4413WAT    EPW18374   3.095   4.867   1.737 -0.2471  0.5493  0.0196
 4414WAT      O18375   1.601   0.036   6.005  0.6319 -0.0740 -0.5732
 4414WAT     H118376   1.673  -0.008   6.026  0.6813  0.0562 -0.4722
 4414WAT     H218377   1.596   0.098   6.066  0.6759  0.1916 -0.8397
 4414WAT    EPW18378   1.611   0.038   6.017  0.6457 -0.0155 -0.5977
 4415WAT      O18379   7.116   1.238   2.906 -0.6133 -0.2914 -0.4850
 4415WAT     H118380   7.193   1.211   2.937 -0.5487 -1.4747 -1.5973
 4415WAT     H218381   7.057   1.193   2.953 -0.6286  0.3295  0.1040
 4415WAT    EPW18382   7.119   1.227   2.917 -0.6060 -0.3745 -0.5623
 4416WAT      O18383   1.917   0.965   1.505  0.1384  0.6740 -0.0648
 4416WAT     H118384   1.941   0.919   1.435  0.2949  1.4611 -0.5461
 4416WAT     H218385   1.903   1.045   1.473  0.9795  1.2475  0.9233
 4416WAT    EPW18386   1.919   0.970   1.490  0.2858  0.8750  0.0101
 4417WAT      O18387   0.744   1.929   6.106 -0.3978  0.0577 -0.1545
 4417WAT     H118388   0.708   1.967   6.035 -0.8188 -0.9301 -0.4880
 4417WAT     H218389   0.828   1.952   6.101 -0.5394  0.4966 -0.6419
 4417WAT    EPW18390   0.751   1.938   6.094 -0.4809 -0.0234 -0.2758
 4418WAT      O18391   5.248   3.999   5.043 -0.0103 -0.0581  0.0363
 4418WAT     H118392   5.268   4.083   5.035 -0.4675 -0.1055 -2.1826
 4418WAT     H218393   5.168   3.993   5.009 -0.3504 -1.2667  0.9677
 4418WAT    EPW18394   5.239   4.010   5.037 -0.1281 -0.2436 -0.1539
 4419WAT      O18395   6.053   2.571   2.625  0.4271  0.0502  0.2411
 4419WAT     H118396   6.109   2.614   2.573  1.0779  0.1381  0.9989
 4419WAT     H218397   6.017   2.512   2.572  0.0434  1.0447 -0.6440
 4419WAT    EPW18398   6.056   2.569   2.609  0.4666  0.2101  0.2223
 4420WAT      O18399   3.154   1.260   4.287 -0.5338 -0.5486 -0.3317
 4420WAT     H118400   3.172   1.259   4.373 -0.4957  1.0393 -0.2925
 4420WAT     H218401   3.085   1.207   4.280 -0.5307 -0.7094  0.6710
 4420WAT    EPW18402   3.147   1.252   4.299 -0.5277 -0.3378 -0.1778
 4421WAT      O18403   0.048   1.845   6.943  0.0255  0.5392  0.1820
 4421WAT     H118404   0.027   1.922   6.908  0.7386  0.4554 -0.4759
 4421WAT     H218405   0.111   1.815   6.889  0.0827 -0.2857  0.6909
 4421WAT    EPW18406   0.054   1.852   6.930  0.1393  0.4050  0.1600
 4422WAT      O18407   5.614   6.884   2.530  0.0056  0.6380  0.1306
 4422WAT     H118408   5.700   6.899   2.540  0.4206  0.3734 -2.4685
 4422WAT     H218409   5.605   6.802   2.558  0.0276  1.4585  2.8633
 4422WAT    EPW18410   5.626   6.874   2.536  0.0701  0.7201  0.1504
 4423WAT      O18411   1.570   2.551   2.047  0.1309 -0.0923  0.4315
 4423WAT     H118412   1.509   2.528   1.989  2.5765  2.1961 -3.4752
 4423WAT     H218413   1.620   2.480   2.052  0.3801 -0.0384 -1.0348
 4423WAT    EPW18414   1.568   2.537   2.040  0.5290  0.2537 -0.3622
 4424WAT      O18415   3.559   1.735   0.987  0.2887  0.7603  0.0362
 4424WAT     H118416   3.496   1.779   0.945  1.0859  0.4740 -1.5087
 4424WAT     H218417   3.546   1.652   0.964  0.5658  0.5569  0.5927
 4424WAT    EPW18418   3.548   1.729   0.977  0.4474  0.6880 -0.1098
 4425WAT      O18419   6.301   2.466   0.055 -0.5830  0.6156 -0.5710
 4425WAT     H118420   6.215   2.472   0.043 -0.5302  2.4417 -0.3532
 4425WAT     H218421   6.334   2.523  -0.002  0.4254  0.6699  0.0340
 4425WAT    EPW18422   6.294   2.475   0.045 -0.4262  0.8934 -0.4494
 4426WAT      O18423   3.719   7.075   4.096 -0.0455 -0.1064  0.5344
 4426WAT     H118424   3.665   7.083   4.165 -0.7665  2.2250 -0.1982
 4426WAT     H218425   3.760   7.152   4.093  0.5556 -0.4457 -1.1894
 4426WAT    EPW18426   3.717   7.088   4.106 -0.0632  0.1879  0.1716
 4427WAT      O18427   0.245   6.782   1.517  0.1745  0.0306 -0.1745
 4427WAT     H118428   0.191   6.771   1.584 -0.4563 -0.1796 -0.7093
 4427WAT     H218429   0.193   6.779   1.448  0.6559  1.3484 -0.6292
 4427WAT    EPW18430   0.229   6.780   1.517  0.1524  0.1942 -0.3207
 4428WAT      O18431   4.558   3.235   5.338 -0.1612  0.5577  0.0776
 4428WAT     H118432   4.531   3.205   5.416 -1.3341  2.0129  0.2789
 4428WAT     H218433   4.505   3.194   5.282 -0.1600  0.4574  0.1485
 4428WAT    EPW18434   4.546   3.225   5.342 -0.3343  0.7578  0.1178
 4429WAT      O18435   2.859   3.736   4.886  0.4569  0.1333  0.2231
 4429WAT     H118436   2.930   3.771   4.922 -0.5316  0.8055  1.6125
 4429WAT     H218437   2.859   3.768   4.805  1.3227  0.7540  0.4582
 4429WAT    EPW18438   2.869   3.746   4.879  0.4388  0.3243  0.4631
 4430WAT      O18439   4.616   4.714   2.500 -0.1237 -0.5716 -0.3330
 4430WAT     H118440   4.685   4.713   2.552 -0.6528 -1.3969  0.3778
 4430WAT     H218441   4.583   4.795   2.510  0.5199 -0.2982 -0.4040
 4430WAT    EPW18442   4.621   4.726   2.509 -0.1068 -0.6531 -0.2385
 4431WAT      O18443   6.660   5.534   5.301  0.0244 -0.3923 -0.2920
 4431WAT     H118444   6.630   5.456   5.328  0.7028 -0.4054  0.4817
 4431WAT     H218445   6.735   5.543   5.345 -0.2425  0.8800 -0.0592
 4431WAT    EPW18446   6.667   5.523   5.312  0.0852 -0.2063 -0.1433
 4432WAT      O18447   5.395   4.907   7.268  0.0444 -0.1872  0.1820
 4432WAT     H118448   5.387   4.993   7.277 -2.5686 -0.4518  1.0476
 4432WAT     H218449   5.369   4.875   7.345  1.0563 -1.7703 -0.0699
 4432WAT    EPW18450   5.390   4.915   7.281 -0.1921 -0.4601  0.2727
 4433WAT      O18451   3.315   6.406   5.026  0.4382 -0.1451  0.0034
 4433WAT     H118452   3.250   6.422   5.083  0.0802  0.6721 -0.6121
 4433WAT     H218453   3.364   6.478   5.030  1.1778 -0.6491  0.2706
 4433WAT    EPW18454   3.313   6.419   5.035  0.4946 -0.0988 -0.0481
 4434WAT      O18455   0.851   3.249   6.597  0.0264  0.5823  0.0442
 4434WAT     H118456   0.822   3.170   6.621  0.2216  0.9142  1.4188
 4434WAT     H218457   0.782   3.284   6.556  0.8084 -1.3637 -3.3585
 4434WAT    EPW18458   0.837   3.242   6.595  0.1707  0.3439 -0.2554
 4435WAT      O18459   0.651   0.380   2.364 -0.8960  0.3326  0.1229
 4435WAT     H118460   0.666   0.466   2.354 -1.9626  0.4488 -0.6176
 4435WAT     H218461   0.666   0.367   2.449 -2.6098  1.6841  0.6972
 4435WAT    EPW18462   0.656   0.391   2.375 -1.3067  0.5494  0.0984
 4436WAT      O18463   4.549   3.609   1.539  0.3484 -0.0058  0.9057
 4436WAT     H118464   4.510   3.588   1.464  0.0822 -2.2045  1.5653
 4436WAT     H218465   4.596   3.679   1.520  0.2625 -0.4880 -1.3098
 4436WAT    EPW18466   4.550   3.616   1.525  0.2964 -0.4018  0.6759
 4437WAT      O18467   4.937   6.044   4.247 -0.0949  0.2790  0.1513
 4437WAT     H118468   4.857   6.017   4.268 -0.0344 -1.1745 -1.2931
 4437WAT     H218469   4.936   6.047   4.160  1.9807 -1.7858 -0.0447
 4437WAT    EPW18470   4.925   6.040   4.237  0.2207 -0.2407 -0.0910
 4438WAT      O18471   1.378   0.851   2.953  0.2042  0.0473 -0.4692
 4438WAT     H118472   1.381   0.807   3.028  0.5874 -1.4541 -1.3205
 4438WAT     H218473   1.364   0.933   2.978  1.1508 -0.2708  1.2881
 4438WAT    EPW18474   1.377   0.857   2.968  0.4006 -0.2215 -0.3354
 4439WAT      O18475   6.736   2.977   0.805  0.2753  0.0235 -0.1615
 4439WAT     H118476   6.760   2.904   0.763  0.1510  0.8368 -1.6948
 4439WAT     H218477   6.748   2.956   0.889 -0.6116 -2.0802 -0.4864
 4439WAT    EPW18478   6.742   2.963   0.811  0.1259 -0.1671 -0.4360
 4440WAT      O18479   7.274   5.230   1.650  0.2457 -0.4254  0.1886
 4440WAT     H118480   7.218   5.252   1.587  0.1249  0.6933  0.6606
 4440WAT     H218481   7.345   5.277   1.631  0.3940 -0.4835  0.5892
 4440WAT    EPW18482   7.276   5.241   1.638  0.2498 -0.2687  0.3175
 4441WAT      O18483   6.377   4.485   5.480 -0.4236  0.5701  0.2762
 4441WAT     H118484   6.302   4.474   5.437  2.4398 -2.4661 -4.9447
 4441WAT     H218485   6.368   4.435   5.550 -2.9955 -0.4723 -0.6741
 4441WAT    EPW18486   6.365   4.476   5.484 -0.3805 -0.0324 -0.6354
 4442WAT      O18487   2.690   1.687   0.329  0.9974  0.3361 -0.2977
 4442WAT     H118488   2.754   1.679   0.270  2.1016  0.7502  0.8022
 4442WAT     H218489   2.667   1.604   0.346  0.4191  0.2244 -1.5440
 4442WAT    EPW18490   2.696   1.673   0.323  1.0751  0.3808 -0.3193
 4443WAT      O18491   0.551   3.681   5.872  0.2951  0.1618  0.2425
 4443WAT     H118492   0.557   3.634   5.945  1.7204 -0.7342 -0.3919
 4443WAT     H218493   0.479   3.729   5.883  0.4608  0.0088  2.1864
 4443WAT    EPW18494   0.541   3.681   5.884  0.5301  0.0069  0.4360
 4444WAT      O18495   5.818   0.319   5.574  0.0703  0.0689  0.3713
 4444WAT     H118496   5.741   0.281   5.560  0.4707 -0.1849 -1.3260
 4444WAT     H218497   5.870   0.282   5.514  0.3188  3.8066 -2.0357
 4444WAT    EPW18498   5.815   0.308   5.563  0.1661  0.5835 -0.2350
 4445WAT      O18499   4.257   0.351   0.843  0.0912 -0.2312 -0.0218
 4445WAT     H118500   4.218   0.392   0.909 -0.1245 -0.4200 -0.0286
 4445WAT     H218501   4.256   0.267   0.868 -0.6645 -0.4017 -0.5911
 4445WAT    EPW18502   4.251   0.345   0.856 -0.0523 -0.2843 -0.1069
 4446WAT      O18503   3.314   6.761   4.523 -0.0937 -0.2174  0.2053
 4446WAT     H118504   3.392   6.766   4.484 -0.2186 -0.5991 -0.0915
 4446WAT     H218505   3.257   6.771   4.458 -0.3080  1.8957  0.6459
 4446WAT    EPW18506   3.317   6.763   4.508 -0.1438  0.0383  0.2265
 4447WAT      O18507   2.223   5.621   7.288  0.1711  0.2927 -0.1162
 4447WAT     H118508   2.294   5.659   7.320  0.0060  1.2925 -0.8854
 4447WAT     H218509   2.208   5.664   7.214 -1.3489  0.2518  0.1293
 4447WAT    EPW18510   2.231   5.633   7.282 -0.0778  0.4344 -0.1935
 4448WAT      O18511   6.722   0.542   3.949 -0.5213 -0.0474  0.0586
 4448WAT     H118512   6.701   0.610   3.899 -1.3406 -1.0118 -0.9472
 4448WAT     H218513   6.806   0.528   3.931 -0.8462 -0.4840 -1.2095
 4448WAT    EPW18514   6.732   0.550   3.939 -0.6903 -0.2543 -0.2773
 4449WAT      O18515   4.504   5.378   3.436  0.1549  0.1762 -0.3522
 4449WAT     H118516   4.586   5.389   3.409 -0.6240  1.2980 -2.4441
 4449WAT     H218517   4.457   5.426   3.381 -2.0647 -1.5856 -0.1440
 4449WAT    EPW18518   4.509   5.387   3.424 -0.2880  0.0817 -0.6305
 4450WAT      O18519   0.312   7.019   4.788 -0.2320 -0.1200 -0.3014
 4450WAT     H118520   0.283   7.042   4.867 -0.0872 -0.3525 -0.1785
 4450WAT     H218521   0.248   7.044   4.734 -0.1767  0.3690 -0.1527
 4450WAT    EPW18522   0.299   7.026   4.791 -0.2024 -0.0821 -0.2613
 4451WAT      O18523   6.547   3.767   6.781  0.4241  0.5029 -0.2423
 4451WAT     H118524   6.500   3.830   6.820 -0.0248 -0.1253  0.2435
 4451WAT     H218525   6.487   3.710   6.754  0.9008 -0.3843  0.5192
 4451WAT    EPW18526   6.531   3.768   6.783  0.4282  0.2790 -0.0581
 4452WAT      O18527   6.139   6.943   6.219  0.1339  0.3284  0.0220
 4452WAT     H118528   6.120   6.899   6.292  1.4284  1.1572  0.8890
 4452WAT     H218529   6.096   7.018   6.228 -0.7148 -0.0538 -0.6788
 4452WAT    EPW18530   6.130   6.947   6.231  0.1997  0.3944  0.0466
 4453WAT      O18531   3.902   0.735   5.211 -0.1201 -0.5317 -0.5337
 4453WAT     H118532   3.886   0.771   5.134 -1.7443 -3.7326 -1.8651
 4453WAT     H218533   3.823   0.707   5.237  0.3257  0.6178  2.4797
 4453WAT    EPW18534   3.888   0.737   5.204 -0.2942 -0.8347 -0.2852
 4454WAT      O18535   5.542   3.364   7.372  0.0373 -0.3877 -1.2648
 4454WAT     H118536   5.592   3.388   7.304  0.9567  1.1659 -0.1062
 4454WAT     H218537   5.571   3.414   7.437 -0.4409 -2.2263  0.4395
 4454WAT    EPW18538   5.554   3.375   7.371  0.1025 -0.4298 -0.8419
 4455WAT      O18539   0.403   5.110   4.574 -0.6114  0.2858  0.4693
 4455WAT     H118540   0.463   5.048   4.561 -1.9497 -0.9864  0.0736
 4455WAT     H218541   0.432   5.176   4.525  0.7409 -0.0839  0.7270
 4455WAT    EPW18542   0.416   5.111   4.565 -0.6094  0.0433  0.4489
 4456WAT      O18543   2.724   0.007   7.002  0.1381 -0.1390 -0.4935
 4456WAT     H118544   2.714  -0.014   7.086 -0.4012 -2.4812 -1.0552
 4456WAT     H218545   2.806   0.036   6.997  0.1907 -0.0154  0.8161
 4456WAT    EPW18546   2.734   0.008   7.014  0.0662 -0.4667 -0.3830
 4457WAT      O18547   1.916   5.110   7.200  0.2111 -0.0214  0.4253
 4457WAT     H118548   1.906   5.194   7.221  0.7741 -0.4139  2.4607
 4457WAT     H218549   1.959   5.077   7.268  1.3498 -1.6582 -0.9890
 4457WAT    EPW18550   1.921   5.117   7.213  0.4625 -0.3212  0.5170
 4458WAT      O18551   0.194   2.381   1.304 -0.0266  0.3759  0.2656
 4458WAT     H118552   0.180   2.321   1.241 -1.2123  0.8030  0.1062
 4458WAT     H218553   0.248   2.340   1.359 -3.6828 -2.4110  2.2033
 4458WAT    EPW18554   0.200   2.366   1.303 -0.7418  0.0273  0.5283
 4459WAT      O18555   4.753   1.058   2.633 -0.1883  0.0440  0.4390
 4459WAT     H118556   4.839   1.047   2.643  0.0332 -0.0473 -1.1964
 4459WAT     H218557   4.726   0.981   2.602 -0.5599  0.5408 -0.5342
 4459WAT    EPW18558   4.762   1.045   2.630 -0.2105  0.1039  0.0537
 4460WAT      O18559   0.926   0.630   3.008  1.1463  0.7175 -0.6991
 4460WAT     H118560   0.866   0.576   3.042 -1.0381  3.7621  0.8656
 4460WAT     H218561   1.002   0.595   3.032 -0.1529 -1.1529  0.9898
 4460WAT    EPW18562   0.928   0.617   3.017  0.6317  0.8909 -0.2184
 4461WAT      O18563   6.680   5.817   3.279  0.0064 -0.3355  0.2642
 4461WAT     H118564   6.605   5.836   3.319  0.0259  1.8720 -0.6353
 4461WAT     H218565   6.656   5.761   3.216 -1.2025  1.4270 -0.9403
 4461WAT    EPW18566   6.666   5.812   3.276 -0.1693  0.2509 -0.0466
 4462WAT      O18567   2.714   1.582   4.482 -0.3168  0.2351 -0.4490
 4462WAT     H118568   2.669   1.545   4.417  0.2720  1.4022 -1.5637
 4462WAT     H218569   2.655   1.633   4.521 -0.2403  1.0008 -1.2908
 4462WAT    EPW18570   2.698   1.584   4.478 -0.2185  0.5206 -0.7380
 4463WAT      O18571   3.813   6.079   4.738 -0.0311  0.4246 -0.4676
 4463WAT     H118572   3.744   6.130   4.750 -0.7988 -1.0024  1.6601
 4463WAT     H218573   3.861   6.092   4.810  0.3930 -0.8500 -0.5024
 4463WAT    EPW18574   3.810   6.088   4.750 -0.0818  0.0255 -0.1584
 4464WAT      O18575   7.100   0.406   1.905  0.2123  0.0006 -0.4172
 4464WAT     H118576   7.040   0.417   1.843 -0.6952 -0.2116  0.4064
 4464WAT     H218577   7.057   0.420   1.979  0.5397 -2.4616  0.3472
 4464WAT    EPW18578   7.085   0.410   1.907  0.1266 -0.3945 -0.1826
 4465WAT      O18579   4.004   6.983   7.180 -0.2760 -0.1348  0.4402
 4465WAT     H118580   4.087   6.962   7.196 -0.0652 -0.9731 -1.4919
 4465WAT     H218581   3.987   6.944   7.104 -1.3776  2.7459 -0.9602
 4465WAT    EPW18582   4.014   6.974   7.171 -0.4076  0.1669 -0.0521
 4466WAT      O18583   2.329   2.409   6.160  0.2618  0.7383 -0.3372
 4466WAT     H118584   2.259   2.392   6.110  0.3075  0.5417 -0.3340
 4466WAT     H218585   2.383   2.452   6.107  1.5760 -1.9609 -1.3770
 4466WAT    EPW18586   2.326   2.413   6.145  0.4627  0.3105 -0.4903
 4467WAT      O18587   5.684   7.056   5.187 -0.2942  0.0967  0.1737
 4467WAT     H118588   5.749   7.106   5.158 -0.6797  0.1415 -0.6427
 4467WAT     H218589   5.640   7.035   5.115  0.4020 -2.2143  0.3592
 4467WAT    EPW18590   5.687   7.060   5.172 -0.2483 -0.2380  0.0805
 4468WAT      O18591   0.975   3.607   2.991 -0.0770 -0.0883  0.3458
 4468WAT     H118592   0.991   3.613   3.077  0.6044  0.9295  0.1615
 4468WAT     H218593   1.000   3.526   2.971  0.5459 -0.0558  0.9593
 4468WAT    EPW18594   0.981   3.596   3.001  0.1157  0.0668  0.4092
 4469WAT      O18595   0.928   4.806   1.561  0.0630  0.3624  0.0407
 4469WAT     H118596   0.877   4.842   1.623  0.7908  1.8426 -0.1682
 4469WAT     H218597   0.995   4.861   1.556  1.8193 -1.6025  0.4264
 4469WAT    EPW18598   0.931   4.819   1.570  0.4299  0.2908  0.0668
 4470WAT      O18599   7.269   0.905   1.848 -0.3555  0.5093  0.1746
 4470WAT     H118600   7.303   0.979   1.881  1.1252  0.6684 -1.5213
 4470WAT     H218601   7.327   0.844   1.871 -0.2487  0.3276 -0.5433
 4470WAT    EPW18602   7.283   0.907   1.857 -0.1210  0.5060 -0.1820
 4471WAT      O18603   0.404   1.153   6.128 -0.5838  0.1158  0.3040
 4471WAT     H118604   0.409   1.126   6.211 -0.8683 -1.9985 -0.3238
 4471WAT     H218605   0.339   1.106   6.095 -0.2798  0.7069 -1.2176
 4471WAT    EPW18606   0.395   1.142   6.135 -0.5809 -0.1092 -0.0135
 4472WAT      O18607   2.910   2.898   2.853 -0.0617  0.0314  0.2913
 4472WAT     H118608   2.942   2.918   2.774  0.5158 -2.8582 -0.3305
 4472WAT     H218609   2.839   2.852   2.834  0.9175 -2.0250  1.3481
 4472WAT    EPW18610   2.904   2.894   2.838  0.1682 -0.6993  0.3555
 4473WAT      O18611   4.232   0.130   6.844 -0.1635 -0.0522  0.5701
 4473WAT     H118612   4.177   0.179   6.797  0.7426  0.2369 -0.2474
 4473WAT     H218613   4.298   0.185   6.860 -0.2005 -0.3231  1.7201
 4473WAT    EPW18614   4.234   0.145   6.839 -0.0351 -0.0495  0.6192
 4474WAT      O18615   2.697   5.385   3.939 -0.3460  0.7275 -0.0780
 4474WAT     H118616   2.783   5.370   3.942 -0.5284 -0.2983  1.7474
 4474WAT     H218617   2.666   5.318   3.893 -0.2825  0.4047  0.3460
 4474WAT    EPW18618   2.705   5.373   3.932 -0.3636  0.5283  0.2543
 4475WAT      O18619   3.651   4.206   1.904  0.0113  0.2039 -0.0016
 4475WAT     H118620   3.570   4.189   1.878  0.1912 -0.2708 -0.2622
 4475WAT     H218621   3.678   4.131   1.939  0.0815  0.5728  0.7776
 4475WAT    EPW18622   3.643   4.192   1.905  0.0483  0.1883  0.0750
 4476WAT      O18623   2.081   4.356   6.861 -0.4513  0.1248 -0.3048
 4476WAT     H118624   2.087   4.322   6.781 -1.9092 -0.2162 -0.2950
 4476WAT     H218625   2.098   4.289   6.914  1.9973  0.6645 -0.2707
 4476WAT    EPW18626   2.084   4.341   6.857 -0.3050  0.1542 -0.2983
 4477WAT      O18627   6.288   2.676   2.498 -0.2071  0.0094 -0.3529
 4477WAT     H118628   6.329   2.733   2.445  1.1003  0.9790  1.5989
 4477WAT     H218629   6.336   2.604   2.491  0.7692  0.5468  0.4500
 4477WAT    EPW18630   6.301   2.674   2.489  0.1302  0.2320  0.0540
 4478WAT      O18631   3.362   4.715   1.077  0.1820  0.0581  0.5570
 4478WAT     H118632   3.366   4.715   0.990 -1.7782 -1.5845  0.3853
 4478WAT     H218633   3.410   4.645   1.099 -1.0064 -0.7634  0.6172
 4478WAT    EPW18634   3.370   4.704   1.068 -0.2831 -0.3059  0.5405
 4479WAT      O18635   6.454   2.165   4.043 -0.4810  0.1514  0.1636
 4479WAT     H118636   6.494   2.095   4.076 -2.3144 -1.4320 -0.7279
 4479WAT     H218637   6.519   2.220   4.025  1.1900 -1.8247 -0.2377
 4479WAT    EPW18638   6.469   2.162   4.045 -0.5050 -0.3744 -0.0274
 4480WAT      O18639   5.585   5.386   5.839  0.2257  0.4222  0.1900
 4480WAT     H118640   5.569   5.443   5.903 -1.0739 -0.6773  0.8942
 4480WAT     H218641   5.574   5.308   5.877  1.7854 -0.3314 -0.7879
 4480WAT    EPW18642   5.581   5.383   5.854  0.2641  0.1484  0.1496
 4481WAT      O18643   7.021   2.411   0.444 -0.2520 -0.2301  0.0717
 4481WAT     H118644   6.975   2.435   0.374  0.1204 -0.7110 -0.3451
 4481WAT     H218645   7.091   2.463   0.442 -0.4917  0.1090  0.3821
 4481WAT    EPW18646   7.025   2.422   0.434 -0.2324 -0.2511  0.0560
 4482WAT      O18647   4.002   2.677   1.533  0.1231  0.7279 -0.2064
 4482WAT     H118648   4.029   2.693   1.614  1.2051 -0.7004 -0.2501
 4482WAT     H218649   3.919   2.652   1.543  0.8432 -1.5272  0.7499
 4482WAT    EPW18650   3.994   2.676   1.546  0.3893  0.1838 -0.0716
 4483WAT      O18651   0.952   0.590   0.678 -0.1576  0.2546 -0.4444
 4483WAT     H118652   0.894   0.610   0.740  0.1541  0.4922 -0.2298
 4483WAT     H218653   0.917   0.519   0.640 -2.3926  2.3445 -2.6454
 4483WAT    EPW18654   0.938   0.582   0.681 -0.4417  0.5984 -0.7378
 4484WAT      O18655   4.477   3.030   0.838 -0.0340 -0.2049 -0.3823
 4484WAT     H118656   4.445   3.109   0.817  0.2171 -0.0186 -0.0596
 4484WAT     H218657   4.505   3.040   0.920  1.9580 -0.0147 -1.0283
 4484WAT    EPW18658   4.476   3.043   0.847  0.2973 -0.1493 -0.4300
 4485WAT      O18659   0.946   3.275   7.066 -0.3666 -0.3530  0.2203
 4485WAT     H118660   0.904   3.211   7.025  1.5732 -0.5716 -1.6482
 4485WAT     H218661   1.024   3.240   7.084 -0.3576  0.5148  2.0835
 4485WAT    EPW18662   0.951   3.261   7.062 -0.0787 -0.2571  0.2195
 4486WAT      O18663   2.790   1.371   2.824  0.2210  0.1276 -0.4477
 4486WAT     H118664   2.831   1.424   2.879  0.6211 -0.8337  0.1924
 4486WAT     H218665   2.851   1.314   2.800 -0.7546 -1.5461  0.8040
 4486WAT    EPW18666   2.805   1.370   2.829  0.1360 -0.2617 -0.1682
 4487WAT      O18667   4.428   0.953   4.772  0.3339  0.2674 -0.4661
 4487WAT     H118668   4.510   0.945   4.801 -0.0669  0.3452  0.7197
 4487WAT     H218669   4.409   1.037   4.786 -0.7253 -0.2267  1.4998
 4487WAT    EPW18670   4.437   0.964   4.778  0.1182  0.2059 -0.0005
 4488WAT      O18671   5.276   0.276   6.118  0.2015  0.5819  0.1304
 4488WAT     H118672   5.362   0.283   6.105  0.1787 -0.8126 -0.9937
 4488WAT     H218673   5.269   0.210   6.174 -0.1744 -0.2804 -0.8952
 4488WAT    EPW18674   5.288   0.267   6.124  0.1426  0.2485 -0.1872
 4489WAT      O18675   2.785   3.043   3.666 -0.3522 -0.3401  0.1490
 4489WAT     H118676   2.719   3.100   3.674 -1.4615 -1.2854 -1.7079
 4489WAT     H218677   2.751   2.978   3.618  1.2356 -2.0040  1.1345
 4489WAT    EPW18678   2.770   3.042   3.660 -0.2815 -0.7256  0.0203
 4490WAT      O18679   1.462   0.734   1.441 -0.4466  0.0081  0.0831
 4490WAT     H118680   1.438   0.651   1.425 -0.9550  0.2938 -0.7116
 4490WAT     H218681   1.520   0.751   1.378 -2.6855  1.2420 -1.8033
 4490WAT    EPW18682   1.467   0.724   1.429 -0.8524  0.2326 -0.3129
 4491WAT      O18683   2.356   4.746   3.610 -0.9528 -0.5696  0.5334
 4491WAT     H118684   2.396   4.782   3.679 -1.3171 -0.2747  0.5947
 4491WAT     H218685   2.359   4.808   3.549  0.8130 -1.3868 -0.3035
 4491WAT    EPW18686   2.362   4.761   3.611 -0.7458 -0.6468  0.4188
 4492WAT      O18687   6.922   5.316   5.582  0.4993  0.1844  0.2441
 4492WAT     H118688   6.924   5.382   5.526 -0.6075 -0.5971 -0.7741
 4492WAT     H218689   7.002   5.283   5.580  0.1034 -0.8017 -2.1376
 4492WAT    EPW18690   6.934   5.321   5.574  0.2773 -0.0767 -0.2581
 4493WAT      O18691   1.083   0.211   6.521 -0.5159  0.0271 -0.0384
 4493WAT     H118692   1.051   0.137   6.555  1.0913 -1.4191 -1.4556
 4493WAT     H218693   1.123   0.249   6.588  0.9608 -1.7867  0.1841
 4493WAT    EPW18694   1.084   0.206   6.536 -0.0604 -0.4545 -0.2149
 4494WAT      O18695   5.048   4.288   1.804 -0.4652 -0.0526 -0.7337
 4494WAT     H118696   4.995   4.272   1.736  0.1278 -1.5557 -0.8777
 4494WAT     H218697   5.017   4.362   1.837 -0.4344  1.0438 -2.9889
 4494WAT    EPW18698   5.036   4.296   1.799 -0.3731 -0.1127 -1.0881
 4495WAT      O18699   0.341   6.311   0.713 -0.0487  0.0854  0.0139
 4495WAT     H118700   0.420   6.275   0.721 -0.0182 -0.5529 -2.4048
 4495WAT     H218701   0.322   6.337   0.794  2.5158  0.0218  0.7241
 4495WAT    EPW18702   0.350   6.310   0.726  0.3346 -0.0183 -0.2385
 4496WAT      O18703   5.511   6.628   2.157  0.1772  0.4976  0.5050
 4496WAT     H118704   5.588   6.605   2.122 -0.2227  0.2559 -0.2237
 4496WAT     H218705   5.508   6.583   2.232  1.9545  2.5438  1.9421
 4496WAT    EPW18706   5.522   6.618   2.163  0.3806  0.7642  0.6096
 4497WAT      O18707   2.301   2.868   5.068  0.3269 -0.1970 -0.2756
 4497WAT     H118708   2.278   2.924   5.130  0.7968 -1.5393  1.1718
 4497WAT     H218709   2.384   2.889   5.051  1.1351 -1.5485  1.6232
 4497WAT    EPW18710   2.310   2.879   5.074  0.5157 -0.5949  0.2187
 4498WAT      O18711   6.493   3.080   0.570 -0.5813 -0.5290 -0.0482
 4498WAT     H118712   6.572   3.109   0.550 -1.0242  0.2175 -0.7972
 4498WAT     H218713   6.445   3.153   0.572 -0.7602 -0.5817  3.0224
 4498WAT    EPW18714   6.497   3.095   0.567 -0.6732 -0.4265  0.2948
 4499WAT      O18715   0.956   5.229   4.542  0.2826  0.1374  0.3832
 4499WAT     H118716   0.961   5.153   4.501 -1.7319  0.8198 -1.3275
 4499WAT     H218717   0.880   5.224   4.586 -1.5358  2.1259 -2.2094
 4499WAT    EPW18718   0.945   5.217   4.543 -0.2836  0.5319 -0.2525
 4500WAT      O18719   3.239   2.100   2.901 -0.3163  0.1946  0.2674
 4500WAT     H118720   3.159   2.109   2.936 -0.2642  0.2813  0.3637
 4500WAT     H218721   3.281   2.051   2.960 -0.7764 -1.2181 -0.5241
 4500WAT    EPW18722   3.234   2.094   2.915 -0.3766 -0.0013  0.1647
 4501WAT      O18723   5.105   5.056   1.138 -0.3111 -0.3172  0.4443
 4501WAT     H118724   5.175   5.105   1.157  0.8533 -1.7777  0.1077
 4501WAT     H218725   5.093   5.070   1.052 -0.9264  0.5283  0.6614
 4501WAT    EPW18726   5.113   5.065   1.128 -0.2300 -0.4080  0.4266
 4502WAT      O18727   6.476   7.164   2.316 -0.2847  0.0736  0.0729
 4502WAT     H118728   6.423   7.190   2.251  0.7246 -1.2790 -1.3928
 4502WAT     H218729   6.462   7.078   2.320  1.2672 -0.2086  0.0978
 4502WAT    EPW18730   6.467   7.155   2.307  0.0937 -0.1679 -0.1399
 4503WAT      O18731   5.312   6.321   2.851 -0.2778  0.1012 -0.9174
 4503WAT     H118732   5.266   6.251   2.826 -1.7251  1.0325 -1.0335
 4503WAT     H218733   5.385   6.287   2.884  1.0913 -1.3135 -4.8655
 4503WAT    EPW18734   5.316   6.306   2.852 -0.2894  0.0298 -1.5178
 4504WAT      O18735   5.488   6.694   6.054 -0.2334 -0.2340  0.0217
 4504WAT     H118736   5.487   6.619   6.011  0.1138 -0.5016  0.4693
 4504WAT     H218737   5.557   6.736   6.019  0.5571 -0.7893  0.8571
 4504WAT    EPW18738   5.498   6.689   6.042 -0.0653 -0.3555  0.2112
 4505WAT      O18739   3.705   1.204   3.327  0.2161 -0.1683 -0.5782
 4505WAT     H118740   3.626   1.168   3.318  0.1291  0.2656 -1.6591
 4505WAT     H218741   3.689   1.290   3.330  0.6488 -0.0766 -0.7947
 4505WAT    EPW18742   3.691   1.211   3.326  0.2672 -0.0907 -0.7699
 4506WAT      O18743   1.675   1.106   1.149 -0.1604 -0.0860  0.1753
 4506WAT     H118744   1.593   1.078   1.141 -0.7898  1.8454 -0.8232
 4506WAT     H218745   1.711   1.090   1.071  0.9198 -2.1996  1.0201
 4506WAT    EPW18746   1.668   1.100   1.136 -0.0938 -0.1129  0.1526
 4507WAT      O18747   1.251   2.343   0.052 -0.6481  0.6395  0.1699
 4507WAT     H118748   1.307   2.339  -0.014 -1.3358 -0.4216 -0.3761
 4507WAT     H218749   1.243   2.429   0.067  0.2788  0.8475 -0.4468
 4507WAT    EPW18750   1.258   2.355   0.044 -0.6128  0.5135 -0.0019
 4508WAT      O18751   0.584   0.566   2.705 -0.5637  0.2517  0.0991
 4508WAT     H118752   0.612   0.487   2.729 -1.5091  0.2738  1.3871
 4508WAT     H218753   0.564   0.605   2.780 -2.1719  0.9272 -0.6198
 4508WAT    EPW18754   0.585   0.560   2.720 -0.9409  0.3547  0.1832
 4509WAT      O18755   6.700   4.456   3.840  0.7106  0.2655 -0.5462
 4509WAT     H118756   6.724   4.506   3.773  0.7448  0.4667 -0.3830
 4509WAT     H218757   6.689   4.512   3.905  0.6082  0.0776 -0.4001
 4509WAT    EPW18758   6.702   4.471   3.840  0.7006  0.2675 -0.5005
 4510WAT      O18759   0.061   0.964   4.916 -0.1913  0.2585 -0.1971
 4510WAT     H118760  -0.020   0.931   4.921 -0.7505  1.7303  2.8963
 4510WAT     H218761   0.051   1.046   4.943  2.3097  0.5632  0.0034
 4510WAT    EPW18762   0.048   0.971   4.921  0.0955  0.5209  0.2895
 4511WAT      O18763   2.838   3.568   7.268 -0.6870  0.0161 -0.3612
 4511WAT     H118764   2.878   3.514   7.324 -0.2252  0.7809  0.0709
 4511WAT     H218765   2.902   3.591   7.213 -0.5417  1.1368  0.2471
 4511WAT    EPW18766   2.854   3.564   7.268 -0.5973  0.2947 -0.2075
 4512WAT      O18767   2.074   7.121   5.300  0.4978  0.0878 -0.2044
 4512WAT     H118768   1.995   7.104   5.266  0.3793  1.6786 -0.8391
 4512WAT     H218769   2.065   7.201   5.333  1.8762  0.3428 -0.3843
 4512WAT    EPW18770   2.061   7.130   5.300  0.6839  0.3605 -0.3247
 4513WAT      O18771   5.703   6.980   2.006  0.0155 -0.0426 -0.4844
 4513WAT     H118772   5.657   6.942   2.070  0.8793  0.4063  0.4375
 4513WAT     H218773   5.785   6.978   2.036  0.2458  1.4292 -0.9424
 4513WAT    EPW18774   5.708   6.974   2.020  0.1771  0.2411 -0.4159
 4514WAT      O18775   3.216   3.388   4.856  0.5743  0.4972 -0.1686
 4514WAT     H118776   3.205   3.305   4.882  2.1020  0.6615  1.1537
 4514WAT     H218777   3.143   3.428   4.881  0.7975  0.0193  1.3285
 4514WAT    EPW18778   3.204   3.382   4.864  0.8329  0.4509  0.2479
 4515WAT      O18779   3.318   1.441   0.846  0.2212  0.6456  0.1577
 4515WAT     H118780   3.318   1.389   0.916 -2.3139  0.6743  0.2783
 4515WAT     H218781   3.275   1.393   0.786 -2.2574  2.5081  0.2891
 4515WAT    EPW18782   3.311   1.426   0.847 -0.5194  0.9250  0.1949
 4516WAT      O18783   4.303   6.382   1.501 -0.1571  0.1955 -0.5111
 4516WAT     H118784   4.379   6.364   1.539 -1.0888  0.2366  1.4829
 4516WAT     H218785   4.244   6.341   1.551 -1.3483 -2.0913 -3.4624
 4516WAT    EPW18786   4.306   6.373   1.514 -0.4707 -0.1362 -0.6525
 4517WAT      O18787   1.418   2.783   6.497 -0.1252 -0.1673 -0.5555
 4517WAT     H118788   1.447   2.756   6.575 -1.3293  0.2199  0.0539
 4517WAT     H218789   1.372   2.855   6.516 -1.0888 -0.4984 -1.4970
 4517WAT    EPW18790   1.415   2.789   6.511 -0.4454 -0.1590 -0.6045
 4518WAT      O18791   5.502   3.597   6.518  0.0091 -0.1558 -0.0802
 4518WAT     H118792   5.419   3.578   6.502 -0.1265  0.6685 -0.4102
 4518WAT     H218793   5.544   3.563   6.449 -0.0863 -0.3126 -0.0618
 4518WAT    EPW18794   5.496   3.589   6.505 -0.0250 -0.0572 -0.1262
 4519WAT      O18795   0.860   5.819   5.191 -0.1151 -0.2874 -0.0830
 4519WAT     H118796   0.839   5.735   5.183 -1.5233  0.0404 -0.0623
 4519WAT     H218797   0.796   5.861   5.148  0.1561  0.8018  0.5207
 4519WAT    EPW18798   0.847   5.813   5.183 -0.2830 -0.0781  0.0092
 4520WAT      O18799   2.690   6.487   5.380 -0.0814 -0.1259  0.1944
 4520WAT     H118800   2.739   6.482   5.452 -0.3864 -0.4510  0.3820
 4520WAT     H218801   2.731   6.433   5.324 -0.2048 -0.3679  0.3380
 4520WAT    EPW18802   2.703   6.478   5.382 -0.1447 -0.2097  0.2433
 4521WAT      O18803   3.230   2.685   4.143 -0.2392  0.2113  0.3235
 4521WAT     H118804   3.176   2.616   4.152  0.4458 -0.2466  1.1123
 4521WAT     H218805   3.290   2.656   4.087 -0.4180  0.4741 -0.0070
 4521WAT    EPW18806   3.231   2.670   4.136 -0.1644  0.1825  0.3912
 4522WAT      O18807   6.461   6.462   2.472  0.1072 -0.1748  0.0790
 4522WAT     H118808   6.478   6.502   2.396  1.5548  0.0767  0.5051
 4522WAT     H218809   6.376   6.478   2.485  0.4067  1.9068 -0.2493
 4522WAT    EPW18810   6.451   6.470   2.462  0.3653  0.1698  0.0935
 4523WAT      O18811   1.799   1.072   1.923  0.7635 -0.1641 -0.2946
 4523WAT     H118812   1.837   1.134   1.875  0.9417  0.2328  0.3361
 4523WAT     H218813   1.790   1.110   2.001 -2.8811  0.5425 -0.8836
 4523WAT    EPW18814   1.804   1.087   1.928  0.2514 -0.0011 -0.2884
 4524WAT      O18815   4.177   1.526   7.150  0.3481  0.5950  0.3220
 4524WAT     H118816   4.232   1.528   7.218 -1.0954  0.1754  1.5688
 4524WAT     H218817   4.098   1.524   7.188 -0.6942  3.4934 -1.3761
 4524WAT    EPW18818   4.174   1.526   7.166 -0.0191  0.9612  0.2553
 4525WAT      O18819   5.859   2.755   2.665 -0.1172  0.0323 -0.2126
 4525WAT     H118820   5.931   2.706   2.655 -0.6571 -0.5906 -1.1627
 4525WAT     H218821   5.886   2.834   2.641 -0.1590 -0.5324 -2.3292
 4525WAT    EPW18822   5.874   2.759   2.660 -0.2031 -0.1431 -0.6656
 4526WAT      O18823   3.158   5.851   1.147  0.4831  0.4415 -0.2430
 4526WAT     H118824   3.230   5.832   1.103  0.3628  0.7210 -0.5596
 4526WAT     H218825   3.167   5.935   1.169  1.3681 -0.1273  1.8260
 4526WAT    EPW18826   3.170   5.860   1.144  0.5960  0.3988  0.0159
 4527WAT      O18827   6.530   4.223   1.261 -0.1698 -0.0417  0.0219
 4527WAT     H118828   6.511   4.162   1.201  0.0868  1.3007 -1.4919
 4527WAT     H218829   6.615   4.239   1.247 -0.3154  0.9028  0.1500
 4527WAT    EPW18830   6.540   4.216   1.250 -0.1534  0.2962 -0.1828
 4528WAT      O18831   1.969   4.718   7.274  0.5993  0.8366  0.1623
 4528WAT     H118832   1.986   4.739   7.191  0.4367 -0.0334 -0.1005
 4528WAT     H218833   2.007   4.640   7.283 -0.2620  0.4527  0.5939
 4528WAT    EPW18834   1.977   4.709   7.263  0.4481  0.6514  0.1872
 4529WAT      O18835   4.464   0.340   3.462 -0.0132 -0.0000 -0.6736
 4529WAT     H118836   4.494   0.366   3.385  2.1731  0.8796  0.3750
 4529WAT     H218837   4.496   0.399   3.518 -1.0270 -0.9209  0.9751
 4529WAT    EPW18838   4.473   0.352   3.459  0.1600 -0.0061 -0.2751
 4530WAT      O18839   0.345   2.651   0.301  0.4155  0.3977  0.1955
 4530WAT     H118840   0.406   2.705   0.333  1.9939  0.2203 -2.2334
 4530WAT     H218841   0.298   2.702   0.248 -0.7064  0.2098  0.9671
 4530WAT    EPW18842   0.347   2.666   0.298  0.4829  0.3437 -0.0493
 4531WAT      O18843   4.167   0.475   6.280 -0.1364  0.2528  0.0690
 4531WAT     H118844   4.093   0.433   6.301 -0.1352  0.4319  0.4418
 4531WAT     H218845   4.157   0.553   6.319  0.0690  0.4245 -0.2241
 4531WAT    EPW18846   4.154   0.480   6.289 -0.1059  0.3046  0.0807
 4532WAT      O18847   6.179   0.642   2.529  0.1732 -0.3731  0.3128
 4532WAT     H118848   6.101   0.668   2.501  1.2459  1.6168 -1.0969
 4532WAT     H218849   6.217   0.610   2.458  1.4515  0.8987  0.3710
 4532WAT    EPW18850   6.173   0.641   2.515  0.5205  0.1087  0.1132
 4533WAT      O18851   3.028   2.064   3.819 -0.3344  0.2738 -0.3705
 4533WAT     H118852   2.950   2.041   3.850 -0.0228  0.1364  0.3104
 4533WAT     H218853   3.010   2.134   3.769 -0.8760  0.2967 -0.1464
 4533WAT    EPW18854   3.013   2.071   3.816 -0.3684  0.2569 -0.2368
 4534WAT      O18855   4.237   1.350   6.538  0.1404  0.2971  0.8418
 4534WAT     H118856   4.163   1.389   6.512  0.5949 -0.3033 -1.6109
 4534WAT     H218857   4.210   1.289   6.594 -1.6823 -1.9253 -2.1894
 4534WAT    EPW18858   4.222   1.347   6.542 -0.0617 -0.1199  0.0317
 4535WAT      O18859   3.532   7.168   4.786 -0.6948 -0.1273 -0.0930
 4535WAT     H118860   3.562   7.218   4.852  0.0008 -0.5746 -0.0608
 4535WAT     H218861   3.597   7.112   4.772 -1.8291 -1.6469  0.4944
 4535WAT    EPW18862   3.546   7.167   4.794 -0.7596 -0.4179 -0.0015
 4536WAT      O18863   4.207   6.177   5.460 -0.3427  0.0141  0.1425
 4536WAT     H118864   4.154   6.110   5.442  1.0501 -0.8732 -0.9757
 4536WAT     H218865   4.231   6.162   5.542  0.5428 -1.3584 -0.3262
 4536WAT    EPW18866   4.203   6.165   5.469 -0.0062 -0.3197 -0.0919
 4537WAT      O18867   4.035   0.826   1.447  0.8489  0.2898 -0.5936
 4537WAT     H118868   4.018   0.850   1.365  2.0697  0.7770 -0.7275
 4537WAT     H218869   3.969   0.860   1.493 -0.4737 -0.9422 -1.4765
 4537WAT    EPW18870   4.023   0.835   1.442  0.8339  0.1798 -0.7438
 4538WAT      O18871   0.742   5.178   4.696 -0.0472 -0.4409  0.0456
 4538WAT     H118872   0.710   5.103   4.666 -0.0637 -0.7466  0.8038
 4538WAT     H218873   0.682   5.206   4.752  0.6150 -0.6145  0.8721
 4538WAT    EPW18874   0.729   5.171   4.700  0.0482 -0.5117  0.2797
 4539WAT      O18875   2.058   6.944   3.584 -0.3122  0.2598 -0.2320
 4539WAT     H118876   2.038   6.882   3.642 -1.5303  1.9926  1.3331
 4539WAT     H218877   2.092   7.008   3.633  2.0747  0.4337 -1.9309
 4539WAT    EPW18878   2.060   6.944   3.600 -0.1395  0.5415 -0.2518
 4540WAT      O18879   6.666   4.333   5.159 -0.3968  0.3098  0.5657
 4540WAT     H118880   6.687   4.307   5.239  0.6293  1.2214  0.6188
 4540WAT     H218881   6.653   4.419   5.168 -1.8180  0.1893  0.0351
 4540WAT    EPW18882   6.667   4.342   5.172 -0.4552  0.4267  0.4952
 4541WAT      O18883   3.661   3.045   1.587  0.0601 -0.0600  0.2199
 4541WAT     H118884   3.677   2.961   1.608 -1.4177 -0.0297  1.6400
 4541WAT     H218885   3.741   3.080   1.586  0.7700 -1.5783 -0.9740
 4541WAT    EPW18886   3.675   3.038   1.590 -0.0533 -0.2798  0.2533
 4542WAT      O18887   6.910   2.814   0.020 -0.0672  0.2894  0.6537
 4542WAT     H118888   6.925   2.809  -0.066  0.5466 -3.0088  0.8266
 4542WAT     H218889   6.832   2.852   0.024  0.7370  2.3922 -1.1809
 4542WAT    EPW18890   6.901   2.819   0.008  0.1423  0.1128  0.4083
 4543WAT      O18891   6.239   0.871   3.553  0.5754 -0.2844  0.0043
 4543WAT     H118892   6.160   0.849   3.583  0.1519 -0.5885 -1.2844
 4543WAT     H218893   6.236   0.958   3.551  0.0187 -0.3128 -0.6718
 4543WAT    EPW18894   6.227   0.881   3.557  0.4306 -0.3335 -0.2859
 4544WAT      O18895   3.369   0.223   2.315  0.0082 -0.2885  0.0443
 4544WAT     H118896   3.293   0.181   2.323  0.0765 -0.3692  0.3022
 4544WAT     H218897   3.428   0.162   2.337  0.0638  0.1272  1.1204
 4544WAT    EPW18898   3.367   0.208   2.320  0.0265 -0.2390  0.2413
 4545WAT      O18899   6.572   5.235   1.281 -0.5097 -1.0358  0.7293
 4545WAT     H118900   6.602   5.258   1.202 -1.2844 -3.6745 -0.4629
 4545WAT     H218901   6.595   5.302   1.332 -0.3247  0.9883 -1.7853
 4545WAT    EPW18902   6.580   5.248   1.277 -0.5968 -1.1266  0.1817
 4546WAT      O18903   2.349   3.182   2.953 -0.1448  0.0002  0.0612
 4546WAT     H118904   2.264   3.163   2.944 -0.7766  1.5401  2.0585
 4546WAT     H218905   2.383   3.111   2.990 -0.7544 -0.2487  0.1472
 4546WAT    EPW18906   2.341   3.169   2.957 -0.3282  0.1909  0.3689
 4547WAT      O18907   4.754   3.857   4.868  0.2886 -0.3470 -0.0968
 4547WAT     H118908   4.747   3.944   4.865  0.9469 -0.3043 -0.6046
 4547WAT     H218909   4.671   3.830   4.870  0.0719  0.2814 -0.3403
 4547WAT    EPW18910   4.740   3.866   4.868  0.3539 -0.2479 -0.2078
 4548WAT      O18911   1.898   2.977   1.411 -0.0440  0.1752 -0.0165
 4548WAT     H118912   1.916   2.892   1.419  3.4345  0.9531  2.8131
 4548WAT     H218913   1.956   3.005   1.353 -1.2091  0.6977 -0.9730
 4548WAT    EPW18914   1.909   2.968   1.404  0.2978  0.3673  0.2602
 4549WAT      O18915   2.457   3.791   4.004 -0.2317  0.0776 -0.2857
 4549WAT     H118916   2.436   3.785   3.919  0.8083 -0.5707 -0.5163
 4549WAT     H218917   2.452   3.709   4.032 -1.7254  0.4345  0.6005
 4549WAT    EPW18918   2.453   3.778   3.995 -0.2987  0.0346 -0.1889
 4550WAT      O18919   4.406   3.461   3.962 -0.1092  0.4226  0.1640
 4550WAT     H118920   4.407   3.536   4.005 -0.3177 -0.2365  1.3515
 4550WAT     H218921   4.489   3.433   3.966 -0.3115 -0.0737  0.9256
 4550WAT    EPW18922   4.418   3.468   3.969 -0.1699  0.2519  0.4519
 4551WAT      O18923   0.129   6.794   1.229  0.3686  0.4562 -0.1763
 4551WAT     H118924   0.164   6.714   1.224  0.0444  0.3617 -1.3368
 4551WAT     H218925   0.088   6.803   1.152 -0.7982  1.1931  0.5111
 4551WAT    EPW18926   0.128   6.783   1.217  0.1484  0.5511 -0.2462
 4552WAT      O18927   4.794   7.030   6.623  0.0597 -0.4474  0.2645
 4552WAT     H118928   4.869   7.057   6.588 -0.6001  0.2121 -0.7028
 4552WAT     H218929   4.771   7.095   6.676 -1.3826  0.8719 -1.8440
 4552WAT    EPW18930   4.802   7.043   6.625 -0.2508 -0.1551 -0.1899
 4553WAT      O18931   0.063   5.296   4.440 -0.3025 -0.4091  0.2103
 4553WAT     H118932   0.071   5.214   4.469 -1.0134 -0.2325  0.9280
 4553WAT     H218933  -0.020   5.302   4.415  0.5846 -1.0773 -3.6297
 4553WAT    EPW18934   0.052   5.285   4.440 -0.2765 -0.4817 -0.2509
 4554WAT      O18935   7.159   7.218   5.505 -0.0186  0.0331 -0.3242
 4554WAT     H118936   7.215   7.263   5.455  0.0541 -1.2093 -1.3959
 4554WAT     H218937   7.124   7.280   5.557 -1.3761  1.7016 -3.0153
 4554WAT    EPW18938   7.162   7.234   5.506 -0.2084  0.0960 -0.8800
 4555WAT      O18939   1.683   3.042   0.780 -0.6843  0.0572 -1.0059
 4555WAT     H118940   1.705   2.980   0.838 -0.1396  1.3089  0.1770
 4555WAT     H218941   1.597   3.049   0.788 -0.7117 -0.3457 -0.9462
 4555WAT    EPW18942   1.674   3.034   0.789 -0.6079  0.1826 -0.8223
 4556WAT      O18943   1.972   2.089   6.059 -0.1017  0.3109  0.3121
 4556WAT     H118944   1.928   2.163   6.043 -0.8478 -0.0902  0.4439
 4556WAT     H218945   2.007   2.102   6.137 -0.8358  0.2592  0.6594
 4556WAT    EPW18946   1.971   2.102   6.068 -0.3204  0.2440  0.3829
 4557WAT      O18947   4.567   5.019   0.148  0.5146 -0.2695  0.5731
 4557WAT     H118948   4.612   5.049   0.217 -0.4319 -1.2636  1.6552
 4557WAT     H218949   4.600   4.939   0.135  1.5343  0.3300 -0.9524
 4557WAT    EPW18950   4.579   5.012   0.156  0.5254 -0.3278  0.5076
 4558WAT      O18951   4.983   1.290   5.535 -0.0634 -0.0944  0.0320
 4558WAT     H118952   4.971   1.210   5.567 -0.2847 -0.9962 -2.1776
 4558WAT     H218953   5.047   1.280   5.477  0.4182  1.5078  0.2333
 4558WAT    EPW18954   4.991   1.277   5.531 -0.0249  0.0091 -0.2647
 4559WAT      O18955   0.981   2.155   4.171 -0.2421 -0.3795 -0.1193
 4559WAT     H118956   1.056   2.200   4.173 -0.6896  0.3745  0.0948
 4559WAT     H218957   0.922   2.215   4.148 -0.3862 -1.5707 -3.4087
 4559WAT    EPW18958   0.983   2.170   4.168 -0.3295 -0.4441 -0.5736
 4560WAT      O18959   3.390   5.585   5.643  0.6190  0.0401 -0.2523
 4560WAT     H118960   3.341   5.535   5.694  1.3492 -0.3049  0.1278
 4560WAT     H218961   3.423   5.529   5.585 -1.2771  0.6278 -1.9908
 4560WAT    EPW18962   3.388   5.569   5.642  0.4468  0.0759 -0.4529
 4561WAT      O18963   5.342   2.463   0.219 -0.2068 -0.1082  0.1207
 4561WAT     H118964   5.273   2.436   0.174  0.2560 -0.0486 -0.6423
 4561WAT     H218965   5.370   2.533   0.175  0.6424 -0.4358  0.1128
 4561WAT    EPW18966   5.336   2.469   0.206 -0.0130 -0.1478  0.0068
 4562WAT      O18967   4.804   0.249   3.056 -0.0907  0.2936 -0.0399
 4562WAT     H118968   4.734   0.197   3.051  0.4574 -0.4022 -0.6643
 4562WAT     H218969   4.799   0.297   2.984 -0.0592  0.4085  0.0346
 4562WAT    EPW18970   4.793   0.248   3.044 -0.0051  0.2078 -0.1211
 4563WAT      O18971   0.693   3.560   2.961 -0.7907 -0.6229  0.2506
 4563WAT     H118972   0.776   3.560   2.936 -0.5613  0.4347  0.9105
 4563WAT     H218973   0.689   3.496   3.020 -0.1138  0.1155  1.1395
 4563WAT    EPW18974   0.705   3.551   2.966 -0.6568 -0.3576  0.4794
 4564WAT      O18975   6.568   2.553   6.045  0.0411 -0.1115 -0.4595
 4564WAT     H118976   6.552   2.468   6.058 -0.2629  0.3324  2.9972
 4564WAT     H218977   6.491   2.585   6.019 -0.6554 -0.5012  1.0137
 4564WAT    EPW18978   6.554   2.545   6.043 -0.1067 -0.1035  0.2687
 4565WAT      O18979   5.108   2.389   2.746 -0.3491 -0.1990 -0.0543
 4565WAT     H118980   5.108   2.386   2.833  0.5333  1.7656  0.0581
 4565WAT     H218981   5.025   2.405   2.725 -0.7515 -1.6289  0.3392
 4565WAT    EPW18982   5.096   2.391   2.756 -0.2782 -0.1200  0.0204
 4566WAT      O18983   5.786   2.929   2.019  0.1509 -0.3507 -0.2970
 4566WAT     H118984   5.825   2.904   1.945  0.6275  0.2004 -0.2432
 4566WAT     H218985   5.768   3.013   2.005  1.8100  0.2545  0.8340
 4566WAT    EPW18986   5.789   2.938   2.006  0.4664 -0.1799 -0.1220
 4567WAT      O18987   1.500   2.119   2.734 -0.1823 -0.1249  0.9019
 4567WAT     H118988   1.449   2.067   2.783 -0.1162 -0.2571  0.8324
 4567WAT     H218989   1.565   2.066   2.710 -1.6842 -0.9828 -1.7692
 4567WAT    EPW18990   1.502   2.103   2.737 -0.3944 -0.2711  0.4971
 4568WAT      O18991   2.083   1.262   5.536  0.4063  0.0618  0.2206
 4568WAT     H118992   2.062   1.210   5.603  1.1833 -0.9295 -0.2845
 4568WAT     H218993   2.131   1.325   5.574  1.8724 -1.1437  0.4607
 4568WAT    EPW18994   2.087   1.263   5.552  0.7376 -0.2627  0.1814
 4569WAT      O18995   1.647   4.314   0.826 -0.1553 -0.1599 -0.5469
 4569WAT     H118996   1.651   4.377   0.887 -1.4968  0.0436 -0.6533
 4569WAT     H218997   1.729   4.283   0.824  0.1336  0.4604  0.6931
 4569WAT    EPW18998   1.660   4.319   0.835 -0.3108 -0.0382 -0.3795
 4570WAT      O18999   0.984   0.224   0.309 -0.2562 -0.5646 -0.2228
 4570WAT     H119000   1.053   0.170   0.317 -0.2431 -0.2937  1.9760
 4570WAT     H219001   1.021   0.301   0.290 -0.1693 -0.9313 -1.6819
 4570WAT    EPW19002   1.000   0.227   0.307 -0.2414 -0.5787 -0.1135
 4571WAT      O19003   1.856   3.635   3.162  0.0475 -0.5987 -0.3424
 4571WAT     H119004   1.886   3.566   3.118  0.7669 -1.1663  0.9769
 4571WAT     H219005   1.900   3.632   3.238 -0.7005  0.6818  0.1832
 4571WAT    EPW19006   1.867   3.625   3.167  0.0433 -0.4934 -0.0699
 4572WAT      O19007   3.396   6.100   0.594  0.0818  0.5278  0.4568
 4572WAT     H119008   3.347   6.121   0.663 -0.1591  0.6865  0.2406
 4572WAT     H219009   3.409   6.014   0.604 -0.8980  0.3192  0.1119
 4572WAT    EPW19010   3.391   6.090   0.606 -0.0985  0.5204  0.3739
 4573WAT      O19011   0.390   2.716   2.662 -0.2254  0.3473  0.1699
 4573WAT     H119012   0.337   2.660   2.622 -0.9431  0.2379  1.2409
 4573WAT     H219013   0.394   2.784   2.607 -0.1809 -0.3031 -0.6532
 4573WAT    EPW19014   0.383   2.718   2.648 -0.3249  0.2351  0.2065
 4574WAT      O19015   2.262   0.094   6.211  0.2912  0.4314 -0.2042
 4574WAT     H119016   2.206   0.160   6.207 -0.9063 -0.5311  0.0989
 4574WAT     H219017   2.212   0.023   6.201  1.6255 -0.4257 -1.3079
 4574WAT    EPW19018   2.246   0.093   6.209  0.3114  0.1626 -0.3225
 4575WAT      O19019   2.078   5.199   2.149 -0.0341 -0.2866 -0.2954
 4575WAT     H119020   2.022   5.134   2.166  0.4640 -0.5572  0.3627
 4575WAT     H219021   2.060   5.221   2.066 -1.4767  0.0034  0.0775
 4575WAT    EPW19022   2.067   5.193   2.139 -0.1736 -0.2837 -0.1431
 4576WAT      O19023   4.702   0.556   2.268 -0.3615  0.5702 -0.5985
 4576WAT     H119024   4.712   0.504   2.198 -0.4838  0.0155 -0.2125
 4576WAT     H219025   4.710   0.636   2.235 -0.3857  0.3153 -1.2456
 4576WAT    EPW19026   4.704   0.560   2.253 -0.3831  0.4506 -0.6371
 4577WAT      O19027   5.292   3.707   4.256  0.2482  0.1233 -0.1821
 4577WAT     H119028   5.327   3.629   4.238  0.0263 -0.3443  1.2526
 4577WAT     H219029   5.206   3.693   4.245  0.2578  0.3454 -0.5364
 4577WAT    EPW19030   5.284   3.693   4.252  0.2169  0.0870 -0.0225
 4578WAT      O19031   1.255   0.142   5.235  0.0162  0.0573 -0.6844
 4578WAT     H119032   1.230   0.156   5.152  1.2060 -0.2967 -1.1210
 4578WAT     H219033   1.200   0.191   5.281 -1.6444 -0.8730 -1.5702
 4578WAT    EPW19034   1.243   0.151   5.229 -0.0534 -0.1324 -0.8798
 4579WAT      O19035   4.316   4.212   3.604 -0.2883 -0.5690 -0.5678
 4579WAT     H119036   4.282   4.223   3.525 -1.4394  1.2184  0.1200
 4579WAT     H219037   4.268   4.147   3.638 -0.9435 -0.1712 -0.7205
 4579WAT    EPW19038   4.304   4.204   3.598 -0.5552 -0.2462 -0.4888
 4580WAT      O19039   6.572   6.903   4.487  0.4454 -0.4131 -0.0834
 4580WAT     H119040   6.527   6.934   4.419 -2.2876 -1.5376  1.0600
 4580WAT     H219041   6.563   6.966   4.547  2.4728  0.3810 -0.5394
 4580WAT    EPW19042   6.564   6.917   4.486  0.3412 -0.4619  0.0181
 4581WAT      O19043   2.847   3.910   0.890  0.2574  0.0090  0.4657
 4581WAT     H119044   2.815   3.831   0.909  0.3810 -0.0750  0.3306
 4581WAT     H219045   2.825   3.958   0.959 -2.6991  0.7048 -0.8115
 4581WAT    EPW19046   2.839   3.905   0.903 -0.1611  0.0994  0.2571
 4582WAT      O19047   6.653   4.710   4.875 -0.0291  0.3797 -0.3308
 4582WAT     H119048   6.646   4.623   4.878  0.6803  0.2829 -1.1799
 4582WAT     H219049   6.739   4.724   4.878 -0.1579  1.1901  2.4904
 4582WAT    EPW19050   6.664   4.700   4.876  0.0567  0.4851 -0.0395
 4583WAT      O19051   5.189   0.076   4.409  0.2336  0.4626 -0.5577
 4583WAT     H119052   5.162   0.122   4.340  1.1017  1.5149 -0.2118
 4583WAT     H219053   5.260   0.035   4.379  0.2274  0.3836 -0.4657
 4583WAT    EPW19054   5.195   0.077   4.394  0.3609  0.6064 -0.4930
 4584WAT      O19055   3.557   2.687   2.674  0.0738 -0.8108 -0.3003
 4584WAT     H119056   3.569   2.617   2.725  0.5632 -0.3961  0.1657
 4584WAT     H219057   3.519   2.745   2.727  0.5864 -0.3767 -0.3975
 4584WAT    EPW19058   3.553   2.685   2.689  0.2218 -0.6854 -0.2458
 4585WAT      O19059   5.742   4.179   1.394  0.1987  0.5979 -0.2277
 4585WAT     H119060   5.815   4.136   1.372 -1.0220 -0.8220 -1.6945
 4585WAT     H219061   5.755   4.198   1.479  1.9269 -0.3095 -0.2410
 4585WAT    EPW19062   5.755   4.175   1.403  0.2736  0.2541 -0.4464
 4586WAT      O19063   3.331   4.131   0.319 -0.1230  0.0867  0.4075
 4586WAT     H119064   3.298   4.194   0.370 -0.4613 -0.2468  0.6085
 4586WAT     H219065   3.405   4.109   0.358 -0.3936 -0.1835  0.7747
 4586WAT    EPW19066   3.337   4.137   0.332 -0.2130 -0.0025  0.4914
 4587WAT      O19067   4.551   4.185   2.880 -0.4213 -0.6234 -0.1451
 4587WAT     H119068   4.472   4.158   2.905 -0.0628 -1.1883  0.3867
 4587WAT     H219069   4.581   4.119   2.831 -0.0018 -0.7160  0.2296
 4587WAT    EPW19070   4.544   4.171   2.877 -0.3064 -0.7205 -0.0112
 4588WAT      O19071   7.245   5.970   6.544  0.7173 -0.1419  0.2457
 4588WAT     H119072   7.295   6.010   6.485 -0.6480 -1.7005 -2.1367
 4588WAT     H219073   7.286   5.895   6.559  0.7660  0.0024  0.8845
 4588WAT    EPW19074   7.258   5.965   6.538  0.5228 -0.3508 -0.0119
 4589WAT      O19075   7.066   2.588   7.007 -0.2082  0.1870  0.3526
 4589WAT     H119076   6.994   2.563   7.049 -0.5665  0.4780 -0.0732
 4589WAT     H219077   7.089   2.662   7.048 -1.8845  1.7820 -1.3523
 4589WAT    EPW19078   7.059   2.595   7.019 -0.5088  0.4656  0.0378
 4590WAT      O19079   7.069   3.522   1.967  0.3149 -0.8000  0.2520
 4590WAT     H119080   7.102   3.584   1.915  0.1869 -0.2521  0.8055
 4590WAT     H219081   7.008   3.484   1.917 -0.9869  0.8339  0.5236
 4590WAT    EPW19082   7.065   3.526   1.952  0.1037 -0.4777  0.3739
 4591WAT      O19083   6.246   5.736   4.865 -0.2921  0.1522  0.2473
 4591WAT     H119084   6.248   5.801   4.923  2.0774 -0.3857  0.8686
 4591WAT     H219085   6.246   5.778   4.788  1.2229  0.9291  0.6305
 4591WAT    EPW19086   6.246   5.752   4.862  0.2817  0.1875  0.3957
 4592WAT      O19087   1.397   1.632   5.581 -0.1462 -0.2272 -0.5011
 4592WAT     H119088   1.337   1.693   5.563  0.6857  0.4432 -1.1203
 4592WAT     H219089   1.373   1.603   5.660  0.3928  2.1780  0.6628
 4592WAT    EPW19090   1.385   1.637   5.590  0.0563  0.2271 -0.4206
 4593WAT      O19091   1.701   0.885   1.663 -0.1088  0.5721  0.1805
 4593WAT     H119092   1.779   0.904   1.627 -0.5253  1.2932 -0.3632
 4593WAT     H219093   1.701   0.930   1.737 -0.5896  1.7842 -0.5185
 4593WAT    EPW19094   1.712   0.894   1.668 -0.2413  0.8577 -0.0031
 4594WAT      O19095   7.156   2.862   0.704 -0.0216 -0.8068 -0.3447
 4594WAT     H119096   7.209   2.931   0.706  1.0214 -1.5205 -1.2584
 4594WAT     H219097   7.180   2.816   0.775 -0.8096 -0.1751  0.3358
 4594WAT    EPW19098   7.168   2.865   0.715  0.0160 -0.8189 -0.3792
 4595WAT      O19099   1.766   2.334   5.436 -0.3455 -0.6262  0.0398
 4595WAT     H119100   1.692   2.330   5.390 -0.2746 -0.5261 -0.0880
 4595WAT     H219101   1.820   2.378   5.383 -0.2309 -0.5964  0.1795
 4595WAT    EPW19102   1.763   2.340   5.421 -0.3181 -0.6070  0.0416
 4596WAT      O19103   6.881   7.058   6.960  0.0714 -0.1327  0.2966
 4596WAT     H119104   6.915   7.081   7.038 -0.1535 -1.0425  0.6671
 4596WAT     H219105   6.925   7.108   6.904 -0.4635  1.2879  1.0838
 4596WAT    EPW19106   6.893   7.069   6.963 -0.0408 -0.0573  0.4676
 4597WAT      O19107   2.606   3.218   5.247  0.0043 -0.2767 -0.1937
 4597WAT     H119108   2.675   3.211   5.300  0.8364 -0.4061 -1.2542
 4597WAT     H219109   2.554   3.275   5.287  1.0426  0.3266  0.3157
 4597WAT    EPW19110   2.608   3.226   5.260  0.2806 -0.2067 -0.2751
 4598WAT      O19111   3.328   2.845   1.745  0.0532 -0.3683  0.3246
 4598WAT     H119112   3.349   2.763   1.723  1.8654  0.3625 -0.9051
 4598WAT     H219113   3.256   2.835   1.794 -0.5023 -2.5852 -0.8087
 4598WAT    EPW19114   3.320   2.831   1.749  0.2388 -0.5878 -0.0245
 4599WAT      O19115   0.330   3.532   2.251 -0.0930 -0.0836 -0.4699
 4599WAT     H119116   0.404   3.549   2.293 -1.0460 -0.3762  1.4481
 4599WAT     H219117   0.346   3.558   2.169  2.4978 -1.2320 -0.4142
 4599WAT    EPW19118   0.343   3.539   2.245  0.1489 -0.2965 -0.1784
 4600WAT      O19119   1.012   6.256   3.353 -0.1343  0.0095 -0.1261
 4600WAT     H119120   1.025   6.210   3.280 -0.2988  0.3732 -0.3871
 4600WAT     H219121   0.994   6.336   3.324 -0.5063  0.0866  0.3007
 4600WAT    EPW19122   1.011   6.261   3.338 -0.2135  0.0746 -0.1016
 4601WAT      O19123   1.199   0.716   1.297  0.0701  0.3415 -0.4277
 4601WAT     H119124   1.257   0.743   1.356  1.0699 -1.3568 -0.5658
 4601WAT     H219125   1.144   0.667   1.343  1.2417 -1.5482 -0.9443
 4601WAT    EPW19126   1.200   0.713   1.313  0.3909 -0.1885 -0.5244
 4602WAT      O19127   3.822   5.777   1.368  0.3972  0.4115  0.5486
 4602WAT     H119128   3.869   5.791   1.440 -0.2770  1.8420  0.7416
 4602WAT     H219129   3.872   5.810   1.304 -0.3668  2.1497  0.7805
 4602WAT    EPW19130   3.836   5.784   1.369  0.1848  0.8796  0.6114
 4603WAT      O19131   6.374   5.510   3.693  0.2608 -0.1924 -0.0361
 4603WAT     H119132   6.447   5.557   3.681 -0.2395  0.4704 -0.6103
 4603WAT     H219133   6.384   5.441   3.641  1.2908 -1.0989  1.3017
 4603WAT    EPW19134   6.386   5.507   3.683  0.3391 -0.2284  0.0767
 4604WAT      O19135   6.396   7.027   3.076  0.1385  0.3260 -0.2706
 4604WAT     H119136   6.415   7.090   3.017  0.7911 -0.6204 -1.1081
 4604WAT     H219137   6.309   7.025   3.077  0.1026 -0.2986 -1.9573
 4604WAT    EPW19138   6.386   7.036   3.067  0.2296  0.0939 -0.6435
 4605WAT      O19139   3.493   0.057   4.456  0.1781 -0.2563 -0.0844
 4605WAT     H119140   3.489   0.048   4.543 -1.8670 -2.3750 -0.2771
 4605WAT     H219141   3.537  -0.014   4.431 -2.9762 -2.0953 -0.9186
 4605WAT    EPW19142   3.499   0.045   4.465 -0.5899 -0.8409 -0.2361
 4606WAT      O19143   3.991   3.819   0.755 -0.2054  0.5111  0.0268
 4606WAT     H119144   3.992   3.732   0.748 -0.8083  0.4009  1.0655
 4606WAT     H219145   3.927   3.842   0.701 -3.0494 -0.1087  2.7615
 4606WAT    EPW19146   3.981   3.809   0.746 -0.7146  0.4033  0.5842
 4607WAT      O19147   4.295   7.086   6.237 -0.1852 -0.4690 -0.0386
 4607WAT     H119148   4.381   7.083   6.253  0.0322  1.8251 -0.3784
 4607WAT     H219149   4.288   7.153   6.181 -2.2570 -0.2617  0.4193
 4607WAT    EPW19150   4.307   7.096   6.231 -0.4591 -0.0995 -0.0211
 4608WAT      O19151   0.058   3.649   3.188  0.6126 -0.4487  0.5696
 4608WAT     H119152   0.046   3.691   3.263  0.9069  0.2682  0.2251
 4608WAT     H219153   0.031   3.567   3.205  0.6017 -0.2725  1.4207
 4608WAT    EPW19154   0.052   3.643   3.202  0.6545 -0.3168  0.6444
 4609WAT      O19155   3.160   0.672   5.505  0.0727  0.3299  0.4929
 4609WAT     H119156   3.095   0.729   5.495  1.2236  1.7466  0.6864
 4609WAT     H219157   3.191   0.690   5.585  1.4389  0.5302 -0.0447
 4609WAT    EPW19158   3.155   0.683   5.516  0.4445  0.5688  0.4421
 4610WAT      O19159   1.910   6.520   4.051  0.6009 -0.1300 -0.8972
 4610WAT     H119160   1.831   6.554   4.067  0.6358 -0.1258 -0.7279
 4610WAT     H219161   1.892   6.440   4.022  0.5602 -0.8732  0.9809
 4610WAT    EPW19162   1.896   6.513   4.049  0.6000 -0.2391 -0.5948
 4611WAT      O19163   6.477   2.363   6.785  0.1815 -0.3441 -0.0946
 4611WAT     H119164   6.476   2.345   6.700 -0.0245 -2.4880  0.3064
 4611WAT     H219165   6.464   2.449   6.788  0.6341 -0.1492 -2.2299
 4611WAT    EPW19166   6.475   2.373   6.773  0.2179 -0.6320 -0.3508
 4612WAT      O19167   4.012   1.196   4.074 -0.1623 -0.0879 -0.2291
 4612WAT     H119168   3.926   1.181   4.079 -0.4285  1.3183 -0.2093
 4612WAT     H219169   4.032   1.225   4.153 -0.4823  3.3163 -1.2653
 4612WAT    EPW19170   4.002   1.198   4.086 -0.2489  0.6227 -0.3793
 4613WAT      O19171   1.782   0.644   6.536 -0.8914 -0.0333  0.2771
 4613WAT     H119172   1.774   0.558   6.519  0.9221 -0.0535 -0.7507
 4613WAT     H219173   1.863   0.662   6.509 -0.5344  1.6156  2.2429
 4613WAT    EPW19174   1.793   0.634   6.529 -0.5708  0.2073  0.4157
 4614WAT      O19175   5.753   5.021   5.255 -0.4387  0.4218 -0.4785
 4614WAT     H119176   5.699   5.072   5.302  1.9511  1.8830  0.8619
 4614WAT     H219177   5.814   5.077   5.228  1.6388 -1.5119 -0.0007
 4614WAT    EPW19178   5.754   5.037   5.258  0.2212  0.3520 -0.2099
 4615WAT      O19179   1.366   1.929   4.380  0.6889  0.2447  0.4999
 4615WAT     H119180   1.348   1.870   4.318  0.7036  1.2652 -0.5131
 4615WAT     H219181   1.290   1.942   4.420 -0.7812  3.5233 -2.8489
 4615WAT    EPW19182   1.352   1.922   4.377  0.4739  0.8798 -0.1444
 4616WAT      O19183   3.294   5.985   4.150  0.4085 -0.3375 -1.0294
 4616WAT     H119184   3.248   5.917   4.119 -1.5955  0.8379 -0.8013
 4616WAT     H219185   3.233   6.038   4.182  2.0000  1.1174 -0.2499
 4616WAT    EPW19186   3.278   5.983   4.150  0.3476  0.0511 -0.8806
 4617WAT      O19187   2.970   2.701   3.586 -0.0743 -0.6094  0.2842
 4617WAT     H119188   3.045   2.661   3.606  0.4233 -0.6605 -1.5079
 4617WAT     H219189   2.965   2.766   3.644  1.0130 -1.0044  0.8461
 4617WAT    EPW19190   2.980   2.705   3.597  0.1598 -0.6753  0.1024
 4618WAT      O19191   2.611   3.257   6.771 -0.2142 -0.1325 -0.0809
 4618WAT     H119192   2.612   3.202   6.704 -0.6326 -1.6862  1.1131
 4618WAT     H219193   2.689   3.295   6.769  1.7501 -3.6461  1.2398
 4618WAT    EPW19194   2.623   3.255   6.761  0.0142 -0.8811  0.2905
 4619WAT      O19195   0.806   6.508   5.490  0.1258  0.8560  0.4506
 4619WAT     H119196   0.773   6.448   5.437  2.1390 -0.7095  0.8615
 4619WAT     H219197   0.861   6.553   5.439  0.5467  0.6596  0.7214
 4619WAT    EPW19198   0.810   6.506   5.475  0.4854  0.5958  0.5513
 4620WAT      O19199   4.513   1.781   5.150 -0.9110 -0.2748  0.9555
 4620WAT     H119200   4.465   1.727   5.101 -0.8221  0.5252 -0.0368
 4620WAT     H219201   4.496   1.860   5.116  1.5190 -0.0054  0.1811
 4620WAT    EPW19202   4.503   1.785   5.138 -0.5389 -0.1169  0.6945
 4621WAT      O19203   2.032   4.360   6.338 -0.4323 -0.2188  0.6429
 4621WAT     H119204   1.969   4.404   6.380 -0.9258 -0.4930  0.1915
 4621WAT     H219205   2.085   4.423   6.310 -1.8922  0.2596 -1.2805
 4621WAT    EPW19206   2.030   4.376   6.340 -0.7208 -0.1886  0.2921
 4622WAT      O19207   6.458   2.663   3.152  0.0768 -0.4494 -0.1013
 4622WAT     H119208   6.446   2.692   3.070  2.9466  2.0413  0.1949
 4622WAT     H219209   6.442   2.577   3.145 -3.6059  0.1765 -2.3063
 4622WAT    EPW19210   6.454   2.655   3.139 -0.0433  0.0110 -0.3833
 4623WAT      O19211   5.800   1.690   5.947 -0.0258  0.1783  0.1059
 4623WAT     H119212   5.852   1.621   5.939 -0.3708  0.0363 -1.1094
 4623WAT     H219213   5.849   1.756   5.918  0.8566  0.7692  2.6886
 4623WAT    EPW19214   5.815   1.690   5.942  0.0536  0.2446  0.3079
 4624WAT      O19215   4.520   0.136   2.203 -0.5307  0.0382 -0.1743
 4624WAT     H119216   4.564   0.149   2.129  0.7846  0.3574  0.6388
 4624WAT     H219217   4.452   0.087   2.178 -0.2037  0.2693 -1.6074
 4624WAT    EPW19218   4.517   0.131   2.189 -0.2881  0.1195 -0.2659
 4625WAT      O19219   2.462   1.235   3.815  0.8415  0.3597  0.5593
 4625WAT     H119220   2.484   1.230   3.730 -1.4134  0.9556 -0.1359
 4625WAT     H219221   2.483   1.156   3.846  3.4001  0.7202 -0.0538
 4625WAT    EPW19222   2.468   1.222   3.807  0.8864  0.5009  0.3660
 4626WAT      O19223   2.453   5.988   4.061  0.2200  0.3737  0.5958
 4626WAT     H119224   2.373   6.022   4.050 -0.1783 -0.8536 -0.4838
 4626WAT     H219225   2.456   5.971   4.147 -0.5302  0.7692  0.7114
 4626WAT    EPW19226   2.442   5.991   4.072  0.0503  0.2508  0.4534
 4627WAT      O19227   6.733   6.130   0.448  0.3760  0.4328  0.2825
 4627WAT     H119228   6.814   6.143   0.477 -0.4046  1.3794  2.2143
 4627WAT     H219229   6.709   6.056   0.488  0.3600 -0.0262 -0.5402
 4627WAT    EPW19230   6.741   6.121   0.458  0.2583  0.5048  0.4463
 4628WAT      O19231   5.809   3.114   0.747 -0.2120 -0.2931 -0.1668
 4628WAT     H119232   5.884   3.158   0.751 -0.5139  0.1308  1.3104
 4628WAT     H219233   5.784   3.107   0.831 -1.2794 -1.3695 -0.5380
 4628WAT    EPW19234   5.816   3.119   0.760 -0.4143 -0.3895 -0.0034
 4629WAT      O19235   0.066   1.754   3.591  0.1651 -0.1073 -0.1129
 4629WAT     H119236   0.127   1.812   3.572 -0.3728  0.4806 -0.0691
 4629WAT     H219237   0.087   1.727   3.671 -1.1078  2.0625  1.0245
 4629WAT    EPW19238   0.078   1.758   3.600 -0.1024  0.3001  0.0616
 4630WAT      O19239   2.802   6.086   3.149  0.1561 -0.0980 -0.1610
 4630WAT     H119240   2.817   6.082   3.063 -0.3791  0.9242 -0.3145
 4630WAT     H219241   2.879   6.063   3.184  0.7863  0.8084 -0.9103
 4630WAT    EPW19242   2.816   6.082   3.142  0.1701  0.1869 -0.2943
 4631WAT      O19243   6.060   6.729   2.845 -0.2085  0.8270  0.7763
 4631WAT     H119244   5.995   6.785   2.861 -1.1820  0.0702 -0.3987
 4631WAT     H219245   6.121   6.779   2.808 -1.1510  1.1139 -0.4777
 4631WAT    EPW19246   6.059   6.745   2.842 -0.4915  0.7576  0.4175
 4632WAT      O19247   5.737   0.593   5.173 -0.4627 -0.2343 -0.5411
 4632WAT     H119248   5.729   0.510   5.198 -1.4037  0.2436  0.8777
 4632WAT     H219249   5.671   0.633   5.214  1.5576  1.6912  1.0877
 4632WAT    EPW19250   5.726   0.587   5.183 -0.3032  0.1207 -0.0909
 4633WAT      O19251   4.651   6.017   2.300 -0.2001 -0.2324 -0.8818
 4633WAT     H119252   4.578   6.056   2.328  0.1128 -0.4518  0.3144
 4633WAT     H219253   4.714   6.061   2.341  0.5380  1.1617 -3.2723
 4633WAT    EPW19254   4.650   6.030   2.310 -0.0448 -0.0589 -1.0582
 4634WAT      O19255   4.961   3.378   3.847 -0.3955  0.0829  0.0636
 4634WAT     H119256   5.042   3.361   3.822 -0.2414  2.0929 -1.0210
 4634WAT     H219257   4.912   3.349   3.781 -0.4479  0.0551  0.1143
 4634WAT    EPW19258   4.966   3.371   3.833 -0.3805  0.3757 -0.0891
 4635WAT      O19259   0.043   6.991   6.474  0.3303 -0.1960  0.1349
 4635WAT     H119260   0.000   7.062   6.446  2.3756  1.1794  0.3456
 4635WAT     H219261   0.099   6.974   6.409  0.8276 -0.7788  0.7016
 4635WAT    EPW19262   0.045   6.999   6.460  0.7059 -0.0789  0.2497
 4636WAT      O19263   0.575   4.400   1.231  0.1408 -0.2125  0.4036
 4636WAT     H119264   0.521   4.446   1.282 -1.8418 -1.5266 -0.3947
 4636WAT     H219265   0.605   4.460   1.175 -1.9350  0.3075 -0.2646
 4636WAT    EPW19266   0.571   4.416   1.230 -0.4587 -0.3298  0.1870
 4637WAT      O19267   3.117   5.828   5.108 -0.1141 -0.0311  0.0241
 4637WAT     H119268   3.198   5.821   5.077  0.1080  0.8770  0.3734
 4637WAT     H219269   3.109   5.761   5.162  0.7536  0.4184  0.7260
 4637WAT    EPW19270   3.127   5.817   5.111  0.0469  0.1694  0.1794
 4638WAT      O19271   5.380   2.603   6.866 -0.0598 -0.1483 -0.3765
 4638WAT     H119272   5.393   2.686   6.842 -0.2082  0.1301  0.4750
 4638WAT     H219273   5.423   2.597   6.942 -0.9319 -0.5490  0.0970
 4638WAT    EPW19274   5.388   2.614   6.873 -0.2105 -0.1664 -0.1808
 4639WAT      O19275   5.913   5.021   2.902  1.3289  0.5143 -0.4682
 4639WAT     H119276   5.983   5.006   2.951 -0.4949 -2.4326  1.5481
 4639WAT     H219277   5.847   4.997   2.953 -1.2131  2.9245 -2.3395
 4639WAT    EPW19278   5.914   5.015   2.917  0.6840  0.4350 -0.4468
 4640WAT      O19279   7.070   3.412   0.032  0.1416  0.1398  0.3844
 4640WAT     H119280   7.033   3.393  -0.045 -0.5329 -2.4964  1.2609
 4640WAT     H219281   7.053   3.497   0.042 -3.6009 -0.3229 -0.4113
 4640WAT    EPW19282   7.062   3.422   0.022 -0.5108 -0.3180  0.3963
 4641WAT      O19283   1.644   1.902   5.021 -0.8879 -0.3989  0.3998
 4641WAT     H119284   1.650   1.958   5.088 -2.1237 -0.4930  0.6259
 4641WAT     H219285   1.574   1.931   4.977  0.0622 -0.1830 -1.0227
 4641WAT    EPW19286   1.635   1.915   5.025 -0.9301 -0.3809  0.2230
 4642WAT      O19287   4.752   6.928   4.016  0.1481  0.1168  0.2366
 4642WAT     H119288   4.754   7.015   4.009  1.9421  0.2069  1.3566
 4642WAT     H219289   4.692   6.914   4.077 -1.3854  0.4195 -1.1243
 4642WAT    EPW19290   4.743   6.939   4.024  0.1866  0.1748  0.2010
 4643WAT      O19291   3.618   0.901   3.638  0.9100  0.6941  0.2361
 4643WAT     H119292   3.647   0.952   3.574  2.0694  0.9943  0.9813
 4643WAT     H219293   3.667   0.923   3.707 -0.0178  0.0795  1.1292
 4643WAT    EPW19294   3.629   0.912   3.639  0.9442  0.6477  0.4781
 4644WAT      O19295   6.518   2.899   3.980  0.0498 -0.4682 -0.3387
 4644WAT     H119296   6.456   2.901   3.919 -1.1419  1.0457  0.8262
 4644WAT     H219297   6.489   2.841   4.038 -0.8467  0.9365  0.6904
 4644WAT    EPW19298   6.505   2.891   3.980 -0.2586 -0.0370 -0.0146
 4645WAT      O19299   6.361   5.140   0.762 -0.0176  0.1153 -0.4273
 4645WAT     H119300   6.402   5.204   0.719  1.1076 -1.0436 -1.1468
 4645WAT     H219301   6.302   5.110   0.705 -0.3308  0.3022 -0.2043
 4645WAT    EPW19302   6.358   5.145   0.747  0.1023 -0.0283 -0.5006
 4646WAT      O19303   1.120   1.025   0.694 -0.4312 -0.4356 -0.5464
 4646WAT     H119304   1.157   1.048   0.770  0.8273  1.3118 -1.6064
 4646WAT     H219305   1.050   0.980   0.719 -0.6269  0.9254  1.6846
 4646WAT    EPW19306   1.115   1.022   0.709 -0.2742  0.0236 -0.3734
 4647WAT      O19307   5.199   2.325   5.955  0.3740  0.8691  0.4420
 4647WAT     H119308   5.217   2.346   5.873  2.5794 -0.5895  0.4873
 4647WAT     H219309   5.173   2.242   5.950 -1.2160  1.2714  1.0780
 4647WAT    EPW19310   5.198   2.316   5.942  0.4649  0.7131  0.5427
 4648WAT      O19311   2.643   2.104   4.267  0.2778 -0.1892  0.1966
 4648WAT     H119312   2.615   2.021   4.267  1.7665 -0.7430  1.2854
 4648WAT     H219313   2.659   2.119   4.182 -0.6462 -0.7690 -0.1006
 4648WAT    EPW19314   2.641   2.094   4.254  0.3612 -0.3566  0.3135
 4649WAT      O19315   6.636   6.300   2.623 -0.4826 -0.5233  0.1738
 4649WAT     H119316   6.580   6.342   2.571  0.0422  0.6658  0.5329
 4649WAT     H219317   6.608   6.319   2.703 -0.7944 -1.6498  0.3351
 4649WAT    EPW19318   6.624   6.309   2.627 -0.4511 -0.5141  0.2507
 4650WAT      O19319   1.927   0.841   1.958 -0.0835  0.2679 -0.5539
 4650WAT     H119320   2.004   0.859   1.995 -0.8267 -2.1847  2.6725
 4650WAT     H219321   1.884   0.917   1.963  0.5760  0.5998  2.0961
 4650WAT    EPW19322   1.932   0.855   1.964 -0.0958 -0.0454  0.3142
 4651WAT      O19323   1.902   4.107   1.929 -0.8347  0.3277  0.5411
 4651WAT     H119324   1.873   4.174   1.881  1.1741 -0.2965 -1.7354
 4651WAT     H219325   1.829   4.060   1.943 -1.6684  0.9871 -1.2363
 4651WAT    EPW19326   1.887   4.110   1.924 -0.6611  0.3329 -0.0578
 4652WAT      O19327   4.913   6.660   6.491  0.2132  0.1214 -0.2432
 4652WAT     H119328   4.868   6.643   6.564  0.0396 -2.1237 -0.8096
 4652WAT     H219329   4.982   6.705   6.520  0.1286 -0.6761  1.3030
 4652WAT    EPW19330   4.917   6.664   6.506  0.1751 -0.3281 -0.0984
 4653WAT      O19331   4.971   0.365   3.439 -0.0767  0.0679  0.0974
 4653WAT     H119332   4.940   0.392   3.516 -0.7873  0.0250 -0.1608
 4653WAT     H219333   5.053   0.394   3.438 -0.9344  2.7213 -0.3971
 4653WAT    EPW19334   4.978   0.373   3.450 -0.3084  0.4535 -0.0138
 4654WAT      O19335   0.381   4.202   7.036  0.2423 -0.6556  0.3842
 4654WAT     H119336   0.461   4.216   7.004 -0.4205  1.2821 -0.5385
 4654WAT     H219337   0.391   4.212   7.122  0.8496  0.3763  0.2022
 4654WAT    EPW19338   0.394   4.205   7.044  0.2341 -0.2169  0.2210
 4655WAT      O19339   4.034   4.732   0.855 -0.6763  0.0163 -0.0030
 4655WAT     H119340   4.052   4.803   0.808  1.7087  0.6218  1.6682
 4655WAT     H219341   4.003   4.764   0.930  0.3236 -0.6488  0.7225
 4655WAT    EPW19342   4.032   4.747   0.859 -0.1762  0.0075  0.3511
 4656WAT      O19343   6.980   3.860   2.558  0.0632  0.9202 -0.0074
 4656WAT     H119344   7.042   3.851   2.498 -0.5140  0.7156 -0.5898
 4656WAT     H219345   6.920   3.909   2.518 -0.7615 -0.0108  0.0452
 4656WAT    EPW19346   6.980   3.866   2.543 -0.1439  0.7524 -0.0857
 4657WAT      O19347   1.621   5.165   4.132  0.2263 -0.0347 -0.3107
 4657WAT     H119348   1.576   5.131   4.199 -0.3769 -2.0123 -1.6389
 4657WAT     H219349   1.703   5.142   4.149 -0.1455 -2.1726 -1.0920
 4657WAT    EPW19350   1.626   5.157   4.145  0.0823 -0.6427 -0.6223
 4658WAT      O19351   5.800   4.353   6.744 -0.1607 -0.1998 -0.0705
 4658WAT     H119352   5.792   4.440   6.739 -0.8245 -0.2960 -0.9348
 4658WAT     H219353   5.853   4.341   6.812 -0.1557  0.8789  0.1309
 4658WAT    EPW19354   5.806   4.364   6.753 -0.2580 -0.0547 -0.1684
 4659WAT      O19355   0.476   3.198   2.879  0.4557 -0.1950 -0.9560
 4659WAT     H119356   0.420   3.259   2.904 -0.4161 -0.9075 -1.0834
 4659WAT     H219357   0.430   3.124   2.888  1.7116 -0.9015 -0.1208
 4659WAT    EPW19358   0.461   3.196   2.884  0.5125 -0.4046 -0.8514
 4660WAT      O19359   5.734   3.437   2.140 -0.2210  0.1618 -0.4032
 4660WAT     H119360   5.739   3.508   2.189  0.9071  0.4653 -0.9250
 4660WAT     H219361   5.781   3.378   2.184  0.2469  0.2441 -0.7825
 4660WAT    EPW19362   5.741   3.438   2.153  0.0147  0.2188 -0.5363
 4661WAT      O19363   1.235   3.099   4.463  0.1164 -0.5730  1.0297
 4661WAT     H119364   1.317   3.071   4.468  1.5262  3.0495  1.4101
 4661WAT     H219365   1.226   3.150   4.533 -2.2735 -0.3630  0.6788
 4661WAT    EPW19366   1.245   3.102   4.474 -0.0283 -0.0068  1.0340
 4662WAT      O19367   4.795   6.478   3.047 -0.4827  0.1273 -0.4998
 4662WAT     H119368   4.821   6.479   2.963  0.5746 -0.9466 -0.2157
 4662WAT     H219369   4.719   6.520   3.045 -1.0170 -0.7939 -2.2108
 4662WAT    EPW19370   4.788   6.484   3.034 -0.4055 -0.1674 -0.7106
 4663WAT      O19371   3.952   3.414   0.091  0.5934  0.4157 -0.6373
 4663WAT     H119372   4.004   3.449   0.030  1.3989 -1.1938 -0.9326
 4663WAT     H219373   4.008   3.387   0.152 -0.1185  0.9295  0.2709
 4663WAT    EPW19374   3.968   3.415   0.091  0.6072  0.2538 -0.5467
 4664WAT      O19375   6.735   0.735   3.563  0.3528  0.5597 -0.4176
 4664WAT     H119376   6.787   0.785   3.612 -0.6640  0.6153  0.6488
 4664WAT     H219377   6.784   0.666   3.544  1.2595  1.2368 -0.6038
 4664WAT    EPW19378   6.750   0.733   3.567  0.3366  0.6680 -0.2876
 4665WAT      O19379   2.832   7.200   5.224  0.1765 -0.7298 -0.4891
 4665WAT     H119380   2.919   7.207   5.222  0.1769 -0.5712  0.0264
 4665WAT     H219381   2.810   7.196   5.139  0.5969  0.2553 -0.6497
 4665WAT    EPW19382   2.842   7.200   5.211  0.2387 -0.5609 -0.4367
 4666WAT      O19383   3.997   1.990   5.154 -0.2714  0.4095 -0.2959
 4666WAT     H119384   4.040   1.965   5.226  2.3647  0.1518 -1.8541
 4666WAT     H219385   3.966   2.069   5.175  0.5149  0.3874  1.0737
 4666WAT    EPW19386   3.999   1.998   5.168  0.2341  0.3682 -0.3238
 4667WAT      O19387   6.281   4.973   5.602  0.2926 -0.6961 -0.0539
 4667WAT     H119388   6.291   5.017   5.677 -1.5581 -0.2052 -0.0393
 4667WAT     H219389   6.277   4.890   5.628 -0.2345 -0.5360  0.3912
 4667WAT    EPW19390   6.282   4.967   5.617 -0.0586 -0.6000  0.0140
 4668WAT      O19391   4.905   0.501   1.335  0.8039 -0.1949 -0.8730
 4668WAT     H119392   4.872   0.580   1.352  0.3747 -0.6548  0.6083
 4668WAT     H219393   4.939   0.476   1.412 -0.5844 -2.1347 -0.8254
 4668WAT    EPW19394   4.905   0.509   1.349  0.5355 -0.5494 -0.6472
 4669WAT      O19395   3.798   1.547   6.848 -0.3595 -0.4540  0.4222
 4669WAT     H119396   3.793   1.586   6.771 -0.7034 -1.3527 -0.0214
 4669WAT     H219397   3.845   1.475   6.832  0.0679 -0.3583  1.1729
 4669WAT    EPW19398   3.804   1.542   6.834 -0.3471 -0.5726  0.4675
 4670WAT      O19399   0.152   1.803   4.376 -0.2132 -0.1196  0.2580
 4670WAT     H119400   0.211   1.853   4.416 -1.0645  0.9074  0.2952
 4670WAT     H219401   0.198   1.735   4.347  0.9331  0.5329  0.4875
 4670WAT    EPW19402   0.167   1.800   4.378 -0.1696  0.1285  0.2974
 4671WAT      O19403   2.709   6.490   2.116  0.0453 -0.2640 -0.3361
 4671WAT     H119404   2.750   6.541   2.058 -1.8939  1.6716 -0.1304
 4671WAT     H219405   2.627   6.489   2.088 -0.4000 -1.4989  0.9183
 4671WAT    EPW19406   2.703   6.497   2.103 -0.3070 -0.1605 -0.1204
 4672WAT      O19407   2.178   5.305   0.473 -0.5973  0.1991  0.2139
 4672WAT     H119408   2.210   5.226   0.456 -2.0839 -0.1087 -1.4932
 4672WAT     H219409   2.211   5.324   0.551  2.4174 -0.6872 -0.6936
 4672WAT    EPW19410   2.187   5.296   0.482 -0.3716  0.0227 -0.1723
 4673WAT      O19411   2.622   3.655   4.285 -0.2386  0.0790  0.5565
 4673WAT     H119412   2.662   3.733   4.284  0.2413 -0.1560  1.0470
 4673WAT     H219413   2.538   3.676   4.273 -0.1415  0.6918  0.8583
 4673WAT    EPW19414   2.616   3.670   4.283 -0.1534  0.1348  0.6736
 4674WAT      O19415   1.873   3.389   2.120  0.0258 -0.4890 -0.3198
 4674WAT     H119416   1.894   3.339   2.052  1.9291  0.0554 -0.1807
 4674WAT     H219417   1.875   3.470   2.087 -1.7679 -0.3654 -0.2366
 4674WAT    EPW19418   1.876   3.394   2.105  0.0420 -0.3903 -0.2870
 4675WAT      O19419   0.291   3.093   0.297  0.2460  0.8490 -0.0804
 4675WAT     H119420   0.299   3.101   0.210 -0.9649  1.4373 -0.1687
 4675WAT     H219421   0.343   3.156   0.328  2.9935 -1.2048 -0.2309
 4675WAT    EPW19422   0.300   3.104   0.288  0.4730  0.6325 -0.1157
 4676WAT      O19423   5.314   3.313   6.533  0.1175 -0.7539  0.1337
 4676WAT     H119424   5.275   3.311   6.611  0.4243 -0.3273  0.2963
 4676WAT     H219425   5.399   3.311   6.551  0.2339  0.9016 -0.1236
 4676WAT    EPW19426   5.321   3.312   6.547  0.1800 -0.4463  0.1197
 4677WAT      O19427   5.220   6.159   4.087  0.0193  0.2597  0.2204
 4677WAT     H119428   5.287   6.161   4.031 -1.1609  0.0867 -1.2666
 4677WAT     H219429   5.255   6.127   4.161  1.4737 -0.1887 -0.6319
 4677WAT    EPW19430   5.235   6.154   4.090  0.0598  0.1679 -0.1251
 4678WAT      O19431   6.020   4.115   3.668 -0.6028  0.3519 -0.5211
 4678WAT     H119432   6.102   4.088   3.677 -0.4108  0.8520 -0.7996
 4678WAT     H219433   5.983   4.052   3.621 -0.6852 -0.4609  0.5843
 4678WAT    EPW19434   6.026   4.102   3.663 -0.5866  0.3057 -0.3990
 4679WAT      O19435   6.895   4.440   1.577 -0.3038 -0.0833  0.8656
 4679WAT     H119436   6.977   4.469   1.586  0.0619 -0.9762  0.6068
 4679WAT     H219437   6.888   4.383   1.643 -0.6964 -0.0533  0.8473
 4679WAT    EPW19438   6.906   4.436   1.588 -0.3077 -0.2108  0.8247
 4680WAT      O19439   4.550   6.484   6.705 -0.3735  0.3386 -0.4359
 4680WAT     H119440   4.614   6.540   6.722 -0.4451  0.2688  0.0927
 4680WAT     H219441   4.482   6.517   6.750 -0.5631  0.1274 -0.5649
 4680WAT    EPW19442   4.549   6.497   6.715 -0.4120  0.2971 -0.3769
 4681WAT      O19443   6.599   0.145   5.665  0.6776  0.1631 -0.3409
 4681WAT     H119444   6.606   0.176   5.746  0.8623  1.3485 -0.7883
 4681WAT     H219445   6.578   0.061   5.676  0.9969  0.2366  0.9288
 4681WAT    EPW19446   6.597   0.137   5.678  0.7520  0.3491 -0.2194
 4682WAT      O19447   1.585   5.253   4.542  0.3623 -0.5251  0.0994
 4682WAT     H119448   1.526   5.301   4.585  0.5615  0.2276 -0.4506
 4682WAT     H219449   1.536   5.197   4.497  0.0025  0.4942 -0.8402
 4682WAT    EPW19450   1.569   5.252   4.542  0.3385 -0.2634 -0.1206
 4683WAT      O19451   5.524   1.626   5.506 -0.6008 -0.8617 -0.0876
 4683WAT     H119452   5.450   1.582   5.521 -0.3388 -1.6715 -1.1088
 4683WAT     H219453   5.522   1.690   5.565 -3.2055  0.5044 -1.5192
 4683WAT    EPW19454   5.513   1.629   5.517 -0.9468 -0.7796 -0.4499
 4684WAT      O19455   0.470   1.130   4.769  0.0012  0.1110  0.3188
 4684WAT     H119456   0.470   1.119   4.683 -0.3575 -0.7281  0.4162
 4684WAT     H219457   0.407   1.190   4.781  0.7781  1.0311 -0.0759
 4684WAT    EPW19458   0.461   1.138   4.758  0.0629  0.1229  0.2749
 4685WAT      O19459   3.692   3.676   5.797  0.4838  0.0383 -0.5501
 4685WAT     H119460   3.636   3.624   5.754  1.6412 -1.7194 -0.0502
 4685WAT     H219461   3.707   3.633   5.871 -0.0208  2.1011  0.8327
 4685WAT    EPW19462   3.686   3.662   5.801  0.5803  0.0834 -0.2720
 4686WAT      O19463   0.964   7.172   7.177 -0.1355  0.4945  0.1234
 4686WAT     H119464   0.952   7.134   7.255  1.8438 -2.0569 -0.6695
 4686WAT     H219465   0.995   7.251   7.197 -0.5934  0.2556  1.9108
 4686WAT    EPW19466   0.967   7.178   7.192  0.0892  0.0823  0.2703
 4687WAT      O19467   7.202   6.186   4.613  0.2792  0.0436  0.1851
 4687WAT     H119468   7.180   6.243   4.552 -2.1082 -0.2180  0.7167
 4687WAT     H219469   7.269   6.143   4.578  2.1146  3.0138 -0.2739
 4687WAT    EPW19470   7.209   6.188   4.599  0.1977  0.4438  0.1958
 4688WAT      O19471   0.206   7.055   5.052 -0.8406  0.3695  0.4933
 4688WAT     H119472   0.131   7.016   5.030  0.2820 -1.5747 -0.0774
 4688WAT     H219473   0.182   7.137   5.070 -2.8176  0.3653 -1.6702
 4688WAT    EPW19474   0.192   7.062   5.052 -0.9668  0.0817  0.0894
 4689WAT      O19475   7.081   1.473   3.334 -0.6266  0.1078 -0.2602
 4689WAT     H119476   7.079   1.386   3.332 -1.2383  0.1223 -1.2065
 4689WAT     H219477   7.006   1.495   3.295  0.4069  1.0535 -1.7898
 4689WAT    EPW19478   7.069   1.463   3.328 -0.5643  0.2496 -0.6260
 4690WAT      O19479   4.792   6.443   2.397  0.1189  0.2238 -0.0679
 4690WAT     H119480   4.754   6.480   2.328  0.2502  0.6863  0.1051
 4690WAT     H219481   4.742   6.466   2.464  0.3366  0.2958  0.0729
 4690WAT    EPW19482   4.779   6.452   2.397  0.1704  0.3027 -0.0215
 4691WAT      O19483   4.573   4.944   2.283 -0.8077 -0.1201  0.3532
 4691WAT     H119484   4.495   4.911   2.266 -1.3037  1.5826 -1.0623
 4691WAT     H219485   4.566   4.975   2.364 -0.5865 -2.5488  1.3786
 4691WAT    EPW19486   4.561   4.944   2.293 -0.8483 -0.2273  0.2956
 4692WAT      O19487   5.005   3.514   6.586 -0.1160  0.7356 -0.5334
 4692WAT     H119488   4.930   3.474   6.566  0.1007 -0.1968  0.4145
 4692WAT     H219489   5.054   3.450   6.619  1.3462  1.1866 -1.7074
 4692WAT    EPW19490   5.001   3.498   6.588  0.1320  0.6645 -0.5668
 4693WAT      O19491   1.407   5.054   5.201  0.0041 -0.3523  0.3020
 4693WAT     H119492   1.489   5.026   5.199  0.2206  0.2800  0.3453
 4693WAT     H219493   1.398   5.085   5.282 -0.7641 -1.8463  0.8400
 4693WAT    EPW19494   1.418   5.054   5.213 -0.0774 -0.4796  0.3879
 4694WAT      O19495   5.232   5.301   1.005 -0.1457 -0.1523  0.2028
 4694WAT     H119496   5.196   5.366   0.958  1.5619 -0.6090 -1.9364
 4694WAT     H219497   5.261   5.246   0.944  1.1019 -1.4495  1.8781
 4694WAT    EPW19498   5.231   5.303   0.989  0.2908 -0.4114  0.1343
 4695WAT      O19499   1.243   4.118   2.911 -0.2958 -0.1317 -0.0111
 4695WAT     H119500   1.212   4.145   2.834  0.1065  2.0294  0.5147
 4695WAT     H219501   1.173   4.082   2.949 -1.3912  1.7989 -0.0968
 4695WAT    EPW19502   1.228   4.116   2.905 -0.3982  0.4727  0.0539
 4696WAT      O19503   5.942   6.712   1.865  0.0862  0.0673  0.4817
 4696WAT     H119504   5.903   6.692   1.941 -0.8178  2.4165  0.7131
 4696WAT     H219505   6.026   6.723   1.888 -0.1977  0.8730  1.1917
 4696WAT    EPW19506   5.949   6.710   1.880 -0.0893  0.5334  0.6208
 4697WAT      O19507   4.847   5.371   6.270 -0.0235 -0.1003  0.6171
 4697WAT     H119508   4.781   5.340   6.317  1.1444 -1.2094  1.6180
 4697WAT     H219509   4.918   5.345   6.315  1.0988  0.5857 -0.6815
 4697WAT    EPW19510   4.848   5.363   6.284  0.3148 -0.1628  0.5731
 4698WAT      O19511   1.557   5.145   2.039  0.1563 -0.4203 -0.5769
 4698WAT     H119512   1.629   5.174   2.001 -0.2329  0.4273 -0.7065
 4698WAT     H219513   1.527   5.215   2.082 -0.8256 -0.6144 -0.9012
 4698WAT    EPW19514   1.563   5.159   2.040 -0.0463 -0.3238 -0.6440
 4699WAT      O19515   2.511   5.197   5.957  0.0555  0.0389  0.3991
 4699WAT     H119516   2.525   5.148   5.887  1.4839 -1.2098  1.5071
 4699WAT     H219517   2.589   5.233   5.973 -0.0420 -0.3107  1.7827
 4699WAT    EPW19518   2.525   5.195   5.949  0.2521 -0.1972  0.7672
 4700WAT      O19519   4.437   2.914   1.706  0.7584  0.2070 -0.1571
 4700WAT     H119520   4.501   2.959   1.744  1.9221 -2.1940  0.9435
 4700WAT     H219521   4.456   2.831   1.726 -3.0138 -0.6231  0.8254
 4700WAT    EPW19522   4.449   2.909   1.715  0.3731 -0.2703  0.1506
 4701WAT      O19523   1.321   4.105   4.119 -0.7651 -0.6459  0.7482
 4701WAT     H119524   1.276   4.157   4.065  0.5564 -1.7962 -1.6310
 4701WAT     H219525   1.400   4.142   4.121 -0.0148 -2.0765 -0.3976
 4701WAT    EPW19526   1.326   4.118   4.111 -0.4591 -1.0271  0.2275
 4702WAT      O19527   3.958   4.938   2.813 -0.0129 -1.1604 -0.0316
 4702WAT     H119528   3.932   4.869   2.766 -0.9538 -2.1447  1.8410
 4702WAT     H219529   4.018   4.905   2.867  1.1029 -0.0332 -0.5260
 4702WAT    EPW19530   3.963   4.923   2.814  0.0130 -1.1393  0.1720
 4703WAT      O19531   3.902   3.371   3.977  0.7496  0.0627 -0.3554
 4703WAT     H119532   3.850   3.309   3.945  1.4623  0.4493 -2.4041
 4703WAT     H219533   3.982   3.342   3.956  1.0596  2.1373 -2.4201
 4703WAT    EPW19534   3.906   3.357   3.969  0.9007  0.4263 -0.9631
 4704WAT      O19535   6.413   6.601   1.857  0.3737  0.2305 -0.4381
 4704WAT     H119536   6.382   6.532   1.901  1.3911 -0.2248 -0.4293
 4704WAT     H219537   6.499   6.589   1.857  0.5517  1.4414 -0.5508
 4704WAT    EPW19538   6.421   6.589   1.863  0.5503  0.3421 -0.4534
 4705WAT      O19539   1.201   3.995   3.287 -0.1977 -0.1669 -0.0742
 4705WAT     H119540   1.284   3.979   3.311 -0.1052  0.1267 -0.1984
 4705WAT     H219541   1.179   4.064   3.336 -0.3120 -0.1383 -0.1668
 4705WAT    EPW19542   1.210   4.003   3.298 -0.2009 -0.1193 -0.1062
 4706WAT      O19543   0.154   2.258   7.140  0.3185 -0.6934  0.1117
 4706WAT     H119544   0.072   2.229   7.154 -0.2327 -0.1208 -1.6587
 4706WAT     H219545   0.149   2.294   7.060  2.3415 -0.7549 -0.0748
 4706WAT    EPW19546   0.141   2.259   7.130  0.5359 -0.6179 -0.1773
 4707WAT      O19547   1.342   3.853   2.937 -0.3553  0.2853 -0.2737
 4707WAT     H119548   1.330   3.938   2.923 -0.4141  0.1014 -1.4775
 4707WAT     H219549   1.414   3.834   2.891 -0.3047 -0.2974  0.0359
 4707WAT    EPW19550   1.351   3.862   2.928 -0.3565  0.1720 -0.4058
 4708WAT      O19551   4.032   2.681   3.902  0.0660  0.0501 -0.3642
 4708WAT     H119552   4.015   2.693   3.818  1.6158  1.6410 -0.5119
 4708WAT     H219553   4.004   2.600   3.917 -0.7032 -0.0865 -2.2666
 4708WAT    EPW19554   4.026   2.671   3.892  0.1813  0.2649 -0.6671
 4709WAT      O19555   1.070   2.952   0.764  0.5891  0.6270 -0.4678
 4709WAT     H119556   1.009   2.908   0.808  0.1799  1.9552  0.3369
 4709WAT     H219557   1.141   2.903   0.773  0.1704  0.1786  0.4977
 4709WAT    EPW19558   1.072   2.938   0.772  0.4668  0.7569 -0.2063
 4710WAT      O19559   2.698   5.686   7.093  0.4494 -0.6265 -0.3187
 4710WAT     H119560   2.629   5.674   7.144 -0.3798 -0.1849 -1.3029
 4710WAT     H219561   2.723   5.767   7.111  1.4966 -1.1826  0.9233
 4710WAT    EPW19562   2.691   5.696   7.103  0.4816 -0.6434 -0.2806
 4711WAT      O19563   2.609   3.494   5.833  0.1490  0.6278 -0.1627
 4711WAT     H119564   2.620   3.427   5.889 -5.0456 -1.5900 -1.2183
 4711WAT     H219565   2.551   3.545   5.873 -0.4275  1.3049 -1.8059
 4711WAT    EPW19566   2.602   3.491   5.847 -0.7035  0.4002 -0.5614
 4712WAT      O19567   2.051   1.712   0.481 -0.0828 -0.4798 -0.2067
 4712WAT     H119568   2.134   1.734   0.491 -0.1478 -0.9144  1.5453
 4712WAT     H219569   2.012   1.744   0.552 -1.1856 -1.3565 -0.3752
 4712WAT    EPW19570   2.057   1.720   0.493 -0.2553 -0.6735  0.0272
 4713WAT      O19571   2.142   2.067   0.597  0.0142  0.4862 -0.0622
 4713WAT     H119572   2.077   2.021   0.633 -0.7580  0.9068 -0.8620
 4713WAT     H219573   2.191   2.006   0.558 -1.3223  0.3342 -1.6118
 4713WAT    EPW19574   2.140   2.051   0.596 -0.2973  0.5259 -0.4092
 4714WAT      O19575   6.832   4.269   5.437  0.2052 -0.3509  0.7428
 4714WAT     H119576   6.791   4.203   5.477 -1.7345  0.5756  0.3880
 4714WAT     H219577   6.847   4.326   5.501 -1.3249  0.3721  0.4895
 4714WAT    EPW19578   6.828   4.267   5.452 -0.3074 -0.1072  0.6530
 4715WAT      O19579   1.369   1.134   0.366  0.2572  0.2044 -0.1658
 4715WAT     H119580   1.386   1.144   0.281  1.2888  1.9314  0.2034
 4715WAT     H219581   1.438   1.170   0.405  0.2796 -1.4369  1.4349
 4715WAT    EPW19582   1.382   1.141   0.359  0.4129  0.2170  0.1252
 4716WAT      O19583   4.481   3.289   4.256  0.1766  0.8589  0.5246
 4716WAT     H119584   4.482   3.246   4.332 -1.2093 -0.4724 -0.1479
 4716WAT     H219585   4.403   3.327   4.256 -0.4903 -0.4217 -0.8510
 4716WAT    EPW19586   4.470   3.288   4.268 -0.1266  0.4731  0.2221
 4717WAT      O19587   2.317   0.923   7.354 -0.7894 -0.3603  0.4337
 4717WAT     H119588   2.365   0.855   7.383  0.2150 -0.6437 -1.7050
 4717WAT     H219589   2.363   0.953   7.287 -2.7580  0.4972 -0.6167
 4717WAT    EPW19590   2.331   0.917   7.349 -0.9318 -0.2755 -0.0374
 4718WAT      O19591   4.431   2.267   0.145 -0.1062  0.4443  0.1388
 4718WAT     H119592   4.468   2.318   0.085  0.2486  2.8740  2.2452
 4718WAT     H219593   4.499   2.238   0.192 -0.4569 -0.4352  0.1249
 4718WAT    EPW19594   4.447   2.270   0.143 -0.1056  0.6733  0.4479
 4719WAT      O19595   0.622   7.168   1.356  0.2427 -0.2814 -0.2060
 4719WAT     H119596   0.607   7.230   1.297 -3.5923 -1.4518 -0.7217
 4719WAT     H219597   0.636   7.097   1.307  0.8286 -0.5616  0.3556
 4719WAT    EPW19598   0.622   7.167   1.340 -0.2373 -0.4957 -0.1992
 4720WAT      O19599   5.450   4.949   1.013  0.4380  0.0048  0.2337
 4720WAT     H119600   5.398   4.886   0.982 -1.4137  1.1361  0.8778
 4720WAT     H219601   5.530   4.919   0.995 -0.4050 -1.5528 -1.3666
 4720WAT    EPW19602   5.454   4.935   1.006  0.0399 -0.0582  0.0924
 4721WAT      O19603   1.360   3.906   4.832 -0.2274  0.4665 -0.7358
 4721WAT     H119604   1.324   3.854   4.893 -0.6099 -0.0195 -1.3684
 4721WAT     H219605   1.437   3.868   4.816  0.5058  1.3613  0.4253
 4721WAT    EPW19606   1.366   3.893   4.839 -0.1756  0.5269 -0.6577
 4722WAT      O19607   2.591   7.185   5.367  0.7440  0.1262 -1.0096
 4722WAT     H119608   2.561   7.260   5.399 -1.2789 -1.7684  2.1402
 4722WAT     H219609   2.671   7.204   5.340  1.4339  2.8554  2.3462
 4722WAT    EPW19610   2.598   7.199   5.367  0.5471  0.2495 -0.0486
 4723WAT      O19611   0.103   3.760   2.183  0.1128  1.0119 -0.2994
 4723WAT     H119612   0.090   3.695   2.125  0.4152  0.6670  0.0168
 4723WAT     H219613   0.170   3.732   2.231 -0.6753  0.9182  0.7714
 4723WAT    EPW19614   0.111   3.746   2.181  0.0411  0.9471 -0.0945
 4724WAT      O19615   2.554   6.208   6.910 -0.8714 -0.1287 -0.0481
 4724WAT     H119616   2.515   6.277   6.873 -1.0991 -0.2543 -0.0460
 4724WAT     H219617   2.547   6.145   6.849 -0.1908 -0.0015 -0.2645
 4724WAT    EPW19618   2.547   6.209   6.895 -0.8045 -0.1284 -0.0798
 4725WAT      O19619   6.315   2.240   2.691  0.1103 -0.0193  0.0190
 4725WAT     H119620   6.358   2.164   2.685 -0.6587 -0.4086 -0.5605
 4725WAT     H219621   6.306   2.251   2.777  0.5024 -0.4163  0.1153
 4725WAT    EPW19622   6.320   2.231   2.703  0.0546 -0.1354 -0.0524
 4726WAT      O19623   6.584   6.647   3.804  0.0126  0.2098  0.3389
 4726WAT     H119624   6.499   6.636   3.791 -0.0228 -1.0351  1.3606
 4726WAT     H219625   6.620   6.617   3.730 -0.4117  0.0803  0.1853
 4726WAT    EPW19626   6.577   6.641   3.791 -0.0553  0.0067  0.4672
 4727WAT      O19627   3.465   0.126   2.033  0.2927  1.2353  0.3197
 4727WAT     H119628   3.533   0.181   2.026  0.3678  1.3046  1.4274
 4727WAT     H219629   3.398   0.178   2.050  0.5055  0.9729  2.1941
 4727WAT    EPW19630   3.465   0.142   2.034  0.3352  1.2068  0.7602
 4728WAT      O19631   0.318   0.684   5.278  0.2505 -0.0491  0.7029
 4728WAT     H119632   0.397   0.702   5.245  0.4112  0.7449  1.4826
 4728WAT     H219633   0.267   0.678   5.207  0.9517 -0.2944  0.2056
 4728WAT    EPW19634   0.322   0.686   5.262  0.3778  0.0320  0.7446
 4729WAT      O19635   6.637   4.670   2.630  0.5819  0.7204 -0.1539
 4729WAT     H119636   6.618   4.645   2.548  0.2412  2.4707 -0.6490
 4729WAT     H219637   6.599   4.609   2.679  0.8877 -0.4258 -1.2957
 4729WAT    EPW19638   6.628   4.657   2.625  0.5767  0.8096 -0.3957
 4730WAT      O19639   6.340   1.970   0.112  0.0126 -0.7912 -0.0546
 4730WAT     H119640   6.279   1.909   0.103  0.4812 -1.2555 -0.1756
 4730WAT     H219641   6.402   1.930   0.158  0.9978 -0.9292 -1.4235
 4730WAT    EPW19642   6.340   1.955   0.117  0.2273 -0.8802 -0.2747
 4731WAT      O19643   1.439   2.821   5.851  0.3042 -0.1806 -0.2355
 4731WAT     H119644   1.478   2.820   5.773  1.1286  1.0021  0.1426
 4731WAT     H219645   1.400   2.898   5.854 -2.3985 -1.4299 -0.7111
 4731WAT    EPW19646   1.439   2.832   5.840  0.0267 -0.1904 -0.2499
 4732WAT      O19647   1.663   4.452   5.074 -0.0054  0.6423 -0.1019
 4732WAT     H119648   1.745   4.467   5.050 -0.0681  0.0028 -0.7207
 4732WAT     H219649   1.627   4.414   5.005 -0.7479  0.6491  0.2665
 4732WAT    EPW19650   1.669   4.448   5.060 -0.1243  0.5489 -0.1389
 4733WAT      O19651   4.826   2.155   1.387  0.0182 -0.1459  0.5031
 4733WAT     H119652   4.893   2.184   1.434 -0.1880  2.1953 -0.5482
 4733WAT     H219653   4.859   2.145   1.307 -1.1088  2.4134 -0.3783
 4733WAT    EPW19654   4.841   2.158   1.382 -0.1787  0.5780  0.2176
 4734WAT      O19655   6.877   3.151   0.328 -0.2066  0.0074 -0.2745
 4734WAT     H119656   6.962   3.133   0.330 -0.2637 -0.2323  0.0015
 4734WAT     H219657   6.843   3.101   0.391 -0.9731 -1.9674 -2.1593
 4734WAT    EPW19658   6.884   3.141   0.338 -0.3283 -0.3198 -0.5121
 4735WAT      O19659   5.861   4.226   0.961 -0.6633  0.2034  0.4961
 4735WAT     H119660   5.832   4.282   1.022  0.3189  0.8184  0.4147
 4735WAT     H219661   5.947   4.236   0.962 -0.5322 -0.6638 -0.1641
 4735WAT    EPW19662   5.869   4.236   0.970 -0.4988  0.1662  0.3865
 4736WAT      O19663   6.014   1.581   1.995  0.1663  0.1400  0.0872
 4736WAT     H119664   5.986   1.541   2.067 -0.3567 -0.0462 -0.2105
 4736WAT     H219665   5.941   1.589   1.947  0.6301 -0.3619 -0.7186
 4736WAT    EPW19666   5.999   1.576   1.999  0.1576  0.0383 -0.0758
 4737WAT      O19667   2.095   2.639   1.240  0.4126  0.0574 -0.2887
 4737WAT     H119668   2.018   2.665   1.271 -0.1351 -1.5427 -0.2358
 4737WAT     H219669   2.078   2.617   1.158  0.7774 -0.4770 -0.2256
 4737WAT    EPW19670   2.081   2.640   1.233  0.3856 -0.2579 -0.2715
 4738WAT      O19671   0.268   1.839   6.471 -0.2247  1.0277 -0.2105
 4738WAT     H119672   0.288   1.817   6.388 -0.9501 -0.5866  0.0068
 4738WAT     H219673   0.257   1.925   6.467 -0.2963  0.9791 -1.8206
 4738WAT    EPW19674   0.270   1.848   6.458 -0.3424  0.7820 -0.4162
 4739WAT      O19675   7.165   0.502   4.198  0.3091 -0.0785  0.1261
 4739WAT     H119676   7.245   0.519   4.228 -0.3898  2.0683  0.9710
 4739WAT     H219677   7.123   0.470   4.268  0.0620  0.1373  0.0789
 4739WAT    EPW19678   7.171   0.500   4.213  0.1694  0.2705  0.2440
 4740WAT      O19679   0.105   0.946   7.069  0.5364 -0.5669 -0.8158
 4740WAT     H119680   0.070   1.010   7.117 -0.6196 -1.0109 -1.0231
 4740WAT     H219681   0.184   0.976   7.049 -0.7925  1.9203 -2.9728
 4740WAT    EPW19682   0.111   0.960   7.074  0.1693 -0.2651 -1.1650
 4741WAT      O19683   6.288   6.681   6.629  0.1619  0.2237 -0.7641
 4741WAT     H119684   6.332   6.632   6.571 -0.2844 -0.3713 -0.6154
 4741WAT     H219685   6.350   6.726   6.669  0.3442  2.1764 -3.0444
 4741WAT    EPW19686   6.304   6.680   6.626  0.1229  0.4243 -1.0789
 4742WAT      O19687   1.746   5.434   0.411  0.0712 -0.4746  0.0521
 4742WAT     H119688   1.828   5.461   0.424 -0.1905  0.6502 -0.4914
 4742WAT     H219689   1.756   5.355   0.375  1.2556  1.6629 -5.2947
 4742WAT    EPW19690   1.760   5.426   0.408  0.2075  0.0073 -0.8180
 4743WAT      O19691   2.131   7.082   1.502  0.1411 -0.5522  0.7303
 4743WAT     H119692   2.108   7.119   1.426 -0.3163 -0.2207  1.0250
 4743WAT     H219693   2.199   7.130   1.528  1.4356 -1.7413 -0.3056
 4743WAT    EPW19694   2.137   7.094   1.495  0.2648 -0.6789  0.6208
 4744WAT      O19695   3.436   5.517   2.618  0.1118  0.2809 -0.3407
 4744WAT     H119696   3.470   5.506   2.698 -0.3356  0.1082 -0.1651
 4744WAT     H219697   3.379   5.451   2.611 -0.5167  0.8153 -0.4373
 4744WAT    EPW19698   3.433   5.506   2.629 -0.0471  0.3343 -0.3290
 4745WAT      O19699   5.265   0.216   5.701 -0.2560  0.1611  0.3307
 4745WAT     H119700   5.197   0.222   5.755 -1.3357 -1.4062 -0.7639
 4745WAT     H219701   5.244   0.268   5.635  0.2807  0.7325  0.5870
 4745WAT    EPW19702   5.252   0.225   5.699 -0.3362  0.0140  0.2069
 4746WAT      O19703   4.694   5.117   5.096 -0.3893 -0.2395 -0.1354
 4746WAT     H119704   4.630   5.107   5.155 -0.3150  0.1179  0.0091
 4746WAT     H219705   4.752   5.056   5.118  1.0276  1.7196  2.0175
 4746WAT    EPW19706   4.693   5.106   5.108 -0.1690  0.1027  0.2040
 4747WAT      O19707   5.135   2.858   6.207 -0.2165  0.7365 -0.4334
 4747WAT     H119708   5.137   2.896   6.286  3.1290 -0.0414  0.0143
 4747WAT     H219709   5.087   2.786   6.221  1.5098 -0.1489  1.3749
 4747WAT    EPW19710   5.128   2.853   6.221  0.5327  0.4908 -0.1002
 4748WAT      O19711   0.474   3.010   3.324  0.6711  0.2674 -0.3884
 4748WAT     H119712   0.451   3.020   3.408 -1.8983 -0.4455 -0.9163
 4748WAT     H219713   0.447   2.929   3.305  2.3121 -0.0349 -1.6147
 4748WAT    EPW19714   0.467   3.000   3.334  0.5340  0.1174 -0.6475
 4749WAT      O19715   2.372   1.630   0.250 -0.1300 -0.3098 -0.1261
 4749WAT     H119716   2.357   1.688   0.314  0.5211  0.5353 -0.7185
 4749WAT     H219717   2.414   1.565   0.290  1.4335  0.7884  0.0867
 4749WAT    EPW19718   2.376   1.629   0.265  0.1972 -0.0227 -0.1822
 4750WAT      O19719   1.209   4.361   7.210  0.2132 -0.0639 -0.1728
 4750WAT     H119720   1.198   4.363   7.124  0.5046  3.1010 -0.2545
 4750WAT     H219721   1.128   4.368   7.242  0.1337 -0.9144 -0.1643
 4750WAT    EPW19722   1.195   4.363   7.202  0.2445  0.2780 -0.1836
 4751WAT      O19723   3.071   6.984   6.004 -0.3354 -0.6213  0.4536
 4751WAT     H119724   3.010   6.923   6.020 -1.6543  0.1827 -1.1975
 4751WAT     H219725   3.025   7.051   5.973  1.3758  0.0957 -0.6559
 4751WAT    EPW19726   3.055   6.985   6.001 -0.2774 -0.3966  0.0458
 4752WAT      O19727   2.949   1.651   3.842 -0.1880  0.5304  0.0998
 4752WAT     H119728   2.863   1.662   3.853 -0.1415  1.6080 -0.4752
 4752WAT     H219729   2.954   1.596   3.775 -0.4484  1.4457 -0.6966
 4752WAT    EPW19730   2.937   1.645   3.833 -0.2196  0.8248 -0.1028
 4753WAT      O19731   3.099   3.975   3.499 -0.4235 -0.1983 -0.1129
 4753WAT     H119732   3.116   3.889   3.495 -0.1703 -0.1967  0.6414
 4753WAT     H219733   3.128   4.006   3.423  0.6934 -0.5884  0.1331
 4753WAT    EPW19734   3.106   3.967   3.487 -0.2211 -0.2557  0.0348
 4754WAT      O19735   1.941   0.701   0.210 -0.0208  0.0173 -0.6248
 4754WAT     H119736   1.919   0.784   0.228 -2.0340 -0.8384  1.3579
 4754WAT     H219737   2.028   0.702   0.214  0.0150  1.9926 -0.5636
 4754WAT    EPW19738   1.950   0.713   0.213 -0.3129  0.1827 -0.3229
 4755WAT      O19739   2.861   1.507   2.571 -0.4898  0.4260 -0.0391
 4755WAT     H119740   2.927   1.563   2.580 -1.6640  1.7500  0.6784
 4755WAT     H219741   2.840   1.488   2.653 -0.4080 -0.7582 -0.2684
 4755WAT    EPW19742   2.868   1.512   2.584 -0.6512  0.4467  0.0330
 4756WAT      O19743   0.863   2.192   6.591  0.6412  0.0182  0.3924
 4756WAT     H119744   0.902   2.156   6.522  0.7411 -1.0778  1.0053
 4756WAT     H219745   0.824   2.263   6.557  1.0339 -0.2645 -0.7003
 4756WAT    EPW19746   0.863   2.197   6.575  0.7140 -0.1854  0.3215
 4757WAT      O19747   2.646   5.450   4.634  0.2473  0.5399 -0.6692
 4757WAT     H119748   2.596   5.470   4.566  0.0756 -1.3013 -1.1409
 4757WAT     H219749   2.697   5.386   4.605 -0.2868 -0.7805  1.0626
 4757WAT    EPW19750   2.646   5.444   4.620  0.1430  0.0728 -0.4831
 4758WAT      O19751   3.886   2.390   3.527 -0.2467 -0.8122 -0.4568
 4758WAT     H119752   3.901   2.462   3.480  1.0375 -0.4205  0.4795
 4758WAT     H219753   3.853   2.334   3.470 -0.7866  0.3530 -1.3294
 4758WAT    EPW19754   3.883   2.392   3.512 -0.1368 -0.5822 -0.4474
 4759WAT      O19755   6.261   6.570   1.159 -0.0979  0.1384  0.3349
 4759WAT     H119756   6.276   6.603   1.080 -2.0535  0.9250  0.2176
 4759WAT     H219757   6.218   6.496   1.142 -0.3280  0.1987  0.6523
 4759WAT    EPW19758   6.257   6.564   1.145 -0.4208  0.2635  0.3645
 4760WAT      O19759   1.340   4.521   1.630 -0.4396  0.2193  0.9469
 4760WAT     H119760   1.352   4.531   1.544 -0.1120 -0.4023  0.9097
 4760WAT     H219761   1.325   4.435   1.639 -0.2939  0.2460  1.5235
 4760WAT    EPW19762   1.340   4.510   1.619 -0.3697  0.1314  1.0266
 4761WAT      O19763   5.839   2.938   3.316  0.3108 -0.2715 -0.0211
 4761WAT     H119764   5.838   3.022   3.340 -1.2166 -0.5042  0.8318
 4761WAT     H219765   5.834   2.942   3.229  3.4131  0.5298 -0.2906
 4761WAT    EPW19766   5.838   2.951   3.306  0.5435 -0.1875  0.0651
 4762WAT      O19767   6.872   7.165   6.145  0.3167  0.0930 -0.2251
 4762WAT     H119768   6.834   7.129   6.075  0.6649 -1.6696  0.4198
 4762WAT     H219769   6.823   7.137   6.211 -0.3001  2.1447  0.2389
 4762WAT    EPW19770   6.859   7.155   6.144  0.2770  0.1357 -0.0613
 4763WAT      O19771   5.611   1.381   1.025 -0.3127 -0.3365  0.0290
 4763WAT     H119772   5.590   1.357   1.107  0.4687 -0.0604  0.3188
 4763WAT     H219773   5.569   1.456   1.014 -0.3708 -0.3434  0.1986
 4763WAT    EPW19774   5.602   1.388   1.036 -0.2058 -0.2967  0.0969
 4764WAT      O19775   6.467   7.153   6.711  0.0228  0.1438  0.4212
 4764WAT     H119776   6.548   7.130   6.687 -0.3539 -1.2484  0.4022
 4764WAT     H219777   6.424   7.155   6.635 -0.5591 -1.7249  0.6573
 4764WAT    EPW19778   6.473   7.150   6.696 -0.1188 -0.3379  0.4533
 4765WAT      O19779   3.599   1.337   6.127 -0.3142  0.1312 -0.2746
 4765WAT     H119780   3.568   1.368   6.052  0.1630  0.2587 -0.4272
 4765WAT     H219781   3.592   1.250   6.119  0.3486  0.1118 -0.7521
 4765WAT    EPW19782   3.594   1.329   6.115 -0.1458  0.1472 -0.3677
 4766WAT      O19783   5.729   3.155   1.011 -0.1337  0.2050  0.8264
 4766WAT     H119784   5.772   3.203   1.069  0.2298 -0.3436  1.0228
 4766WAT     H219785   5.645   3.175   1.024 -0.0264  0.3423  1.2967
 4766WAT    EPW19786   5.723   3.165   1.021 -0.0641  0.1443  0.9249
 4767WAT      O19787   2.107   6.736   6.113 -0.1705 -0.3530 -0.4977
 4767WAT     H119788   2.061   6.793   6.160  0.9978 -0.6396  1.0932
 4767WAT     H219789   2.128   6.674   6.170  0.5012 -1.2319 -1.6484
 4767WAT    EPW19790   2.104   6.736   6.128  0.1013 -0.5251 -0.4327
 4768WAT      O19791   5.686   6.965   3.026 -0.2785 -0.5817  0.2357
 4768WAT     H119792   5.669   6.966   3.111 -1.4889 -0.8531  0.0226
 4768WAT     H219793   5.607   6.966   2.989  0.2301  0.7553 -0.9107
 4768WAT    EPW19794   5.672   6.965   3.033 -0.3822 -0.4243  0.0349
 4769WAT      O19795   0.330   0.212   7.272  0.1943 -0.2468  0.2560
 4769WAT     H119796   0.248   0.215   7.241  0.1471 -1.5570  0.1769
 4769WAT     H219797   0.319   0.202   7.358  0.2086 -1.9020  0.1022
 4769WAT    EPW19798   0.316   0.211   7.280  0.1895 -0.6849  0.2216
 4770WAT      O19799   6.432   5.780   0.968  0.1042  0.0244 -0.1662
 4770WAT     H119800   6.387   5.840   1.013  1.3166  1.1774 -0.4165
 4770WAT     H219801   6.470   5.732   1.031 -0.7881 -0.4234  0.0376
 4770WAT    EPW19802   6.431   5.782   0.984  0.1515  0.1286 -0.1731
 4771WAT      O19803   2.307   2.565   0.341  0.5481  0.1867 -0.0347
 4771WAT     H119804   2.295   2.616   0.271  0.2058  0.1364 -0.0181
 4771WAT     H219805   2.231   2.522   0.347  1.0136 -0.7129 -0.3636
 4771WAT    EPW19806   2.294   2.566   0.332  0.5663  0.0464 -0.0809
 4772WAT      O19807   1.533   6.765   1.701 -0.2947 -0.2184  0.2808
 4772WAT     H119808   1.461   6.721   1.724 -0.4384  1.1270  2.8442
 4772WAT     H219809   1.598   6.714   1.731 -0.2752 -0.4463 -0.1458
 4772WAT    EPW19810   1.532   6.751   1.709 -0.3130 -0.0533  0.5965
 4773WAT      O19811   2.009   1.874   6.439 -0.0356  0.5306  0.5558
 4773WAT     H119812   1.988   1.825   6.369 -0.7715  1.7335 -0.0896
 4773WAT     H219813   2.081   1.835   6.470  0.4349  0.0880 -0.9983
 4773WAT    EPW19814   2.016   1.861   6.433 -0.0748  0.6429  0.2309
 4774WAT      O19815   1.310   3.636   5.268  0.3254  0.3297  0.0324
 4774WAT     H119816   1.266   3.605   5.200  0.7023  0.4460 -0.2676
 4774WAT     H219817   1.326   3.719   5.246  1.1441  0.1410 -0.0939
 4774WAT    EPW19818   1.306   3.644   5.255  0.5020  0.3190 -0.0306
 4775WAT      O19819   3.798   5.808   3.747  0.3075  0.2038  0.1235
 4775WAT     H119820   3.758   5.885   3.739  0.9493  0.4500 -1.0560
 4775WAT     H219821   3.875   5.828   3.782  0.5718  0.1371 -0.4130
 4775WAT    EPW19822   3.803   5.822   3.751  0.4414  0.2303 -0.1300
 4776WAT      O19823   2.637   6.835   1.237  0.0314  0.1621  0.2168
 4776WAT     H119824   2.572   6.887   1.264  0.2464  0.4949  0.1095
 4776WAT     H219825   2.696   6.892   1.206 -0.3052 -0.1998 -1.1663
 4776WAT    EPW19826   2.636   6.851   1.236  0.0134  0.1578 -0.0033
 4777WAT      O19827   4.395   6.718   0.608 -0.8297 -0.6113  0.3522
 4777WAT     H119828   4.311   6.715   0.588 -1.0145 -1.1783  1.1431
 4777WAT     H219829   4.434   6.732   0.532 -1.7736  2.6053  0.3491
 4777WAT    EPW19830   4.389   6.719   0.594 -0.9965 -0.2199  0.4686
 4778WAT      O19831   6.740   4.178   2.111 -0.0574 -0.2461 -0.7359
 4778WAT     H119832   6.721   4.242   2.055 -1.3379  1.9141  1.9292
 4778WAT     H219833   6.662   4.153   2.140  0.5626  0.1497  1.4710
 4778WAT    EPW19834   6.726   4.184   2.107 -0.1550  0.1315 -0.0162
 4779WAT      O19835   6.285   3.173   6.616 -0.5921  0.1112  0.2447
 4779WAT     H119836   6.259   3.249   6.648  2.4633  1.0937  0.7526
 4779WAT     H219837   6.307   3.191   6.534 -1.6474 -0.7165 -0.2440
 4779WAT    EPW19838   6.285   3.187   6.609 -0.2967  0.1341  0.2475
 4780WAT      O19839   3.839   3.993   5.694  0.1834  0.2985 -0.2732
 4780WAT     H119840   3.837   3.991   5.607  0.1629  0.1188 -0.2671
 4780WAT     H219841   3.881   4.068   5.711 -0.1396  0.5162 -0.4315
 4780WAT    EPW19842   3.845   4.004   5.683  0.1327  0.3041 -0.2957
 4781WAT      O19843   7.019   5.584   6.963  0.1888 -0.1346 -0.0072
 4781WAT     H119844   7.007   5.523   6.902 -0.0954  0.0931 -0.1838
 4781WAT     H219845   7.104   5.600   6.960  0.0680  0.4088 -0.8668
 4781WAT    EPW19846   7.030   5.577   6.954  0.1289 -0.0207 -0.1603
 4782WAT      O19847   2.615   5.764   1.283 -0.5685 -0.3558 -0.4817
 4782WAT     H119848   2.560   5.788   1.346 -0.7446  1.4291 -1.2522
 4782WAT     H219849   2.615   5.833   1.228 -0.6563 -1.9336 -2.5825
 4782WAT    EPW19850   2.607   5.778   1.284 -0.6075 -0.3252 -0.9058
 4783WAT      O19851   6.226   4.004   3.088  0.3651 -0.0297  0.7700
 4783WAT     H119852   6.209   4.081   3.050  0.4463  0.0619  0.9177
 4783WAT     H219853   6.313   4.006   3.098  0.4964 -0.5661 -0.1414
 4783WAT    EPW19854   6.236   4.016   3.084  0.3965 -0.0954  0.6572
 4784WAT      O19855   6.848   1.557   6.506 -0.3101 -0.0805 -0.3014
 4784WAT     H119856   6.918   1.560   6.558 -0.8655 -1.1340  0.5366
 4784WAT     H219857   6.787   1.520   6.556 -1.3164  0.3078 -1.2062
 4784WAT    EPW19858   6.849   1.552   6.521 -0.5408 -0.1788 -0.3113
 4785WAT      O19859   5.935   6.373   4.623  0.0657 -0.2416  0.1699
 4785WAT     H119860   6.004   6.319   4.621 -0.1669 -0.5276 -0.5402
 4785WAT     H219861   5.962   6.439   4.672  0.1952 -1.2257  1.4754
 4785WAT    EPW19862   5.950   6.375   4.630  0.0505 -0.4292  0.2579
 4786WAT      O19863   4.777   1.868   4.437 -0.2130 -0.0506 -0.1778
 4786WAT     H119864   4.848   1.918   4.440 -0.1231 -0.2060  0.7535
 4786WAT     H219865   4.730   1.902   4.372  0.7068  0.0516 -0.8075
 4786WAT    EPW19866   4.781   1.880   4.428 -0.0638 -0.0584 -0.1332
 4787WAT      O19867   2.967   1.772   5.620 -0.2403 -0.3815  0.5483
 4787WAT     H119868   2.909   1.835   5.602 -0.2710 -0.1575  1.3848
 4787WAT     H219869   2.939   1.704   5.573 -0.8195 -0.0807  0.4541
 4787WAT    EPW19870   2.954   1.771   5.610 -0.3304 -0.3040  0.6579
 4788WAT      O19871   5.284   5.955   2.094  0.2712  0.1448  0.4429
 4788WAT     H119872   5.246   5.967   2.016  1.4815  0.2462 -0.1515
 4788WAT     H219873   5.243   5.885   2.125 -1.0155  0.7624  0.2333
 4788WAT    EPW19874   5.272   5.947   2.087  0.2599  0.2510  0.3241
 4789WAT      O19875   3.927   0.578   1.508  0.0776 -0.0414  0.3672
 4789WAT     H119876   3.867   0.561   1.447  1.4341 -0.0787 -1.0223
 4789WAT     H219877   3.939   0.664   1.501  1.5228 -0.2859 -0.7457
 4789WAT    EPW19878   3.920   0.588   1.498  0.4914 -0.0830 -0.0024
 4790WAT      O19879   6.370   4.056   5.763  0.6905 -0.0642 -0.7404
 4790WAT     H119880   6.285   4.060   5.740  0.8781  0.0679 -1.4571
 4790WAT     H219881   6.380   3.974   5.790  0.2442  0.0274 -0.2746
 4790WAT    EPW19882   6.359   4.044   5.763  0.6523 -0.0312 -0.7775
 4791WAT      O19883   6.156   3.299   1.070  0.0223 -0.1872  0.1027
 4791WAT     H119884   6.112   3.357   1.023  1.0690 -0.4946 -1.3137
 4791WAT     H219885   6.130   3.222   1.037 -0.4437 -0.5071  1.1519
 4791WAT    EPW19886   6.145   3.296   1.059  0.1081 -0.2798  0.0485
 4792WAT      O19887   6.350   2.350   5.093 -0.1887 -0.5702  0.0004
 4792WAT     H119888   6.277   2.308   5.073 -0.8462  0.6717 -0.3101
 4792WAT     H219889   6.337   2.377   5.175  0.9977 -2.5003  0.8993
 4792WAT    EPW19890   6.338   2.348   5.103 -0.1106 -0.6718  0.0873
 4793WAT      O19891   6.302   5.525   4.423  0.5176  0.4659  0.1908
 4793WAT     H119892   6.235   5.475   4.452  0.4589  0.6850  0.4379
 4793WAT     H219893   6.372   5.479   4.447  0.4769  0.8552  1.0845
 4793WAT    EPW19894   6.302   5.511   4.431  0.5029  0.5558  0.3593
 4794WAT      O19895   0.447   1.205   5.206 -0.3426 -0.1082 -0.0234
 4794WAT     H119896   0.477   1.280   5.240  0.2846 -0.1123 -0.5434
 4794WAT     H219897   0.362   1.207   5.223 -0.1001  0.0647  1.2000
 4794WAT    EPW19898   0.439   1.216   5.213 -0.2142 -0.0833  0.0805
 4795WAT      O19899   0.819   6.066   3.432  0.4218 -0.5189 -0.7639
 4795WAT     H119900   0.865   6.139   3.421  0.0594 -0.4786 -2.1552
 4795WAT     H219901   0.786   6.075   3.513  1.4874  0.2063 -0.3907
 4795WAT    EPW19902   0.821   6.078   3.442  0.5257 -0.4058 -0.9143
 4796WAT      O19903   4.122   5.399   0.817 -0.1810 -0.2164  0.1937
 4796WAT     H119904   4.176   5.462   0.844 -0.6786  0.3230 -0.0381
 4796WAT     H219905   4.161   5.366   0.746 -0.7821  1.0744 -0.7672
 4796WAT    EPW19906   4.135   5.403   0.811 -0.3433  0.0540  0.0175
 4797WAT      O19907   1.240   5.568   5.069 -0.3643  0.5579  0.2102
 4797WAT     H119908   1.312   5.560   5.021  0.3029 -0.4997  1.3398
 4797WAT     H219909   1.230   5.655   5.076  1.8384  0.7896  1.5022
 4797WAT    EPW19910   1.249   5.580   5.063  0.0597  0.4359  0.5679
 4798WAT      O19911   5.209   7.042   3.924 -0.3259  0.0973  0.1056
 4798WAT     H119912   5.277   7.077   3.966 -0.6743 -0.4113  1.1319
 4798WAT     H219913   5.172   6.991   3.984 -0.9360 -0.5460 -0.7865
 4798WAT    EPW19914   5.214   7.040   3.939 -0.4675 -0.0729  0.1254
 4799WAT      O19915   0.127   2.319   5.889 -0.9850  0.2563 -0.3467
 4799WAT     H119916   0.141   2.253   5.943 -1.3935  0.9677  0.6652
 4799WAT     H219917   0.072   2.286   5.829 -1.6269 -0.1588  0.4634
 4799WAT    EPW19918   0.121   2.304   5.888 -1.1402  0.3000 -0.0775
 4800WAT      O19919   3.501   1.110   3.051  0.4573 -0.5315  0.3755
 4800WAT     H119920   3.508   1.190   3.018  0.2801 -0.8556 -0.4760
 4800WAT     H219921   3.526   1.059   2.986 -0.6327 -1.2317  0.4829
 4800WAT    EPW19922   3.506   1.114   3.037  0.2701 -0.6828  0.2656
 4801WAT      O19923   2.027   6.082   1.289 -0.2785  0.1202 -0.5598
 4801WAT     H119924   1.943   6.100   1.304  0.1332  1.1748  0.7704
 4801WAT     H219925   2.052   6.144   1.233  0.2892  1.8167  1.3896
 4801WAT    EPW19926   2.018   6.094   1.283 -0.1338  0.5266 -0.0754
 4802WAT      O19927   3.312   2.745   6.096 -0.3298  0.1698  0.1920
 4802WAT     H119928   3.324   2.688   6.031 -0.3333  0.6629 -0.2418
 4802WAT     H219929   3.378   2.801   6.088 -0.3874  0.2969  0.5502
 4802WAT    EPW19930   3.323   2.745   6.085 -0.3388  0.2614  0.1809
 4803WAT      O19931   3.564   0.183   5.286 -0.3728  0.8540  0.4787
 4803WAT     H119932   3.650   0.194   5.275 -0.3418 -0.5523 -1.0896
 4803WAT     H219933   3.530   0.259   5.259  0.1746 -0.0699 -3.2715
 4803WAT    EPW19934   3.572   0.196   5.281 -0.2873  0.5098 -0.3069
 4804WAT      O19935   1.811   2.480   0.459 -0.2252  0.4411  0.1101
 4804WAT     H119936   1.819   2.452   0.541  0.5738 -2.0058 -0.7149
 4804WAT     H219937   1.801   2.566   0.467  0.4594  0.3399  2.7267
 4804WAT    EPW19938   1.811   2.489   0.472 -0.0060  0.0647  0.3748
 4805WAT      O19939   3.276   4.163   5.585 -0.0051 -0.1552  0.3877
 4805WAT     H119940   3.288   4.103   5.522  2.4142  0.4275  0.1845
 4805WAT     H219941   3.356   4.174   5.618 -0.2737  3.1636  0.2436
 4805WAT    EPW19942   3.290   4.156   5.581  0.3126  0.4211  0.3364
 4806WAT      O19943   7.045   1.443   1.859 -0.3268 -0.7461 -0.2148
 4806WAT     H119944   7.025   1.481   1.783 -0.5578 -1.4944 -0.5324
 4806WAT     H219945   7.047   1.358   1.841  0.8195 -0.8651  0.3444
 4806WAT    EPW19946   7.042   1.436   1.845 -0.1916 -0.8742 -0.1791
 4807WAT      O19947   1.886   1.455   6.604  0.2256 -0.4247 -0.2943
 4807WAT     H119948   1.897   1.368   6.602 -0.3334 -0.5134  0.3540
 4807WAT     H219949   1.812   1.466   6.648 -0.1209  0.3600 -1.0305
 4807WAT    EPW19950   1.877   1.444   6.610  0.0919 -0.3219 -0.3073
 4808WAT      O19951   1.929   1.932   4.531 -0.1258  0.4479 -0.3809
 4808WAT     H119952   1.872   1.876   4.496 -1.1253  2.0225 -1.4176
 4808WAT     H219953   1.882   1.971   4.594  0.3539  0.5549 -0.0867
 4808WAT    EPW19954   1.914   1.930   4.535 -0.2026  0.6963 -0.4906
 4809WAT      O19955   3.280   1.361   6.464 -0.1378 -0.4686 -0.2480
 4809WAT     H119956   3.217   1.352   6.524  0.8389 -1.7431  0.6375
 4809WAT     H219957   3.237   1.356   6.388 -1.4917  1.8181  0.2712
 4809WAT    EPW19958   3.264   1.359   6.462 -0.1935 -0.3191 -0.0405
 4810WAT      O19959   2.447   5.106   3.545 -0.3276  0.0707 -0.3570
 4810WAT     H119960   2.396   5.173   3.568 -1.4706 -0.7868 -0.2412
 4810WAT     H219961   2.400   5.065   3.484 -0.2243 -1.2975  0.4491
 4810WAT    EPW19962   2.432   5.110   3.539 -0.4812 -0.2581 -0.2208
 4811WAT      O19963   5.578   6.116   7.065 -0.1951 -0.0004  0.0339
 4811WAT     H119964   5.616   6.140   7.140  0.5098 -1.3885  0.1638
 4811WAT     H219965   5.645   6.089   7.016 -0.8398 -0.9642 -0.3409
 4811WAT    EPW19966   5.594   6.115   7.069 -0.1862 -0.3479 -0.0023
 4812WAT      O19967   5.445   1.367   4.357 -0.4449 -0.0556  0.4487
 4812WAT     H119968   5.394   1.387   4.425 -0.7724 -1.2248  0.5764
 4812WAT     H219969   5.389   1.337   4.297 -0.0644  0.1312 -0.0044
 4812WAT    EPW19970   5.429   1.365   4.358 -0.4370 -0.2007  0.4007
 4813WAT      O19971   1.880   6.051   2.899  0.1132 -0.0576 -0.4677
 4813WAT     H119972   1.833   6.073   2.970 -1.2215 -1.5269 -0.8382
 4813WAT     H219973   1.942   6.113   2.896 -0.4069  0.6364  1.3775
 4813WAT    EPW19974   1.882   6.064   2.909 -0.1608 -0.1721 -0.2498
 4814WAT      O19975   2.364   2.028   6.524  0.4067 -0.1250  0.5903
 4814WAT     H119976   2.363   2.081   6.454 -1.0932  0.7415  1.2129
 4814WAT     H219977   2.439   2.048   6.564  0.6053  0.3907 -0.0221
 4814WAT    EPW19978   2.375   2.039   6.519  0.2145  0.0792  0.5918
 4815WAT      O19979   4.264   1.808   6.612  0.4688  0.3532 -0.2002
 4815WAT     H119980   4.297   1.729   6.597 -1.9820 -0.5761 -1.2867
 4815WAT     H219981   4.299   1.857   6.549  1.1524 -0.1181 -0.2054
 4815WAT    EPW19982   4.274   1.804   6.601  0.2078  0.1463 -0.3615
 4816WAT      O19983   0.184   5.484   0.267  0.1688 -0.6504  0.5293
 4816WAT     H119984   0.124   5.431   0.231  0.0455  0.5578 -1.1408
 4816WAT     H219985   0.244   5.492   0.205 -0.0472  1.5002  0.5294
 4816WAT    EPW19986   0.184   5.477   0.253  0.1187 -0.1542  0.2826
 4817WAT      O19987   0.393   4.808   1.673  0.2225 -0.1728  0.7732
 4817WAT     H119988   0.356   4.864   1.729  0.7729 -0.4546  1.4327
 4817WAT     H219989   0.453   4.856   1.632 -1.2497  0.4568 -0.7637
 4817WAT    EPW19990   0.397   4.823   1.675  0.0863 -0.1214  0.6436
 4818WAT      O19991   7.170   0.829   1.319  0.2647  0.4457 -0.1026
 4818WAT     H119992   7.095   0.854   1.283 -1.3247 -1.2218  1.8218
 4818WAT     H219993   7.163   0.854   1.402  2.2510  0.9961 -0.0520
 4818WAT    EPW19994   7.158   0.836   1.326  0.3233  0.2807  0.1891
 4819WAT      O19995   5.211   2.386   6.357  0.3317  0.3427 -0.2531
 4819WAT     H119996   5.209   2.469   6.331 -0.0446  0.6123  0.5980
 4819WAT     H219997   5.255   2.390   6.433  5.0948 -0.9246 -2.5496
 4819WAT    EPW19998   5.217   2.399   6.364  0.9797  0.1953 -0.4666
 4820WAT      O19999   6.810   6.482   1.234  0.2988  1.0295 -0.0071
 4820WAT     H120000   6.870   6.429   1.199 -1.4281 -0.1126 -1.4609
 4820WAT     H220001   6.828   6.479   1.320 -0.0938 -2.6136  0.1211
 4820WAT    EPW20002   6.822   6.473   1.242 -0.0143  0.3226 -0.2029
 4821WAT      O20003   5.527   6.400   5.091  0.2158  0.0909  0.2090
 4821WAT     H120004   5.565   6.385   5.168 -1.2421  1.2061  1.1886
 4821WAT     H220005   5.452   6.356   5.096  0.7476 -1.0873 -1.2289
 4821WAT    EPW20006   5.522   6.391   5.103  0.0790  0.0816  0.1413
 4822WAT      O20007   4.994   5.347   4.073 -0.6529 -0.2745 -0.5855
 4822WAT     H120008   4.931   5.323   4.128 -1.0522 -0.1134 -0.9641
 4822WAT     H220009   5.050   5.391   4.123 -0.1699 -1.5425  0.0190
 4822WAT    EPW20010   4.993   5.350   4.088 -0.6405 -0.4380 -0.5521
 4823WAT      O20011   4.997   0.397   5.397  0.1618 -0.1048 -0.5031
 4823WAT     H120012   5.079   0.416   5.421 -0.2778  0.6231  0.5058
 4823WAT     H220013   5.007   0.333   5.339  1.3702 -1.1834  0.8008
 4823WAT    EPW20014   5.010   0.390   5.392  0.2754 -0.1566 -0.1615
 4824WAT      O20015   1.157   6.162   2.929  0.1997  0.3642 -0.1055
 4824WAT     H120016   1.197   6.202   2.994  1.8571 -1.2576 -0.0257
 4824WAT     H220017   1.182   6.207   2.858 -1.4889  2.0376  0.3001
 4824WAT    EPW20018   1.167   6.174   2.928  0.1951  0.3718 -0.0338
 4825WAT      O20019   0.490   3.859   3.952 -0.9433  0.3474  0.1809
 4825WAT     H120020   0.527   3.878   3.875 -1.4108 -0.0738 -0.1517
 4825WAT     H220021   0.420   3.812   3.930 -0.1318 -1.3132  0.9248
 4825WAT    EPW20022   0.485   3.855   3.937 -0.8925  0.0399  0.2417
 4826WAT      O20023   5.139   5.392   2.615  0.0210  0.0798  0.1662
 4826WAT     H120024   5.136   5.371   2.699  1.2368  0.4637  0.3324
 4826WAT     H220025   5.157   5.478   2.616 -2.6304  0.7250 -0.4913
 4826WAT    EPW20026   5.141   5.402   2.627 -0.1911  0.2318  0.0936
 4827WAT      O20027   2.782   2.607   3.231  0.7692  0.0680 -0.2746
 4827WAT     H120028   2.866   2.583   3.232  0.6429 -0.4737 -1.5340
 4827WAT     H220029   2.748   2.565   3.299  1.9864  2.1895  1.8078
 4827WAT    EPW20030   2.789   2.598   3.241  0.9303  0.3014 -0.1530
 4828WAT      O20031   5.437   3.250   0.627 -0.0298 -0.7276 -0.0710
 4828WAT     H120032   5.398   3.268   0.552 -0.6732 -1.5155  0.0645
 4828WAT     H220033   5.468   3.169   0.615 -0.3689 -0.9624  0.5990
 4828WAT    EPW20034   5.436   3.241   0.614 -0.1750 -0.8786  0.0480
 4829WAT      O20035   3.013   3.711   2.745  0.2526  0.3353  0.1658
 4829WAT     H120036   3.069   3.745   2.687 -1.0563  1.3462 -0.5588
 4829WAT     H220037   2.941   3.696   2.698 -0.4623  0.0888  1.2871
 4829WAT    EPW20038   3.010   3.714   2.730 -0.0464  0.4482  0.2244
 4830WAT      O20039   1.859   2.640   3.053  0.1438 -0.1317  0.4433
 4830WAT     H120040   1.780   2.653   3.087  0.3774 -0.3253  1.0738
 4830WAT     H220041   1.843   2.591   2.982 -0.4253  0.9828 -0.2161
 4830WAT    EPW20042   1.845   2.635   3.047  0.0943  0.0043  0.4391
 4831WAT      O20043   2.075   4.761   3.422 -0.9077 -0.1231  0.4426
 4831WAT     H120044   2.038   4.802   3.489 -0.6902 -1.1602  1.2213
 4831WAT     H220045   2.017   4.770   3.357 -1.2124  0.7102  0.8266
 4831WAT    EPW20046   2.061   4.768   3.422 -0.9206 -0.1532  0.6144
 4832WAT      O20047   5.049   4.994   5.366 -0.3440  0.1208  0.2083
 4832WAT     H120048   5.007   4.925   5.332 -0.5004  0.5220 -0.4283
 4832WAT     H220049   4.988   5.032   5.417 -0.9572  0.9948 -1.1105
 4832WAT    EPW20050   5.034   4.990   5.368 -0.4577  0.3092 -0.0806
 4833WAT      O20051   5.432   6.400   6.733 -0.6431  0.0024 -0.3396
 4833WAT     H120052   5.421   6.325   6.691 -1.2128  0.7004 -1.5016
 4833WAT     H220053   5.454   6.456   6.670 -0.5422  0.8880  0.4505
 4833WAT    EPW20054   5.434   6.397   6.718 -0.7124  0.2364 -0.3946
 4834WAT      O20055   4.790   5.420   4.491  0.4807  0.2953  0.0766
 4834WAT     H120056   4.863   5.465   4.508  0.2613  0.1469  1.4681
 4834WAT     H220057   4.816   5.337   4.493  0.4583  0.2738 -0.3845
 4834WAT    EPW20058   4.805   5.415   4.494  0.4450  0.2702  0.2140
 4835WAT      O20059   2.750   2.125   1.570 -0.0735 -0.4911 -0.8136
 4835WAT     H120060   2.734   2.193   1.623  1.2404  0.0364 -1.0621
 4835WAT     H220061   2.688   2.068   1.591  0.4033 -0.3005  1.3243
 4835WAT    EPW20062   2.738   2.127   1.581  0.1910 -0.3850 -0.5345
 4836WAT      O20063   5.313   5.550   7.017 -0.2323  0.4461 -0.1417
 4836WAT     H120064   5.337   5.474   7.053  0.0492  0.1473 -0.9409
 4836WAT     H220065   5.291   5.599   7.086 -3.2071 -1.2742  0.3228
 4836WAT    EPW20066   5.313   5.546   7.033 -0.6302  0.1478 -0.1912
 4837WAT      O20067   2.438   3.942   5.531  0.0140 -0.0754 -0.4174
 4837WAT     H120068   2.435   4.029   5.535 -1.5143  0.0408 -2.6319
 4837WAT     H220069   2.520   3.925   5.507  0.3880  0.7274  0.2668
 4837WAT    EPW20070   2.450   3.952   5.528 -0.1565  0.0604 -0.6434
 4838WAT      O20071   5.755   4.719   4.595 -0.0328 -0.0729  0.5468
 4838WAT     H120072   5.717   4.640   4.597  0.8023 -0.4859  0.5985
 4838WAT     H220073   5.746   4.743   4.512 -2.1138  0.7217  0.9252
 4838WAT    EPW20074   5.748   4.711   4.583 -0.2168 -0.0165  0.6103
 4839WAT      O20075   2.951   6.142   6.721  0.8189 -0.1116  0.5565
 4839WAT     H120076   2.925   6.060   6.735  0.6952 -0.2469 -0.3761
 4839WAT     H220077   2.894   6.172   6.662  2.5938 -0.3647 -1.4267
 4839WAT    EPW20078   2.939   6.134   6.714  1.0628 -0.1690  0.1258
 4840WAT      O20079   5.476   4.322   1.409  0.3144 -1.0457 -0.1538
 4840WAT     H120080   5.403   4.298   1.450 -0.6682 -0.5606 -1.5374
 4840WAT     H220081   5.532   4.258   1.429  0.2937 -0.2949  2.8000
 4840WAT    EPW20082   5.473   4.309   1.418  0.1662 -0.8631  0.0781
 4841WAT      O20083   3.213   0.444   4.804 -0.2200 -0.4900  0.1884
 4841WAT     H120084   3.127   0.458   4.800 -0.0909  0.2011 -0.3468
 4841WAT     H220085   3.219   0.357   4.800 -0.8863 -0.5377 -0.0109
 4841WAT    EPW20086   3.201   0.433   4.802 -0.2993 -0.3950  0.0799
 4842WAT      O20087   6.856   0.511   1.481 -0.4933  0.6560 -0.4934
 4842WAT     H120088   6.871   0.563   1.549 -2.1405 -1.2882  1.5087
 4842WAT     H220089   6.916   0.447   1.491 -1.7581 -0.4851  0.1644
 4842WAT    EPW20090   6.867   0.509   1.493 -0.9235  0.2002 -0.1005
 4843WAT      O20091   3.844   2.910   5.580  0.5999  0.1710 -0.0520
 4843WAT     H120092   3.850   2.940   5.661 -0.2401 -0.2798  0.1833
 4843WAT     H220093   3.760   2.925   5.559  0.6590 -0.2684 -0.6144
 4843WAT    EPW20094   3.832   2.917   5.589  0.4845  0.0395 -0.1003
 4844WAT      O20095   7.271   0.125   5.863  0.1335 -0.0209  0.1691
 4844WAT     H120096   7.212   0.064   5.882 -0.6612  0.3955 -0.8777
 4844WAT     H220097   7.323   0.086   5.804 -1.4301  0.8143 -1.8773
 4844WAT    EPW20098   7.270   0.110   5.857 -0.2149  0.1640 -0.2878
 4845WAT      O20099   7.024   2.694   5.237  0.1679  0.1597 -0.3251
 4845WAT     H120100   6.969   2.630   5.214 -0.1208  0.3487 -0.1651
 4845WAT     H220101   7.076   2.702   5.167  1.1526 -1.2373  0.1886
 4845WAT    EPW20102   7.024   2.686   5.223  0.2707 -0.0188 -0.2256
 4846WAT      O20103   1.486   5.723   3.191  0.2994 -0.0015 -0.1546
 4846WAT     H120104   1.490   5.772   3.120  0.4778  0.5659  0.2382
 4846WAT     H220105   1.486   5.781   3.256 -2.4683 -0.3754  0.2861
 4846WAT    EPW20106   1.487   5.739   3.190 -0.0831  0.0271 -0.0315
 4847WAT      O20107   0.322   2.903   1.209  0.5460  0.1132 -0.6544
 4847WAT     H120108   0.241   2.874   1.192  0.4605 -0.8511  1.2226
 4847WAT     H220109   0.369   2.830   1.216  1.0895  0.5634  0.5673
 4847WAT    EPW20110   0.317   2.888   1.208  0.6137  0.0373 -0.1967
 4848WAT      O20111   5.650   5.607   0.337 -0.0190 -0.1879  0.0972
 4848WAT     H120112   5.731   5.579   0.321 -0.5359 -0.6955 -1.9731
 4848WAT     H220113   5.601   5.557   0.285 -1.5130  1.0511  0.2481
 4848WAT    EPW20114   5.655   5.596   0.327 -0.3160 -0.0799 -0.1863
 4849WAT      O20115   5.903   1.979   6.858  0.0021 -0.6183 -0.2841
 4849WAT     H120116   5.938   2.057   6.838 -1.0458 -0.0373  0.0931
 4849WAT     H220117   5.938   1.925   6.799 -0.6543  0.4765 -1.7072
 4849WAT    EPW20118   5.914   1.982   6.847 -0.2497 -0.3708 -0.4386
 4850WAT      O20119   5.372   3.064   5.558 -0.6163 -0.1940  0.3463
 4850WAT     H120120   5.405   3.136   5.521 -2.2512  0.0106 -0.8481
 4850WAT     H220121   5.409   2.999   5.512  1.7160 -0.2764  2.1319
 4850WAT    EPW20122   5.383   3.065   5.545 -0.5133 -0.1759  0.4336
 4851WAT      O20123   3.571   2.666   5.824  0.5795  0.3394 -0.0992
 4851WAT     H120124   3.640   2.622   5.792  0.6016 -0.7959  1.3739
 4851WAT     H220125   3.607   2.735   5.863  0.6724  0.9423 -1.2230
 4851WAT    EPW20126   3.587   2.670   5.825  0.5965  0.2607 -0.0476
 4852WAT      O20127   6.712   4.282   4.200 -0.3153  0.3307 -0.5709
 4852WAT     H120128   6.637   4.325   4.188 -1.4430 -1.0599  1.0312
 4852WAT     H220129   6.735   4.304   4.281 -1.4755 -2.6753  0.7237
 4852WAT    EPW20130   6.704   4.292   4.210 -0.6533 -0.3188 -0.1430
 4853WAT      O20131   1.815   1.064   0.898  0.2347 -0.4227  0.4637
 4853WAT     H120132   1.895   1.098   0.904 -0.0955  0.3171  0.7425
 4853WAT     H220133   1.824   1.002   0.838  0.8401  0.1879 -0.0907
 4853WAT    EPW20134   1.828   1.060   0.890  0.2753 -0.2232  0.4230
 4854WAT      O20135   5.961   5.263   1.476 -0.1929 -0.5142  0.6261
 4854WAT     H120136   5.957   5.275   1.563  0.5415  0.6214  0.5126
 4854WAT     H220137   6.035   5.301   1.453 -1.1138  0.5695 -0.7153
 4854WAT    EPW20138   5.971   5.271   1.485 -0.2205 -0.1864  0.4112
 4855WAT      O20139   1.049   3.890   2.513 -0.0943  0.3698  0.8786
 4855WAT     H120140   1.037   3.976   2.518 -3.2689  0.0119  1.1722
 4855WAT     H220141   1.048   3.864   2.596 -3.4451 -0.3066  0.7459
 4855WAT    EPW20142   1.047   3.898   2.526 -1.0583  0.2170  0.9024
 4856WAT      O20143   6.781   5.729   5.060 -0.3611  0.5120  0.3840
 4856WAT     H120144   6.795   5.810   5.032 -0.3745  0.0976 -0.8870
 4856WAT     H220145   6.704   5.707   5.025 -0.3031 -0.0911  0.6143
 4856WAT    EPW20146   6.772   5.738   5.051 -0.3545  0.3617  0.2303
 4857WAT      O20147   2.559   1.058   1.688  0.0731  0.1345 -0.2900
 4857WAT     H120148   2.589   1.039   1.609  0.2680 -0.7426 -0.0167
 4857WAT     H220149   2.632   1.071   1.735 -0.0211  3.1121 -0.7794
 4857WAT    EPW20150   2.574   1.057   1.683  0.0880  0.4448 -0.3220
 4858WAT      O20151   2.120   1.815   7.318 -0.0032  0.2702  0.2415
 4858WAT     H120152   2.114   1.732   7.344  0.4398 -0.0417 -0.6175
 4858WAT     H220153   2.061   1.821   7.254  2.6144 -0.5437 -2.4998
 4858WAT    EPW20154   2.110   1.804   7.312  0.4489  0.1039 -0.2903
 4859WAT      O20155   1.794   3.004   6.707 -0.2056 -0.0033  0.4464
 4859WAT     H120156   1.857   2.987   6.766  0.7055  1.7703  0.0467
 4859WAT     H220157   1.739   2.936   6.716  0.8732 -0.7372  2.0042
 4859WAT    EPW20158   1.795   2.991   6.717  0.0883  0.1503  0.6175
 4860WAT      O20159   7.018   5.429   3.880 -0.0427  0.0410  0.2749
 4860WAT     H120160   7.063   5.476   3.821  0.4683 -0.3675  0.3356
 4860WAT     H220161   6.956   5.484   3.906  0.7435  0.8100  0.5856
 4860WAT    EPW20162   7.016   5.444   3.875  0.1489  0.0943  0.3298
 4861WAT      O20163   2.662   2.392   1.689  0.0259  0.7577 -0.2065
 4861WAT     H120164   2.585   2.392   1.648  0.6704 -0.9251 -1.5357
 4861WAT     H220165   2.718   2.419   1.627  0.6417  1.0984  0.4778
 4861WAT    EPW20166   2.659   2.396   1.674  0.2121  0.5595 -0.3018
 4862WAT      O20167   1.810   3.690   2.846 -0.2133 -0.5255  0.3165
 4862WAT     H120168   1.882   3.705   2.798 -1.6937  2.0140 -1.3364
 4862WAT     H220169   1.790   3.608   2.826  1.7328 -1.0256  0.1806
 4862WAT    EPW20170   1.818   3.680   2.836 -0.1445 -0.2243  0.0522
 4863WAT      O20171   0.610   2.035   0.229 -0.0726  0.4171  0.3441
 4863WAT     H120172   0.691   2.023   0.258  0.6545  2.7533 -0.4373
 4863WAT     H220173   0.582   2.104   0.276 -1.6511 -0.3828  0.6483
 4863WAT    EPW20174   0.618   2.044   0.240 -0.1984  0.6440  0.2736
 4864WAT      O20175   0.241   5.619   3.505 -0.2331  0.0662 -0.2170
 4864WAT     H120176   0.304   5.615   3.565  1.1815  2.7381 -1.3496
 4864WAT     H220177   0.193   5.688   3.530 -1.2435 -0.4375 -0.7039
 4864WAT    EPW20178   0.243   5.629   3.518 -0.1734  0.3865 -0.4562
 4865WAT      O20179   5.067   3.258   3.434  0.1915  0.4077 -0.3816
 4865WAT     H120180   5.060   3.329   3.484 -0.9070  0.1243 -0.1093
 4865WAT     H220181   4.984   3.236   3.418  0.5137  0.1999 -1.9145
 4865WAT    EPW20182   5.054   3.265   3.439  0.0768  0.3351 -0.5678
 4866WAT      O20183   3.597   2.753   0.579 -0.1412 -0.3461 -0.7530
 4866WAT     H120184   3.618   2.833   0.552  1.0730 -0.2924  0.2174
 4866WAT     H220185   3.632   2.701   0.519 -0.5644 -0.1601 -1.1625
 4866WAT    EPW20186   3.605   2.757   0.566 -0.0243 -0.3107 -0.6701
 4867WAT      O20187   2.405   6.439   6.818 -0.4484 -0.1484  0.1534
 4867WAT     H120188   2.322   6.411   6.823 -0.5604  0.2607  0.5597
 4867WAT     H220189   2.413   6.464   6.734 -0.4708 -0.9905 -0.1176
 4867WAT    EPW20190   2.394   6.438   6.806 -0.4682 -0.2123  0.1734
 4868WAT      O20191   6.621   4.787   0.162  0.3219 -0.2092 -0.3798
 4868WAT     H120192   6.621   4.721   0.220 -0.0983  0.5298  0.4898
 4868WAT     H220193   6.706   4.807   0.154  0.4066 -0.4968 -0.2200
 4868WAT    EPW20194   6.634   4.780   0.169  0.2723 -0.1425 -0.2277
 4869WAT      O20195   0.871   6.154   1.102  0.2041  0.4599  0.3606
 4869WAT     H120196   0.923   6.084   1.104 -1.4391 -0.8216  0.3719
 4869WAT     H220197   0.878   6.186   1.183  3.1299  2.0987 -0.3641
 4869WAT    EPW20198   0.880   6.149   1.114  0.3936  0.5127  0.2552
 4870WAT      O20199   2.264   1.863   4.587  0.5282 -0.4608 -0.4505
 4870WAT     H120200   2.225   1.786   4.574  0.3651 -0.8763  1.9103
 4870WAT     H220201   2.219   1.918   4.537 -1.2957 -1.4057  0.0539
 4870WAT    EPW20202   2.252   1.860   4.578  0.2347 -0.6618 -0.0272
 4871WAT      O20203   0.225   4.634   1.563  0.0083 -0.2044 -0.1428
 4871WAT     H120204   0.159   4.689   1.551 -1.2153 -1.2197  1.4385
 4871WAT     H220205   0.282   4.681   1.611  0.3680  0.5949 -1.3091
 4871WAT    EPW20206   0.224   4.649   1.569 -0.1193 -0.2363 -0.0815
 4872WAT      O20207   6.429   1.899   2.934  0.4980  0.3897  0.1879
 4872WAT     H120208   6.468   1.959   2.884  1.5470  0.3730  0.9528
 4872WAT     H220209   6.344   1.912   2.920  0.7460 -0.3988 -2.5187
 4872WAT    EPW20210   6.422   1.909   2.925  0.6896  0.2708 -0.0989
 4873WAT      O20211   5.474   7.231   7.044  0.5353 -0.0273 -0.4458
 4873WAT     H120212   5.437   7.299   7.084  1.2229  0.3267 -0.4015
 4873WAT     H220213   5.466   7.167   7.103  1.7762  0.5517  0.3931
 4873WAT    EPW20214   5.467   7.232   7.059  0.8202  0.1105 -0.3153
 4874WAT      O20215   5.713   3.391   7.164 -0.4189 -0.0207  0.4710
 4874WAT     H120216   5.761   3.464   7.154 -0.3778 -0.2886 -1.9470
 4874WAT     H220217   5.772   3.328   7.175 -0.3117 -0.0330 -0.1430
 4874WAT    EPW20218   5.729   3.393   7.164 -0.3970 -0.0621  0.0231
 4875WAT      O20219   0.838   0.743   6.807  0.3029 -0.0621 -0.1093
 4875WAT     H120220   0.818   0.759   6.723  1.5588 -1.4013 -0.7068
 4875WAT     H220221   0.831   0.821   6.845 -0.7956  0.4851 -1.3344
 4875WAT    EPW20222   0.834   0.757   6.800  0.3261 -0.1791 -0.3785
 4876WAT      O20223   4.501   2.126   0.577 -0.4685  0.8617 -0.2791
 4876WAT     H120224   4.494   2.139   0.663  3.2958  0.4867  0.2698
 4876WAT     H220225   4.539   2.199   0.548  0.9981 -0.1374 -1.0189
 4876WAT    EPW20226   4.505   2.138   0.586  0.3042  0.6587 -0.3073
 4877WAT      O20227   3.755   6.772   4.723  0.1724 -0.2620 -0.0858
 4877WAT     H120228   3.759   6.860   4.724 -0.4276 -0.2241 -0.4880
 4877WAT     H220229   3.672   6.755   4.741  0.2700 -0.7525 -0.0896
 4877WAT    EPW20230   3.744   6.783   4.726  0.0982 -0.3289 -0.1458
 4878WAT      O20231   6.363   6.360   4.787 -0.0766  0.7182  0.3555
 4878WAT     H120232   6.425   6.406   4.828 -0.1336  1.2674 -0.1565
 4878WAT     H220233   6.403   6.285   4.768  0.0854  0.6326  1.0105
 4878WAT    EPW20234   6.378   6.356   4.790 -0.0611  0.7867  0.3766
 4879WAT      O20235   5.505   6.417   2.685 -0.6893 -0.0051  0.4204
 4879WAT     H120236   5.431   6.381   2.713 -1.2236  0.3907 -0.4637
 4879WAT     H220237   5.488   6.440   2.603 -0.4384  2.3420  0.9401
 4879WAT    EPW20238   5.492   6.415   2.677 -0.7312  0.4001  0.3666
 4880WAT      O20239   2.201   2.361   7.029 -0.7744  0.3896  0.5288
 4880WAT     H120240   2.197   2.437   6.986  1.0131 -0.9828 -2.3136
 4880WAT     H220241   2.140   2.312   6.989 -1.0806 -0.0690  1.5273
 4880WAT    EPW20242   2.191   2.365   7.017 -0.5556  0.1191  0.2564
 4881WAT      O20243   2.016   5.854   5.431 -0.4312  0.3196  0.1019
 4881WAT     H120244   2.034   5.815   5.355 -1.2764  0.6119 -0.2660
 4881WAT     H220245   2.052   5.802   5.491  0.4691  0.2151 -0.5094
 4881WAT    EPW20246   2.024   5.841   5.429 -0.4230  0.3473 -0.0428
 4882WAT      O20247   0.763   3.985   4.086  0.2628 -0.1868 -0.5189
 4882WAT     H120248   0.780   4.045   4.147 -1.9268  1.5245 -1.4725
 4882WAT     H220249   0.723   3.922   4.131  1.9989 -0.7319  0.3786
 4882WAT    EPW20250   0.760   3.984   4.102  0.1958 -0.0145 -0.5272
 4883WAT      O20251   3.364   2.383   0.142 -0.1316  0.3624 -0.9333
 4883WAT     H120252   3.399   2.458   0.170  2.6850 -1.2973  0.3987
 4883WAT     H220253   3.294   2.373   0.193 -0.4797  1.9779 -1.0453
 4883WAT    EPW20254   3.359   2.392   0.153  0.2331  0.3559 -0.7531
 4884WAT      O20255   6.365   6.119   2.502  0.1803 -0.3149 -0.7578
 4884WAT     H120256   6.305   6.069   2.463 -1.4109  0.4677  0.5962
 4884WAT     H220257   6.423   6.133   2.438 -0.8662 -1.3878 -2.0214
 4884WAT    EPW20258   6.365   6.114   2.487 -0.2094 -0.3578 -0.7444
 4885WAT      O20259   0.679   1.317   2.917 -0.4435 -0.2576 -0.8431
 4885WAT     H120260   0.703   1.391   2.877  0.6014 -0.7144 -1.0868
 4885WAT     H220261   0.601   1.337   2.951  0.0489  1.1246 -0.4446
 4885WAT    EPW20262   0.671   1.331   2.916 -0.2164 -0.1209 -0.8203
 4886WAT      O20263   2.785   6.044   5.071 -0.3986  0.0570  1.2144
 4886WAT     H120264   2.814   5.967   5.099 -0.2047  0.3131  1.7405
 4886WAT     H220265   2.701   6.030   5.052 -0.2027 -0.4333  0.7047
 4886WAT    EPW20266   2.777   6.031   5.072 -0.3410  0.0224  1.2169
 4887WAT      O20267   5.345   2.632   6.241 -0.4405 -0.6714 -0.0837
 4887WAT     H120268   5.399   2.601   6.301  2.6286  1.5718 -1.3978
 4887WAT     H220269   5.308   2.701   6.279 -0.3356 -0.6401 -0.0409
 4887WAT    EPW20270   5.347   2.638   6.255  0.0284 -0.3354 -0.2715
 4888WAT      O20271   1.651   0.697   5.296  0.2761  0.1580  0.5841
 4888WAT     H120272   1.639   0.626   5.345  1.6606 -0.8111 -0.4023
 4888WAT     H220273   1.624   0.672   5.217 -0.8669  1.3262  0.5637
 4888WAT    EPW20274   1.645   0.683   5.292  0.3118  0.1874  0.4354
 4889WAT      O20275   0.070   5.614   1.530 -0.0318  0.3638 -0.1619
 4889WAT     H120276   0.131   5.666   1.563  1.4897 -0.0772 -2.0706
 4889WAT     H220277   0.059   5.643   1.448  0.1913 -1.6673 -0.9834
 4889WAT    EPW20278   0.077   5.626   1.523  0.2259 -0.0014 -0.5652
 4890WAT      O20279   4.595   4.662   1.784 -0.2283  0.1349  0.4841
 4890WAT     H120280   4.631   4.700   1.854  0.4922  0.0299  0.1836
 4890WAT     H220281   4.628   4.581   1.785 -2.1857 -0.7184  1.4394
 4890WAT    EPW20282   4.605   4.656   1.794 -0.4110 -0.0067  0.5808
 4891WAT      O20283   1.789   0.669   6.828 -0.0103 -0.0031 -0.2448
 4891WAT     H120284   1.706   0.645   6.840  0.6273 -2.3263 -0.0539
 4891WAT     H220285   1.802   0.659   6.742  0.8391 -2.6603  0.1024
 4891WAT    EPW20286   1.779   0.664   6.817  0.2094 -0.7388 -0.1653
 4892WAT      O20287   4.612   2.002   4.254  0.2754  0.3101 -0.4964
 4892WAT     H120288   4.570   2.009   4.177 -0.2837  0.1167 -0.2155
 4892WAT     H220289   4.594   2.077   4.294 -1.0071 -0.3202  0.1994
 4892WAT    EPW20290   4.603   2.014   4.248  0.0034  0.1884 -0.3521
 4893WAT      O20291   0.706   2.087   5.384 -0.3051 -0.6822 -0.0776
 4893WAT     H120292   0.647   2.112   5.443 -1.8029 -2.4630 -0.7339
 4893WAT     H220293   0.663   2.089   5.308  0.2673 -2.4531 -0.5153
 4893WAT    EPW20294   0.691   2.091   5.382 -0.4418 -1.2068 -0.2392
 4894WAT      O20295   6.982   1.005   6.301  0.1835  0.5533  0.1576
 4894WAT     H120296   6.959   1.014   6.217 -0.2426  0.4426  0.2624
 4894WAT     H220297   7.025   0.929   6.302 -0.4237  0.2040  0.1670
 4894WAT    EPW20298   6.985   0.995   6.289  0.0309  0.4853  0.1745
 4895WAT      O20299   3.972   1.592   5.907  0.6265 -0.4073  0.1067
 4895WAT     H120300   3.937   1.534   5.961 -2.5043  0.7622 -0.4625
 4895WAT     H220301   3.976   1.665   5.954 -2.0753  0.6087 -1.0412
 4895WAT    EPW20302   3.968   1.594   5.922 -0.2351 -0.0845 -0.1470
 4896WAT      O20303   6.700   6.600   6.586  0.0668  0.4756  1.5438
 4896WAT     H120304   6.783   6.598   6.613  0.3025 -1.3103  0.8051
 4896WAT     H220305   6.656   6.565   6.653  0.1399 -0.2617  1.2051
 4896WAT    EPW20306   6.706   6.595   6.600  0.1124  0.1029  1.3847
 4897WAT      O20307   0.097   3.586   2.560  0.0317  0.7724 -0.6699
 4897WAT     H120308   0.104   3.538   2.487 -0.3162 -0.0244 -0.1975
 4897WAT     H220309   0.055   3.533   2.615  0.9041  1.0928  0.3419
 4897WAT    EPW20310   0.092   3.571   2.557  0.1092  0.7020 -0.4506
 4898WAT      O20311   0.754   4.213   0.579  0.3569  0.1260 -0.0549
 4898WAT     H120312   0.715   4.199   0.502  0.0107  1.1062 -0.0694
 4898WAT     H220313   0.705   4.167   0.635 -0.0511  0.3108 -0.2578
 4898WAT    EPW20314   0.741   4.204   0.576  0.2455  0.2981 -0.0870
 4899WAT      O20315   0.876   6.713   6.291 -1.0480 -0.1541 -0.3789
 4899WAT     H120316   0.925   6.654   6.249 -1.1105 -0.3240 -0.2095
 4899WAT     H220317   0.925   6.785   6.288 -1.1025 -0.1300 -0.8524
 4899WAT    EPW20318   0.891   6.715   6.284 -1.0653 -0.1756 -0.4238
 4900WAT      O20319   5.758   1.758   2.962 -0.5608 -0.3602 -0.2101
 4900WAT     H120320   5.740   1.777   2.879 -1.1174 -0.4949 -0.1245
 4900WAT     H220321   5.808   1.825   2.988 -1.9235  0.6521 -0.1063
 4900WAT    EPW20322   5.763   1.771   2.953 -0.8443 -0.2306 -0.1821
 4901WAT      O20323   5.702   0.900   4.384  0.6668 -0.2197 -0.3287
 4901WAT     H120324   5.701   0.925   4.301  1.5434  1.0643  0.0139
 4901WAT     H220325   5.617   0.898   4.406  0.4534 -0.1473 -1.1165
 4901WAT    EPW20326   5.689   0.903   4.375  0.7648 -0.0194 -0.3944
 4902WAT      O20327   1.954   2.579   6.554 -0.1218  0.5151 -0.0319
 4902WAT     H120328   1.995   2.633   6.500  0.4382 -0.8224 -0.9938
 4902WAT     H220329   1.976   2.608   6.633  0.3979  1.4990 -0.5197
 4902WAT    EPW20330   1.963   2.591   6.558  0.0377  0.4628 -0.2461
 4903WAT      O20331   6.806   6.917   0.991 -0.0578  0.8647  0.4613
 4903WAT     H120332   6.758   6.980   0.956 -1.3844  1.0236  2.4364
 4903WAT     H220333   6.875   6.959   1.023 -0.2983  1.1312  0.6299
 4903WAT    EPW20334   6.809   6.932   0.991 -0.2893  0.9275  0.7780
 4904WAT      O20335   4.435   5.415   0.052 -0.3174  0.5334  0.0686
 4904WAT     H120336   4.477   5.357   0.002 -1.2788  1.1418 -1.5261
 4904WAT     H220337   4.482   5.488   0.042  0.2758  0.3383  1.2161
 4904WAT    EPW20338   4.448   5.417   0.043 -0.3718  0.5945  0.0026
 4905WAT      O20339   0.816   4.162   2.489  0.2724  0.6784 -0.3307
 4905WAT     H120340   0.770   4.092   2.467  0.0145  0.7156  0.0814
 4905WAT     H220341   0.883   4.161   2.433 -0.3467  0.7480 -1.0857
 4905WAT    EPW20342   0.819   4.152   2.478  0.1428  0.6942 -0.3814
 4906WAT      O20343   6.754   0.180   6.705  0.0143 -0.4021 -0.4002
 4906WAT     H120344   6.743   0.156   6.788  1.9398 -0.3373 -0.0800
 4906WAT     H220345   6.807   0.249   6.710  1.1994 -1.1560 -1.7332
 4906WAT    EPW20346   6.760   0.187   6.718  0.4738 -0.5039 -0.5498
 4907WAT      O20347   5.830   3.819   1.176  0.2848 -0.2913  0.3587
 4907WAT     H120348   5.835   3.861   1.099  2.6079 -1.3294 -0.1198
 4907WAT     H220349   5.780   3.750   1.158 -0.8499  0.5051  0.3325
 4907WAT    EPW20350   5.823   3.815   1.162  0.4604 -0.3270  0.2842
 4908WAT      O20351   0.972   1.655   0.341  0.1109 -0.1189  0.0401
 4908WAT     H120352   0.978   1.613   0.417  0.9922 -1.0157 -0.5127
 4908WAT     H220353   1.046   1.636   0.300 -0.1782  0.6627 -0.9061
 4908WAT    EPW20354   0.984   1.646   0.346  0.1984 -0.1359 -0.1814
 4909WAT      O20355   7.285   1.536   7.189 -0.3132 -0.2784  0.4000
 4909WAT     H120356   7.213   1.573   7.154 -1.0413 -0.8481  1.2710
 4909WAT     H220357   7.259   1.455   7.208  0.9791 -0.9466 -0.5391
 4909WAT    EPW20358   7.271   1.530   7.186 -0.2299 -0.4613  0.3899
 4910WAT      O20359   6.439   1.648   4.652  0.1141 -0.1991  0.7270
 4910WAT     H120360   6.493   1.596   4.608  0.8647  2.7336 -2.2441
 4910WAT     H220361   6.485   1.721   4.661 -2.9383  2.2349 -1.3801
 4910WAT    EPW20362   6.454   1.651   4.646 -0.2259  0.5937 -0.0231
 4911WAT      O20363   2.399   6.750   5.181 -0.0601  0.2265  0.0147
 4911WAT     H120364   2.481   6.752   5.211  0.2044  1.5256 -0.7096
 4911WAT     H220365   2.387   6.831   5.151 -1.5140 -0.0406 -0.1574
 4911WAT    EPW20366   2.410   6.762   5.181 -0.2358  0.3790 -0.1178
 4912WAT      O20367   2.060   4.794   3.885  1.0538 -0.1012 -0.3780
 4912WAT     H120368   2.144   4.799   3.908  1.3685  0.0101 -1.5104
 4912WAT     H220369   2.056   4.719   3.840  0.9156  0.7026 -1.7423
 4912WAT    EPW20370   2.072   4.784   3.882  1.0799  0.0340 -0.7468
 4913WAT      O20371   5.981   0.573   5.412 -0.2366  0.1942 -0.0458
 4913WAT     H120372   5.925   0.606   5.354  1.9633  2.2589 -1.1919
 4913WAT     H220373   6.055   0.565   5.366  1.3200  0.8489  2.1915
 4913WAT    EPW20374   5.984   0.576   5.397  0.3183  0.5959  0.1154
 4914WAT      O20375   1.371   6.675   1.335  0.2870 -0.0029 -0.0856
 4914WAT     H120376   1.454   6.675   1.360  0.1181  1.9684  0.6583
 4914WAT     H220377   1.334   6.614   1.386  0.8728  0.6512  1.1568
 4914WAT    EPW20378   1.378   6.666   1.346  0.3486  0.3849  0.2079
 4915WAT      O20379   3.750   2.062   2.695  0.6508  0.0466  0.7483
 4915WAT     H120380   3.715   2.054   2.775  0.8569  0.2650  0.8608
 4915WAT     H220381   3.748   2.148   2.680 -1.5433 -0.1298 -0.4413
 4915WAT    EPW20382   3.744   2.074   2.704  0.3571  0.0528  0.5892
 4916WAT      O20383   7.175   4.214   6.518 -0.6677 -0.7473 -1.0910
 4916WAT     H120384   7.257   4.237   6.536 -0.9211 -1.2755  0.9898
 4916WAT     H220385   7.175   4.204   6.431  1.6927 -1.6058 -1.0651
 4916WAT    EPW20386   7.187   4.216   6.507 -0.3565 -0.9521 -0.7798
 4917WAT      O20387   0.481   6.167   3.938 -0.5398 -0.2044 -0.3443
 4917WAT     H120388   0.460   6.240   3.981 -2.3731 -1.2358  0.6292
 4917WAT     H220389   0.506   6.196   3.860  0.6292  1.5666  0.6084
 4917WAT    EPW20390   0.482   6.182   3.933 -0.6379 -0.0951 -0.0597
 4918WAT      O20391   2.495   1.120   5.251 -0.2694 -0.3386  0.1024
 4918WAT     H120392   2.574   1.085   5.258 -0.5379 -0.8439  0.6688
 4918WAT     H220393   2.510   1.199   5.216  0.5481 -0.1700  0.8096
 4918WAT    EPW20394   2.509   1.127   5.247 -0.1883 -0.3884  0.2905
 4919WAT      O20395   0.351   5.434   6.080 -0.3697 -0.2059 -0.7418
 4919WAT     H120396   0.437   5.445   6.077 -0.3351 -0.4617 -0.7180
 4919WAT     H220397   0.320   5.505   6.041 -0.1227 -0.4916 -1.4689
 4919WAT    EPW20398   0.359   5.446   6.074 -0.3281 -0.2859 -0.8457
 4920WAT      O20399   0.289   3.730   6.365  0.8664  0.2020  0.3521
 4920WAT     H120400   0.232   3.796   6.355 -1.3399 -1.5861  0.3247
 4920WAT     H220401   0.367   3.769   6.360 -0.3312  2.7890  0.3529
 4920WAT    EPW20402   0.292   3.745   6.363  0.3636  0.3200  0.3482
 4921WAT      O20403   0.573   4.058   6.552  0.0088  0.1909 -0.2803
 4921WAT     H120404   0.580   4.009   6.624  0.6066 -0.1208 -0.5463
 4921WAT     H220405   0.501   4.105   6.566  0.6132  0.7957  0.9319
 4921WAT    EPW20406   0.564   4.058   6.565  0.1864  0.2342 -0.1406
 4922WAT      O20407   0.812   3.372   0.345  0.1264  0.3093  0.1555
 4922WAT     H120408   0.828   3.426   0.279 -0.0129 -1.5000 -1.4364
 4922WAT     H220409   0.879   3.317   0.344 -0.1668 -0.0987  1.1790
 4922WAT    EPW20410   0.824   3.372   0.335  0.0625 -0.0183  0.0715
 4923WAT      O20411   1.204   0.767   4.499  0.3948 -0.1796  0.3996
 4923WAT     H120412   1.130   0.741   4.462 -0.1447  1.0414  0.5579
 4923WAT     H220413   1.239   0.820   4.439  0.0715  0.9226  1.1542
 4923WAT    EPW20414   1.198   0.771   4.485  0.2673  0.1636  0.5345
 4924WAT      O20415   0.412   3.277   0.833  0.5988  0.2425  0.1964
 4924WAT     H120416   0.413   3.364   0.841 -1.0741  0.2148  1.1743
 4924WAT     H220417   0.327   3.257   0.843  0.9951 -1.5299  0.2628
 4924WAT    EPW20418   0.399   3.287   0.835  0.4102 -0.0234  0.3507
 4925WAT      O20419   3.855   2.221   1.151 -1.0227 -0.7171  0.7884
 4925WAT     H120420   3.932   2.193   1.120 -0.2305  1.5003  0.5980
 4925WAT     H220421   3.876   2.262   1.225 -1.6851  1.6603 -0.2495
 4925WAT    EPW20422   3.869   2.223   1.157 -1.0035 -0.0384  0.6070
 4926WAT      O20423   6.880   1.618   2.260  0.2359 -0.2667 -0.0155
 4926WAT     H120424   6.929   1.690   2.267 -1.1407  0.7524 -0.4211
 4926WAT     H220425   6.799   1.649   2.253 -0.1405 -1.5972 -4.0714
 4926WAT    EPW20426   6.875   1.633   2.260 -0.0231 -0.3127 -0.6745
 4927WAT      O20427   3.642   6.038   4.469 -0.0467 -0.3859  0.1735
 4927WAT     H120428   3.675   6.114   4.442  1.8589 -1.7437 -1.6860
 4927WAT     H220429   3.679   6.026   4.547 -0.0976  0.4028  0.3304
 4927WAT    EPW20430   3.652   6.047   4.476  0.2273 -0.4700 -0.0780
 4928WAT      O20431   6.169   4.513   0.940  0.3361 -0.1884 -0.0336
 4928WAT     H120432   6.233   4.537   0.994 -0.7097 -0.7062  1.5028
 4928WAT     H220433   6.096   4.527   0.986 -0.7179  0.5638 -1.7915
 4928WAT    EPW20434   6.167   4.519   0.955  0.0259 -0.1538 -0.0663
 4929WAT      O20435   5.218   6.302   2.417  0.1913  0.0805  0.8355
 4929WAT     H120436   5.207   6.336   2.337  0.5673 -0.2520  0.6363
 4929WAT     H220437   5.169   6.353   2.468 -0.4952 -0.0410  0.3117
 4929WAT    EPW20438   5.209   6.315   2.412  0.1455  0.0134  0.7287
 4930WAT      O20439   4.089   5.062   3.526  0.2196 -0.0070  0.1505
 4930WAT     H120440   4.105   5.143   3.499 -1.6969  0.0412 -1.0438
 4930WAT     H220441   4.084   5.070   3.613  2.4906  0.6139  0.2941
 4930WAT    EPW20442   4.091   5.075   3.535  0.2720  0.0918 -0.0047
 4931WAT      O20443   0.402   0.517   3.136 -0.4314  0.2828  0.8229
 4931WAT     H120444   0.377   0.560   3.064  0.0408  0.6900  0.8955
 4931WAT     H220445   0.480   0.485   3.115 -0.2928  0.3985  1.1487
 4931WAT    EPW20446   0.410   0.519   3.122 -0.3411  0.3601  0.8817
 4932WAT      O20447   1.137   4.680   2.256 -0.2862  0.0338  0.5392
 4932WAT     H120448   1.165   4.756   2.225 -0.3131 -0.3593 -0.5041
 4932WAT     H220449   1.078   4.655   2.197 -1.7686  0.1355  1.8896
 4932WAT    EPW20450   1.132   4.687   2.243 -0.5092 -0.0092  0.5845
 4933WAT      O20451   1.781   1.808   0.044 -0.1438  0.3668 -0.2307
 4933WAT     H120452   1.792   1.835   0.126  1.9920 -0.0084 -0.3425
 4933WAT     H220453   1.806   1.724   0.047 -1.4849 -0.0887 -0.9843
 4933WAT    EPW20454   1.786   1.800   0.057 -0.0264  0.2441 -0.3585
 4934WAT      O20455   6.597   2.054   6.875 -0.1168  0.3451  0.0368
 4934WAT     H120456   6.512   2.052   6.852 -0.2824 -1.2868  0.6513
 4934WAT     H220457   6.628   1.978   6.845  0.4258 -0.3792  2.2087
 4934WAT    EPW20458   6.589   2.042   6.867 -0.0611 -0.0030  0.4484
 4935WAT      O20459   1.077   3.952   5.249 -0.0665  0.1687 -1.2343
 4935WAT     H120460   1.036   3.898   5.194 -0.7878 -0.6932  0.1167
 4935WAT     H220461   1.161   3.948   5.224 -0.1565 -1.3301 -1.3460
 4935WAT    EPW20462   1.083   3.944   5.237 -0.1863 -0.1800 -1.0512
 4936WAT      O20463   2.315   4.871   3.967  0.6176 -0.1153 -0.3152
 4936WAT     H120464   2.320   4.953   3.995 -4.2975 -0.1690  1.7290
 4936WAT     H220465   2.332   4.824   4.038  0.6905 -0.7999 -0.7764
 4936WAT    EPW20466   2.318   4.876   3.981 -0.0977 -0.2243 -0.0814
 4937WAT      O20467   0.762   5.562   7.336  0.3261  0.0130  0.2520
 4937WAT     H120468   0.742   5.533   7.415 -0.7122 -0.9457 -0.3446
 4937WAT     H220469   0.780   5.647   7.349  0.7203 -0.2569  1.5825
 4937WAT    EPW20470   0.762   5.571   7.349  0.2309 -0.1685  0.3604
 4938WAT      O20471   1.177   5.616   3.928 -0.5844 -0.2685  0.3120
 4938WAT     H120472   1.200   5.642   3.848  0.6445 -0.7079  0.5008
 4938WAT     H220473   1.158   5.532   3.917  1.2568 -0.7928  0.7478
 4938WAT    EPW20474   1.178   5.607   3.915 -0.1309 -0.4109  0.4042
 4939WAT      O20475   1.794   1.984   1.798  0.4186 -0.1522 -0.4033
 4939WAT     H120476   1.828   1.946   1.869 -0.2060  0.0971  0.0426
 4939WAT     H220477   1.732   1.928   1.773 -0.7781  0.7256  0.4904
 4939WAT    EPW20478   1.790   1.970   1.805  0.1495  0.0143 -0.2054
 4940WAT      O20479   1.860   1.538   0.046  0.1409 -0.1858  0.3587
 4940WAT     H120480   1.932   1.491   0.062 -1.0455 -2.1865  0.1366
 4940WAT     H220481   1.801   1.506   0.102 -0.5822  1.5058  0.6329
 4940WAT    EPW20482   1.862   1.526   0.057 -0.1412 -0.2315  0.3664
 4941WAT      O20483   5.320   2.633   3.350 -0.3551 -0.1133  0.6822
 4941WAT     H120484   5.263   2.593   3.403 -3.3915  1.5919 -1.0311
 4941WAT     H220485   5.289   2.616   3.271  2.1793  0.1211 -0.4545
 4941WAT    EPW20486   5.307   2.624   3.346 -0.4293  0.1732  0.2612
 4942WAT      O20487   4.952   3.918   1.600  0.0595 -0.0027 -0.2588
 4942WAT     H120488   4.947   3.971   1.669  0.4606  1.1026 -1.0506
 4942WAT     H220489   4.991   3.846   1.632  2.8348  1.5492  0.1023
 4942WAT    EPW20490   4.957   3.915   1.615  0.5287  0.3899 -0.3224
 4943WAT      O20491   1.369   4.518   0.569  0.4735 -0.1238  0.0819
 4943WAT     H120492   1.309   4.514   0.507 -0.8109  1.4142  1.1423
 4943WAT     H220493   1.427   4.458   0.545  0.2930  0.6953 -2.8379
 4943WAT    EPW20494   1.369   4.509   0.556  0.2571  0.2244 -0.1928
 4944WAT      O20495   4.003   1.249   6.305 -0.3360 -0.4384  0.1005
 4944WAT     H120496   3.968   1.291   6.236 -0.7025  2.2317  1.7560
 4944WAT     H220497   4.088   1.251   6.289 -0.4884 -1.0454 -0.8726
 4944WAT    EPW20498   4.010   1.256   6.292 -0.4127 -0.1336  0.2013
 4945WAT      O20499   1.132   5.317   1.821 -0.0435 -0.2044 -0.3041
 4945WAT     H120500   1.128   5.384   1.877 -0.0375 -0.9191  0.5659
 4945WAT     H220501   1.162   5.354   1.748  0.8091  0.5957  0.4240
 4945WAT    EPW20502   1.136   5.333   1.818  0.0833 -0.1918 -0.0680
 4946WAT      O20503   5.188   3.237   0.289 -0.3808 -0.2534 -0.2415
 4946WAT     H120504   5.265   3.279   0.285  0.1775 -1.2730 -0.5064
 4946WAT     H220505   5.153   3.267   0.363  0.7040 -0.4833  0.3832
 4946WAT    EPW20506   5.194   3.248   0.299 -0.1381 -0.4380 -0.1883
 4947WAT      O20507   2.448   3.267   2.540 -0.3224 -0.0603 -0.0641
 4947WAT     H120508   2.454   3.191   2.582  0.3553 -0.2281 -0.4334
 4947WAT     H220509   2.367   3.295   2.556  0.3496  0.6041  2.5586
 4947WAT    EPW20510   2.437   3.260   2.548 -0.1231  0.0131  0.2688
 4948WAT      O20511   6.482   0.011   5.425  0.1623  0.6823 -0.6307
 4948WAT     H120512   6.396   0.026   5.420  0.3152  1.3516 -1.4777
 4948WAT     H220513   6.517   0.090   5.416  0.8475  0.7268  1.7543
 4948WAT    EPW20514   6.475   0.025   5.423  0.2861  0.7877 -0.4035
 4949WAT      O20515   0.674   1.993   0.594 -0.7449 -0.4279  0.0876
 4949WAT     H120516   0.682   1.932   0.656  0.8670  0.0449  0.3877
 4949WAT     H220517   0.598   1.973   0.555 -1.2016 -1.4541  1.4230
 4949WAT    EPW20518   0.664   1.981   0.598 -0.5742 -0.5097  0.3292
 4950WAT      O20519   6.992   0.716   4.181 -0.1447 -0.0413 -0.0848
 4950WAT     H120520   7.046   0.647   4.182 -1.0284 -0.7722 -0.7614
 4950WAT     H220521   7.041   0.781   4.213  0.4803 -1.1297  1.2754
 4950WAT    EPW20522   7.008   0.715   4.186 -0.1829 -0.3101  0.0162
 4951WAT      O20523   6.691   2.270   1.277  0.2855  0.2831  0.3143
 4951WAT     H120524   6.712   2.341   1.324  1.7859  0.1628 -0.1248
 4951WAT     H220525   6.768   2.240   1.249 -0.4380 -0.6347 -0.8040
 4951WAT    EPW20526   6.705   2.276   1.280  0.4003  0.1297  0.0842
 4952WAT      O20527   4.830   5.789   4.978 -0.0812  0.2679 -0.2512
 4952WAT     H120528   4.822   5.875   4.988 -0.4846  0.5871 -2.5959
 4952WAT     H220529   4.752   5.765   4.947  0.5056 -0.6697 -1.0606
 4952WAT    EPW20530   4.817   5.798   4.975 -0.0541  0.1765 -0.7171
 4953WAT      O20531   2.356   7.008   0.384  0.7221 -1.0458 -0.3258
 4953WAT     H120532   2.406   7.079   0.375  0.5536 -0.5364  2.1298
 4953WAT     H220533   2.414   6.943   0.385  1.3530 -0.5224  1.7155
 4953WAT    EPW20534   2.372   7.009   0.383  0.7904 -0.8932  0.3385
 4954WAT      O20535   6.623   4.923   5.525  0.1701 -0.0235  0.0161
 4954WAT     H120536   6.641   5.002   5.491 -1.9868  0.9369  0.9104
 4954WAT     H220537   6.579   4.883   5.462  1.0521 -0.4563 -0.3453
 4954WAT    EPW20538   6.619   4.929   5.511 -0.0182  0.0544  0.0948
 4955WAT      O20539   2.903   7.204   5.915  0.2899 -0.7822  0.1748
 4955WAT     H120540   2.923   7.205   5.830 -0.6516 -1.5038 -0.0764
 4955WAT     H220541   2.893   7.288   5.935  2.4562 -0.4606  0.0770
 4955WAT    EPW20542   2.904   7.216   5.905  0.4708 -0.8413  0.1233
 4956WAT      O20543   1.368   2.953   7.310 -0.1762  0.3348  0.1036
 4956WAT     H120544   1.305   2.995   7.267 -0.0634 -1.4179 -1.9500
 4956WAT     H220545   1.431   2.943   7.250  0.7058 -0.7823  1.1590
 4956WAT    EPW20546   1.368   2.957   7.295 -0.0292 -0.0892 -0.0439
 4957WAT      O20547   3.464   3.544   0.130 -0.2604 -0.5232  0.2749
 4957WAT     H120548   3.435   3.486   0.188  1.2752 -0.3997  1.2349
 4957WAT     H220549   3.532   3.503   0.094  1.4774  0.9794  1.6765
 4957WAT    EPW20550   3.470   3.529   0.133  0.2232 -0.2830  0.6237
 4958WAT      O20551   6.404   0.604   1.884  0.1041 -0.2015  0.4541
 4958WAT     H120552   6.323   0.594   1.852  0.8296  0.3775 -1.7397
 4958WAT     H220553   6.416   0.532   1.931 -1.1479 -1.0227 -0.4191
 4958WAT    EPW20554   6.394   0.592   1.886  0.0263 -0.2372  0.0010
 4959WAT      O20555   0.941   4.124   6.124 -0.2652 -0.0396 -0.3148
 4959WAT     H120556   0.873   4.148   6.174 -1.5154  0.1961 -2.0375
 4959WAT     H220557   0.968   4.050   6.161  0.6615  1.4701  2.3204
 4959WAT    EPW20558   0.935   4.117   6.137 -0.3130  0.2183 -0.1800
 4960WAT      O20559   4.672   0.836   2.148 -0.6399  0.0489 -0.1556
 4960WAT     H120560   4.747   0.876   2.128 -0.5690  0.4989  0.9472
 4960WAT     H220561   4.629   0.896   2.195 -1.0594 -0.7331  0.4786
 4960WAT    EPW20562   4.677   0.851   2.152 -0.6914 -0.0002  0.1010
 4961WAT      O20563   0.829   4.467   6.415 -0.0277  0.8320  0.5648
 4961WAT     H120564   0.747   4.475   6.386  0.0267  0.0244  0.1613
 4961WAT     H220565   0.863   4.404   6.365  0.5259  0.4429  1.4013
 4961WAT    EPW20566   0.822   4.459   6.403  0.0621  0.6552  0.6288
 4962WAT      O20567   2.768   2.734   5.729  0.3172  0.5774  0.5053
 4962WAT     H120568   2.796   2.728   5.812  0.3058  0.3051  0.4908
 4962WAT     H220569   2.823   2.790   5.693  1.5860 -0.8174  0.1777
 4962WAT    EPW20570   2.780   2.741   5.736  0.5029  0.3312  0.4547
 4963WAT      O20571   1.910   0.494   1.535  0.3111 -0.5558 -0.1862
 4963WAT     H120572   1.895   0.515   1.451  3.0373  2.4347 -0.1553
 4963WAT     H220573   1.849   0.538   1.579 -0.8768 -1.8062 -0.5461
 4963WAT    EPW20574   1.899   0.504   1.529  0.5384 -0.2988 -0.2348
 4964WAT      O20575   3.724   1.827   4.548 -0.4022 -0.8279  0.4184
 4964WAT     H120576   3.645   1.850   4.575 -1.4415 -0.6555 -2.4553
 4964WAT     H220577   3.769   1.902   4.547 -1.9614  0.2760 -3.0982
 4964WAT    EPW20578   3.719   1.841   4.552 -0.7861 -0.6394 -0.5256
 4965WAT      O20579   0.148   7.100   4.584 -0.0877 -0.3115  0.1881
 4965WAT     H120580   0.118   7.057   4.515  0.5222  1.2535 -1.1333
 4965WAT     H220581   0.076   7.121   4.629 -0.5634 -0.7087 -0.3803
 4965WAT    EPW20582   0.133   7.097   4.581 -0.0679 -0.1390 -0.0911
 4966WAT      O20583   5.743   5.490   3.321  0.1962 -0.0399  0.2514
 4966WAT     H120584   5.768   5.436   3.385  1.5640 -0.3963 -0.5393
 4966WAT     H220585   5.804   5.553   3.323 -0.0423  0.2157 -0.3675
 4966WAT    EPW20586   5.755   5.491   3.331  0.3630 -0.0548  0.0432
 4967WAT      O20587   5.705   1.792   2.679 -0.2360  0.5297 -0.1348
 4967WAT     H120588   5.640   1.756   2.634 -1.3357  1.1143  0.9382
 4967WAT     H220589   5.727   1.862   2.631  0.4696 -0.3392 -1.1285
 4967WAT    EPW20590   5.699   1.797   2.665 -0.2943  0.4877 -0.1231
 4968WAT      O20591   4.543   1.389   3.718 -0.0461 -0.1886  0.0886
 4968WAT     H120592   4.542   1.447   3.783  0.1640  0.2933 -0.3285
 4968WAT     H220593   4.494   1.324   3.748 -0.8256  0.4788  0.3144
 4968WAT    EPW20594   4.536   1.388   3.732 -0.1302 -0.0188  0.0603
 4969WAT      O20595   0.772   0.780   1.625  0.3645 -0.4588  0.3352
 4969WAT     H120596   0.829   0.846   1.616  0.5453 -0.7165 -0.4480
 4969WAT     H220597   0.719   0.789   1.557  0.2031 -0.9442  0.3950
 4969WAT    EPW20598   0.773   0.791   1.614  0.3673 -0.5685  0.2283
 4970WAT      O20599   5.574   4.060   3.478  0.0008 -0.2683 -0.3226
 4970WAT     H120600   5.581   4.146   3.487 -0.3893 -0.3012  0.4374
 4970WAT     H220601   5.513   4.051   3.416 -0.1308 -0.0001 -0.2336
 4970WAT    EPW20602   5.566   4.071   3.470 -0.0763 -0.2336 -0.1972
 4971WAT      O20603   2.933   7.194   4.279 -0.4902 -0.5003  0.3114
 4971WAT     H120604   3.007   7.153   4.256 -0.9906 -0.6304 -1.1798
 4971WAT     H220605   2.884   7.189   4.207 -0.4036  3.1654 -0.1735
 4971WAT    EPW20606   2.937   7.187   4.265 -0.5513  0.0220  0.0195
 4972WAT      O20607   6.883   1.112   5.296  0.4966 -0.2386 -0.2608
 4972WAT     H120608   6.914   1.068   5.364 -0.1088  0.9528  0.8220
 4972WAT     H220609   6.930   1.185   5.295 -1.4452  1.1043  0.7538
 4972WAT    EPW20610   6.894   1.116   5.306  0.1203  0.1358  0.0491
 4973WAT      O20611   5.285   5.502   1.983  0.1699 -0.4632 -0.1202
 4973WAT     H120612   5.369   5.493   2.002  0.0639  0.5041  0.9057
 4973WAT     H220613   5.258   5.565   2.037 -1.2086 -0.7464 -0.4288
 4973WAT    EPW20614   5.293   5.510   1.994 -0.0494 -0.3621 -0.0142
 4974WAT      O20615   2.750   6.601   5.638  0.0482  0.7796 -0.0555
 4974WAT     H120616   2.827   6.570   5.611 -1.0234  0.3827 -3.0141
 4974WAT     H220617   2.721   6.540   5.693  1.3285  0.3497  0.1715
 4974WAT    EPW20618   2.757   6.588   5.642  0.0790  0.6575 -0.4590
 4975WAT      O20619   7.125   5.907   4.925 -0.2004  0.0629 -0.0111
 4975WAT     H120620   7.098   5.861   4.856  0.4888  0.2847 -0.4419
 4975WAT     H220621   7.131   5.989   4.894 -0.7231  0.3224  0.5519
 4975WAT    EPW20622   7.122   5.913   4.910 -0.1758  0.1340  0.0085
 4976WAT      O20623   4.615   1.103   1.521  0.4846 -0.0590 -0.1742
 4976WAT     H120624   4.578   1.024   1.528  1.4724 -0.5588 -0.4694
 4976WAT     H220625   4.547   1.158   1.532 -0.6723 -0.9284 -2.3736
 4976WAT    EPW20626   4.599   1.100   1.524  0.4596 -0.2613 -0.5427
 4977WAT      O20627   5.724   6.042   2.854 -0.4337 -0.8441  0.0635
 4977WAT     H120628   5.729   6.128   2.868 -0.8929 -0.8311  0.1586
 4977WAT     H220629   5.797   6.011   2.891 -0.7990 -0.6174  0.9991
 4977WAT    EPW20630   5.736   6.050   2.862 -0.5555 -0.8087  0.2158
 4978WAT      O20631   0.589   2.448   7.374  0.1165  0.2647 -0.0161
 4978WAT     H120632   0.553   2.394   7.315 -0.3612 -1.2248  1.5527
 4978WAT     H220633   0.666   2.411   7.391 -0.9038 -0.9492  2.2998
 4978WAT    EPW20634   0.595   2.435   7.368 -0.1048 -0.1347  0.5578
 4979WAT      O20635   6.924   5.169   2.463  0.3673  0.3296  0.4717
 4979WAT     H120636   6.860   5.223   2.487  1.3979  1.9006 -0.1936
 4979WAT     H220637   6.915   5.101   2.518 -1.9725  0.3819  0.2457
 4979WAT    EPW20638   6.913   5.167   2.475  0.1739  0.5694  0.3400
 4980WAT      O20639   3.227   6.305   4.504  0.3614  0.0545 -0.0232
 4980WAT     H120640   3.278   6.244   4.540  0.0402 -0.0035  0.3469
 4980WAT     H220641   3.283   6.357   4.462  0.5470 -1.0970 -1.2481
 4980WAT    EPW20642   3.243   6.304   4.503  0.3414 -0.1242 -0.1495
 4981WAT      O20643   6.932   6.935   6.654 -0.3665  0.7474  0.3733
 4981WAT     H120644   6.891   6.883   6.711  1.0516 -1.0605 -0.1675
 4981WAT     H220645   6.925   6.893   6.578  0.8211  1.3265 -0.0859
 4981WAT    EPW20646   6.925   6.921   6.651  0.0184  0.5659  0.2255
 4982WAT      O20647   5.785   3.568   4.609 -0.4418  0.1738  0.3495
 4982WAT     H120648   5.811   3.624   4.670  1.5929 -0.7127  0.3703
 4982WAT     H220649   5.799   3.610   4.534  0.0036  0.1025  0.3954
 4982WAT    EPW20650   5.791   3.582   4.607 -0.0754  0.0323  0.3593
 4983WAT      O20651   5.832   1.159   3.943  0.1188 -0.2475 -0.4116
 4983WAT     H120652   5.753   1.186   3.970  0.9226  2.0321 -0.0798
 4983WAT     H220653   5.863   1.115   4.012  0.0035  0.8127  0.3442
 4983WAT    EPW20654   5.825   1.157   3.957  0.2205  0.2458 -0.2509
 4984WAT      O20655   5.339   2.783   1.151 -0.7538 -0.0009  0.4938
 4984WAT     H120656   5.366   2.784   1.068 -0.8710 -2.0353  0.3821
 4984WAT     H220657   5.413   2.771   1.197 -1.0178 -2.3285  0.4052
 4984WAT    EPW20658   5.354   2.781   1.146 -0.8101 -0.6453  0.4642
 4985WAT      O20659   4.143   2.773   0.890 -0.2438  0.0222  0.6575
 4985WAT     H120660   4.130   2.824   0.821 -0.9499 -0.6973  0.2321
 4985WAT     H220661   4.185   2.704   0.857 -0.4594 -0.2617  0.9639
 4985WAT    EPW20662   4.147   2.770   0.875 -0.3800 -0.1260  0.6399
 4986WAT      O20663   4.775   4.879   4.740  0.3104 -0.1254  0.4651
 4986WAT     H120664   4.845   4.841   4.776  1.3909 -0.4524 -1.8360
 4986WAT     H220665   4.807   4.917   4.669 -1.1554  3.1314  1.3515
 4986WAT    EPW20666   4.790   4.879   4.735  0.2535  0.3074  0.2562
 4987WAT      O20667   0.703   5.723   6.893 -0.1243  0.6012  0.2657
 4987WAT     H120668   0.642   5.716   6.955 -0.8790  0.9571 -0.4090
 4987WAT     H220669   0.679   5.663   6.834  1.9961 -1.5348  1.4049
 4987WAT    EPW20670   0.690   5.713   6.894  0.0774  0.3383  0.3343
 4988WAT      O20671   1.530   1.893   3.033  0.0243 -0.3915 -0.6193
 4988WAT     H120672   1.463   1.903   2.978 -0.3138 -0.0959 -0.1675
 4988WAT     H220673   1.491   1.884   3.110  0.5223  1.3252 -0.1218
 4988WAT    EPW20674   1.514   1.893   3.036  0.0479 -0.0942 -0.4791
 4989WAT      O20675   1.829   3.304   3.461  0.4820 -0.7615  0.0093
 4989WAT     H120676   1.877   3.244   3.502  0.7516 -0.2069  0.5133
 4989WAT     H220677   1.785   3.343   3.525  0.2661 -0.4585 -0.3217
 4989WAT    EPW20678   1.829   3.301   3.476  0.4899 -0.6348  0.0349
 4990WAT      O20679   5.062   5.345   6.978 -0.0317  0.1020  0.3051
 4990WAT     H120680   5.092   5.420   6.946  0.1472  0.5767  1.5162
 4990WAT     H220681   5.037   5.366   7.059 -0.9107 -0.9346  0.3232
 4990WAT    EPW20682   5.063   5.359   6.985 -0.1351  0.0190  0.4866
 4991WAT      O20683   0.707   2.177   0.828  0.7297  0.8417 -0.1057
 4991WAT     H120684   0.685   2.125   0.761 -0.2002  1.8390 -0.5981
 4991WAT     H220685   0.643   2.165   0.886  0.7993  1.0316  0.0111
 4991WAT    EPW20686   0.694   2.167   0.827  0.6026  1.0171 -0.1612
 4992WAT      O20687   0.298   4.261   2.355 -0.2740 -0.0546  0.5454
 4992WAT     H120688   0.252   4.199   2.395 -1.3558  1.4401  1.7057
 4992WAT     H220689   0.238   4.316   2.325  0.6463  0.2226 -0.9176
 4992WAT    EPW20690   0.283   4.260   2.356 -0.2979  0.2071  0.5007
 4993WAT      O20691   4.144   5.205   0.326 -0.2581  0.3639 -0.3372
 4993WAT     H120692   4.128   5.287   0.301 -2.3295  0.3391  0.6517
 4993WAT     H220693   4.190   5.215   0.400  2.4109  0.4890 -1.8706
 4993WAT    EPW20694   4.148   5.219   0.333 -0.1698  0.3787 -0.4176
 4994WAT      O20695   3.767   6.577   1.600  0.2256 -0.4360 -0.0619
 4994WAT     H120696   3.705   6.634   1.578 -0.3666 -0.8076  0.6077
 4994WAT     H220697   3.822   6.624   1.649 -0.7510 -0.6336  1.2734
 4994WAT    EPW20698   3.766   6.592   1.604 -0.0061 -0.5201  0.2343
 4995WAT      O20699   0.306   3.306   3.971 -0.6115 -0.0386 -0.0276
 4995WAT     H120700   0.276   3.291   3.890 -2.8291  0.4349  0.6439
 4995WAT     H220701   0.393   3.308   3.960 -0.8520  0.5936 -2.4830
 4995WAT    EPW20702   0.315   3.304   3.957 -0.9746  0.1248 -0.2911
 4996WAT      O20703   7.141   3.641   1.363 -0.0636 -0.3190 -0.4250
 4996WAT     H120704   7.080   3.582   1.340  0.7986 -1.7235  0.7003
 4996WAT     H220705   7.202   3.593   1.402  0.8580  1.3107  0.2377
 4996WAT    EPW20706   7.141   3.625   1.365  0.1999 -0.2857 -0.1609
 4997WAT      O20707   2.687   3.293   0.564 -0.1514 -0.4625  0.1499
 4997WAT     H120708   2.761   3.335   0.583 -0.1402 -0.3432 -0.1529
 4997WAT     H220709   2.635   3.313   0.631 -0.1418  0.0222  0.0184
 4997WAT    EPW20710   2.691   3.302   0.577 -0.1483 -0.3733  0.0858
 4998WAT      O20711   6.641   0.132   0.229  0.5464 -0.2287 -0.0717
 4998WAT     H120712   6.652   0.187   0.162 -1.1285 -1.0133 -1.0647
 4998WAT     H220713   6.568   0.161   0.267  0.6801 -0.6652  0.5255
 4998WAT    EPW20714   6.632   0.144   0.225  0.3188 -0.4091 -0.1302
 4999WAT      O20715   1.987   6.632   7.358 -0.0839  0.2546 -0.1069
 4999WAT     H120716   2.005   6.548   7.369  0.2424  0.2443 -0.6801
 4999WAT     H220717   2.043   6.658   7.297 -1.4894  0.3978 -1.4213
 4999WAT    EPW20718   1.998   6.624   7.351 -0.2434  0.2742 -0.3857
 5000WAT      O20719   4.152   6.422   6.919  0.0106  0.1488 -0.0154
 5000WAT     H120720   4.136   6.459   6.996  0.6090  2.7468 -1.0415
 5000WAT     H220721   4.110   6.473   6.862 -0.5646 -1.7961 -1.4570
 5000WAT    EPW20722   4.144   6.435   6.922  0.0140  0.2453 -0.3799
 5001WAT      O20723   3.036   6.983   1.349  0.0688 -0.1763  0.5247
 5001WAT     H120724   3.090   6.917   1.332  0.7082  0.3372  0.4916
 5001WAT     H220725   3.084   7.037   1.398 -1.1553 -0.7622  2.4701
 5001WAT    EPW20726   3.051   6.981   1.354 -0.0176 -0.1870  0.8072
 5002WAT      O20727   4.071   4.250   2.429  0.5077  0.0001 -0.0755
 5002WAT     H120728   4.073   4.176   2.383 -0.8259  0.3461 -0.7428
 5002WAT     H220729   4.117   4.306   2.380 -0.0865  0.1063 -0.5204
 5002WAT    EPW20730   4.079   4.248   2.415  0.2229  0.0669 -0.2398
 5003WAT      O20731   3.374   0.437   7.182  0.1933  0.0484  0.3702
 5003WAT     H120732   3.416   0.485   7.242 -1.8456  2.5136  0.0069
 5003WAT     H220733   3.301   0.413   7.224 -1.1658  1.6416 -0.9314
 5003WAT    EPW20734   3.369   0.441   7.197 -0.3086  0.6479  0.1242
 5004WAT      O20735   1.901   0.206   0.598  0.5748  0.1399  0.1161
 5004WAT     H120736   1.943   0.172   0.530  2.9079  0.1841  1.4220
 5004WAT     H220737   1.961   0.205   0.662 -0.7417  2.2965  1.5218
 5004WAT    EPW20738   1.916   0.200   0.598  0.7250  0.4650  0.5167
 5005WAT      O20739   6.172   5.441   4.913  0.7921 -0.2664  0.1073
 5005WAT     H120740   6.200   5.510   4.867 -2.2839  0.9136 -0.2019
 5005WAT     H220741   6.137   5.477   4.984  0.8296 -1.6772  0.8673
 5005WAT    EPW20742   6.171   5.456   4.917  0.3432 -0.3005  0.1739
 5006WAT      O20743   1.486   3.516   3.492  0.2258 -0.2357  0.1458
 5006WAT     H120744   1.473   3.459   3.427 -0.6817  0.3190 -0.1865
 5006WAT     H220745   1.551   3.567   3.463 -0.1832  0.0161 -0.3471
 5006WAT    EPW20746   1.494   3.515   3.478  0.0313 -0.1166  0.0239
 5007WAT      O20747   7.287   6.192   1.964 -0.3237  0.0844  0.1702
 5007WAT     H120748   7.303   6.264   1.919 -0.9259  0.7166  0.9233
 5007WAT     H220749   7.221   6.155   1.921 -0.5212  0.3885  0.2063
 5007WAT    EPW20750   7.279   6.197   1.951 -0.4418  0.2227  0.2868
 5008WAT      O20751   1.722   0.939   4.901  0.1720 -0.0157  0.6165
 5008WAT     H120752   1.673   0.997   4.858  2.0281 -0.1035 -1.8935
 5008WAT     H220753   1.733   0.975   4.979 -1.8611  1.1225  0.4510
 5008WAT    EPW20754   1.717   0.953   4.906  0.1459  0.1395  0.2213
 5009WAT      O20755   5.605   2.180   2.846  0.3174 -0.5079  0.1127
 5009WAT     H120756   5.566   2.169   2.768 -2.6866  0.1589  1.3811
 5009WAT     H220757   5.601   2.266   2.859  2.4335 -0.3967  0.2803
 5009WAT    EPW20758   5.598   2.191   2.836  0.1862 -0.3930  0.3248
 5010WAT      O20759   2.746   1.598   6.238 -0.4504  0.0305 -0.1939
 5010WAT     H120760   2.746   1.563   6.159  0.4698  0.3244 -0.3310
 5010WAT     H220761   2.790   1.673   6.228  0.6263 -0.4404  0.8052
 5010WAT    EPW20762   2.752   1.604   6.225 -0.1554  0.0044 -0.0666
 5011WAT      O20763   6.501   0.223   0.897 -0.1845 -0.0741  0.3882
 5011WAT     H120764   6.427   0.192   0.865  0.3110  0.3821 -1.3069
 5011WAT     H220765   6.475   0.276   0.961 -1.1994 -1.2200  0.9682
 5011WAT    EPW20766   6.486   0.226   0.902 -0.2612 -0.1760  0.2235
 5012WAT      O20767   6.986   4.973   4.733 -0.2547  0.0974 -0.0820
 5012WAT     H120768   7.022   5.039   4.690  0.6218 -1.9030 -2.7019
 5012WAT     H220769   6.906   4.966   4.698  0.1160 -0.9680 -0.7674
 5012WAT    EPW20770   6.979   4.982   4.721 -0.0705 -0.3555 -0.5703
 5013WAT      O20771   5.746   0.635   4.563  0.3230 -0.5302 -0.3841
 5013WAT     H120772   5.663   0.615   4.582  0.5598 -0.2174  1.1474
 5013WAT     H220773   5.792   0.579   4.612  0.9855  0.6434  0.4057
 5013WAT    EPW20774   5.741   0.624   4.573  0.4559 -0.3107 -0.0412
 5014WAT      O20775   2.407   1.911   0.942 -0.2902 -0.2304  0.2432
 5014WAT     H120776   2.331   1.916   0.985  0.4336 -0.7655  1.6560
 5014WAT     H220777   2.466   1.928   1.003  0.7041  1.4256 -1.1099
 5014WAT    EPW20778   2.404   1.914   0.958 -0.0364 -0.0648  0.2520
 5015WAT      O20779   5.883   2.731   1.333  0.0926  0.3784  0.2387
 5015WAT     H120780   5.966   2.756   1.349 -0.1875  0.1289  2.4408
 5015WAT     H220781   5.891   2.652   1.299  0.7769  0.8589 -0.7779
 5015WAT    EPW20782   5.897   2.723   1.330  0.1523  0.4125  0.4138
 5016WAT      O20783   0.492   0.657   0.746  0.0154  0.2863 -0.4152
 5016WAT     H120784   0.424   0.632   0.698 -0.3836 -0.0554  0.3143
 5016WAT     H220785   0.514   0.734   0.712 -1.5137  0.9917  0.1227
 5016WAT    EPW20786   0.486   0.665   0.734 -0.2694  0.3400 -0.2280
 5017WAT      O20787   4.383   2.143   2.557 -0.3667 -0.4268 -0.0613
 5017WAT     H120788   4.414   2.076   2.603  0.3179 -0.4551 -0.5543
 5017WAT     H220789   4.452   2.194   2.545 -1.0129  0.7428  0.9013
 5017WAT    EPW20790   4.398   2.140   2.562 -0.3610 -0.2582  0.0081
 5018WAT      O20791   0.588   6.446   4.688 -0.2117 -0.4599  0.2485
 5018WAT     H120792   0.539   6.498   4.638 -0.8484 -1.3969 -0.1157
 5018WAT     H220793   0.563   6.467   4.769  0.2275  0.4634  0.1669
 5018WAT    EPW20794   0.577   6.457   4.693 -0.2409 -0.4619  0.1826
 5019WAT      O20795   7.275   2.105   5.196  0.3673 -0.4182  0.4390
 5019WAT     H120796   7.244   2.050   5.135 -1.1589  0.6992  0.1598
 5019WAT     H220797   7.341   2.060   5.232  0.0182 -1.8997 -0.6727
 5019WAT    EPW20798   7.280   2.090   5.193  0.0903 -0.4720  0.2336
 5020WAT      O20799   0.621   5.380   6.065  0.8726  0.3503  0.6708
 5020WAT     H120800   0.609   5.301   6.101  1.9621  0.2907  0.9258
 5020WAT     H220801   0.664   5.424   6.127 -0.5331  1.4632  0.9083
 5020WAT    EPW20802   0.626   5.374   6.080  0.8259  0.5059  0.7436
 5021WAT      O20803   3.973   6.765   1.721  0.5665 -0.0624  0.4618
 5021WAT     H120804   4.028   6.715   1.768  0.3548  0.1568  0.9434
 5021WAT     H220805   3.928   6.809   1.781 -1.0588 -1.1862  0.1414
 5021WAT    EPW20806   3.975   6.764   1.737  0.2951 -0.1960  0.4856
 5022WAT      O20807   2.322   6.236   3.895 -0.9143 -0.2631  0.4596
 5022WAT     H120808   2.245   6.205   3.870 -1.8647  2.0786  0.2971
 5022WAT     H220809   2.302   6.305   3.945  1.0630 -0.1658  1.2129
 5022WAT    EPW20810   2.308   6.241   3.899 -0.7626  0.0972  0.5469
 5023WAT      O20811   4.737   1.761   7.202 -0.4330  0.0192 -0.2988
 5023WAT     H120812   4.731   1.818   7.268  0.4123 -1.2655  0.9226
 5023WAT     H220813   4.734   1.813   7.131  0.4207  1.6101  0.7595
 5023WAT    EPW20814   4.736   1.777   7.201 -0.1820  0.0644  0.0380
 5024WAT      O20815   0.957   0.869   0.938 -0.0302  0.3362 -0.6521
 5024WAT     H120816   0.898   0.806   0.924 -0.9250  0.7285  1.0397
 5024WAT     H220817   0.967   0.869   1.024  2.1032  0.6339 -0.8606
 5024WAT    EPW20818   0.950   0.860   0.948  0.1527  0.4381 -0.4330
 5025WAT      O20819   1.350   5.966   5.874  0.2686 -0.3444  0.2720
 5025WAT     H120820   1.361   5.889   5.835  0.2826 -0.4282  0.4409
 5025WAT     H220821   1.336   6.021   5.808 -1.3305 -0.7483  0.2355
 5025WAT    EPW20822   1.350   5.963   5.859  0.0345 -0.4165  0.2916
 5026WAT      O20823   4.387   1.125   3.550  0.1607 -0.3776  0.4032
 5026WAT     H120824   4.429   1.055   3.582 -1.1116 -0.4526  2.0482
 5026WAT     H220825   4.341   1.154   3.618 -0.8361  0.9304 -0.7751
 5026WAT    EPW20826   4.386   1.119   3.565 -0.1745 -0.1954  0.4722
 5027WAT      O20827   4.076   6.638   1.209  0.2070  0.4152  0.1030
 5027WAT     H120828   4.161   6.623   1.221 -0.3248 -2.3685  1.2436
 5027WAT     H220829   4.042   6.629   1.289 -1.2351  0.8562 -0.4253
 5027WAT    EPW20830   4.083   6.634   1.222 -0.0846  0.0692  0.1935
 5028WAT      O20831   0.336   6.625   6.025  0.6360 -0.1543  0.5702
 5028WAT     H120832   0.375   6.549   6.006 -1.9074 -1.7345  1.1521
 5028WAT     H220833   0.287   6.641   5.954  2.1856  1.8021 -0.1638
 5028WAT    EPW20834   0.335   6.616   6.012  0.4892 -0.0987  0.5477
 5029WAT      O20835   3.335   6.523   0.523  0.0971 -0.3399  0.3945
 5029WAT     H120836   3.327   6.508   0.608 -1.9693 -1.1836  0.1029
 5029WAT     H220837   3.410   6.483   0.502  1.7674  1.6356  2.1084
 5029WAT    EPW20838   3.345   6.515   0.532  0.0386 -0.1727  0.6046
 5030WAT      O20839   5.302   1.319   2.437 -0.2057  0.2600 -0.2914
 5030WAT     H120840   5.284   1.237   2.461 -1.6097  0.7061  0.3081
 5030WAT     H220841   5.368   1.342   2.488 -0.6585 -0.0798  0.4656
 5030WAT    EPW20842   5.309   1.310   2.448 -0.4800  0.2757 -0.0910
 5031WAT      O20843   4.595   6.868   3.333  0.2177 -0.2927 -0.1456
 5031WAT     H120844   4.510   6.882   3.348  0.0209 -0.5830 -0.9648
 5031WAT     H220845   4.618   6.936   3.284  0.1236 -0.9026 -1.0649
 5031WAT    EPW20846   4.586   6.880   3.328  0.1748 -0.4257 -0.4024
 5032WAT      O20847   0.397   3.567   1.965 -0.5091  0.6790  0.2427
 5032WAT     H120848   0.472   3.607   1.984  0.6747 -0.8948 -0.8357
 5032WAT     H220849   0.416   3.521   1.894 -2.2141 -0.5704  0.5383
 5032WAT    EPW20850   0.411   3.566   1.957 -0.5861  0.2619  0.1270
 5033WAT      O20851   3.775   7.039   2.287 -0.3955  0.4428  0.4478
 5033WAT     H120852   3.735   6.970   2.322  0.0109 -0.0546 -0.0439
 5033WAT     H220853   3.722   7.065   2.224  0.2049 -0.4397 -0.4427
 5033WAT    EPW20854   3.761   7.033   2.283 -0.2468  0.2390  0.2436
 5034WAT      O20855   2.682   1.005   2.244 -0.2297  0.0848 -0.0589
 5034WAT     H120856   2.734   0.957   2.295  0.5259 -0.2874 -1.1360
 5034WAT     H220857   2.652   1.068   2.296  1.7134  0.6083  0.4713
 5034WAT    EPW20858   2.685   1.007   2.259  0.1690  0.1071 -0.1397
 5035WAT      O20859   1.909   2.236   1.455  0.0190 -0.0444  0.2252
 5035WAT     H120860   1.979   2.288   1.458  0.6795 -0.9679  1.9835
 5035WAT     H220861   1.935   2.164   1.497 -1.8437 -0.5912  0.5147
 5035WAT    EPW20862   1.923   2.233   1.462 -0.1586 -0.2616  0.5277
 5036WAT      O20863   5.839   1.178   3.404 -0.2172 -0.0184 -0.6773
 5036WAT     H120864   5.782   1.112   3.398 -0.1102 -0.2204  0.3318
 5036WAT     H220865   5.860   1.179   3.489  1.5176 -0.1519 -1.0653
 5036WAT    EPW20866   5.834   1.168   3.416  0.0549 -0.0680 -0.5855
 5037WAT      O20867   1.414   1.006   1.074  0.3649 -0.2977  0.3545
 5037WAT     H120868   1.357   1.062   1.039 -0.9561  0.2916  3.1451
 5037WAT     H220869   1.379   0.928   1.058  0.5114 -0.1545 -0.7426
 5037WAT    EPW20870   1.401   1.003   1.067  0.1914 -0.1895  0.6047
 5038WAT      O20871   3.057   1.388   7.356  0.2022  0.4379  0.1980
 5038WAT     H120872   3.098   1.465   7.368 -0.1288  0.7116 -0.4144
 5038WAT     H220873   3.117   1.339   7.316  0.5693  0.2227  0.9920
 5038WAT    EPW20874   3.072   1.392   7.352  0.2075  0.4465  0.2248
 5039WAT      O20875   0.380   0.984   0.370  0.5223 -0.2092 -0.4142
 5039WAT     H120876   0.387   0.903   0.340 -0.6674 -0.4096 -0.2179
 5039WAT     H220877   0.441   1.028   0.326  0.0874 -0.8755 -1.7206
 5039WAT    EPW20878   0.390   0.979   0.359  0.2823 -0.3372 -0.5782
 5040WAT      O20879   5.291   5.836   4.532  0.3812 -0.0795 -0.1161
 5040WAT     H120880   5.307   5.753   4.554  0.5710 -0.5255 -1.8010
 5040WAT     H220881   5.265   5.873   4.607  2.2657 -1.1272  1.1277
 5040WAT    EPW20882   5.289   5.829   4.547  0.6876 -0.3001 -0.1813
 5041WAT      O20883   6.142   0.206   4.150  0.5329 -0.3496 -0.3878
 5041WAT     H120884   6.209   0.150   4.141  0.0388 -0.8367 -1.2014
 5041WAT     H220885   6.172   0.279   4.114 -0.0448 -1.1587 -2.6752
 5041WAT    EPW20886   6.157   0.209   4.143  0.3746 -0.5411 -0.8459
 5042WAT      O20887   1.338   0.108   7.233 -0.9241  0.0963  0.1794
 5042WAT     H120888   1.289   0.102   7.161 -1.7558  0.9265  0.6621
 5042WAT     H220889   1.380   0.031   7.235 -2.2760 -0.6810 -0.1932
 5042WAT    EPW20890   1.337   0.096   7.222 -1.2466  0.1041  0.1956
 5043WAT      O20891   5.734   5.734   4.925  0.1183 -0.0404  0.3241
 5043WAT     H120892   5.696   5.766   4.997 -1.8839  0.6204 -0.9473
 5043WAT     H220893   5.749   5.650   4.945  0.1014  0.2655  1.6920
 5043WAT    EPW20894   5.730   5.726   4.939 -0.1800  0.1024  0.3383
 5044WAT      O20895   5.113   6.043   5.451 -0.8447  0.1740  0.2269
 5044WAT     H120896   5.043   6.093   5.462 -0.8472  0.0178  0.9880
 5044WAT     H220897   5.104   6.011   5.370 -1.4791  0.4109  0.2036
 5044WAT    EPW20898   5.101   6.046   5.441 -0.9388  0.1859  0.3359
 5045WAT      O20899   5.010   7.155   6.481  0.0141  0.1415 -0.1478
 5045WAT     H120900   5.065   7.146   6.414  1.1237 -0.7803  0.8442
 5045WAT     H220901   5.057   7.200   6.539 -0.6754  0.2714  0.3167
 5045WAT    EPW20902   5.025   7.161   6.479  0.0761  0.0245  0.0674
 5046WAT      O20903   1.697   3.429   7.030  0.4307 -0.7331  0.3542
 5046WAT     H120904   1.755   3.431   6.965  1.2206 -2.4615  0.9311
 5046WAT     H220905   1.701   3.346   7.058  0.7855  0.1213  3.1743
 5046WAT    EPW20906   1.707   3.417   7.025  0.5998 -0.8622  0.8560
 5047WAT      O20907   4.342   6.701   3.157  0.0646 -0.2821  0.0885
 5047WAT     H120908   4.339   6.636   3.215 -0.2656 -2.0757 -1.8226
 5047WAT     H220909   4.414   6.684   3.112 -1.1196 -0.5829 -1.7811
 5047WAT    EPW20910   4.352   6.689   3.159 -0.1591 -0.5915 -0.4700
 5048WAT      O20911   1.909   1.746   6.233  0.6762  0.2980  0.1810
 5048WAT     H120912   1.950   1.674   6.261  2.6330  0.9894 -0.7977
 5048WAT     H220913   1.944   1.761   6.155 -2.0277  0.5084 -1.1154
 5048WAT    EPW20914   1.920   1.737   6.226  0.5658  0.4312 -0.1551
 5049WAT      O20915   5.049   5.630   4.883  0.0714  0.5264  0.2962
 5049WAT     H120916   5.055   5.567   4.943  0.3641 -1.4846 -1.6817
 5049WAT     H220917   4.990   5.685   4.916 -1.7816 -1.8532  1.2904
 5049WAT    EPW20918   5.041   5.629   4.897 -0.1591 -0.1222  0.1509
 5050WAT      O20919   2.518   5.876   2.667 -0.4219  0.6686 -0.1657
 5050WAT     H120920   2.543   5.959   2.676 -0.5539  0.5727  1.4074
 5050WAT     H220921   2.545   5.838   2.741 -1.0532 -0.5128 -0.5132
 5050WAT    EPW20922   2.526   5.883   2.680 -0.5347  0.4799  0.0153
 5051WAT      O20923   2.255   1.541   4.935  0.1285  0.0434  0.4131
 5051WAT     H120924   2.289   1.525   4.856  0.0490 -1.0546  0.5847
 5051WAT     H220925   2.174   1.511   4.929 -1.3328  3.6506 -0.3412
 5051WAT    EPW20926   2.248   1.534   4.923 -0.0991  0.4140  0.3270
 5052WAT      O20927   4.923   1.077   2.951  0.6970  0.1710  0.1802
 5052WAT     H120928   4.904   1.159   2.972  1.0302  0.1127  0.7156
 5052WAT     H220929   4.846   1.037   2.953  0.4559  0.5742 -0.5903
 5052WAT    EPW20930   4.909   1.083   2.954  0.7106  0.2220  0.1455
 5053WAT      O20931   6.280   2.646   4.473 -0.4069  0.7641  0.1957
 5053WAT     H120932   6.206   2.686   4.450  0.0621  0.5736 -1.8446
 5053WAT     H220933   6.339   2.709   4.474 -0.4119  0.7753  1.0428
 5053WAT    EPW20934   6.277   2.661   4.470 -0.3384  0.7376  0.0194
 5054WAT      O20935   1.713   1.639   1.715 -0.0974 -0.4214  0.5070
 5054WAT     H120936   1.643   1.688   1.733 -0.1222 -1.0183  2.2209
 5054WAT     H220937   1.688   1.558   1.738  0.8579 -0.7881  0.3123
 5054WAT    EPW20938   1.699   1.634   1.721  0.0401 -0.5638  0.7314
 5055WAT      O20939   5.460   1.343   1.982 -0.4739 -0.2285 -0.2581
 5055WAT     H120940   5.439   1.295   2.052 -0.3569  0.4367  0.2368
 5055WAT     H220941   5.415   1.417   1.993 -0.7365 -0.2476 -1.0699
 5055WAT    EPW20942   5.450   1.347   1.994 -0.4954 -0.1331 -0.3049
 5056WAT      O20943   5.559   6.259   0.444 -0.5416  0.0760 -0.0392
 5056WAT     H120944   5.628   6.234   0.397  0.4097  1.1018  0.7318
 5056WAT     H220945   5.578   6.232   0.525 -0.2971  1.6388  0.4720
 5056WAT    EPW20946   5.572   6.252   0.449 -0.3649  0.4584  0.1502
 5057WAT      O20947   1.125   6.227   5.269  0.4953 -0.0441 -0.1384
 5057WAT     H120948   1.192   6.211   5.322  1.2387  0.8398 -0.7715
 5057WAT     H220949   1.055   6.222   5.321  1.1661  0.3798  0.8282
 5057WAT    EPW20950   1.125   6.224   5.284  0.7042  0.1491 -0.0891
 5058WAT      O20951   4.989   1.696   3.084 -0.0694 -0.3240 -0.1802
 5058WAT     H120952   5.043   1.764   3.070  1.1285 -1.3601 -0.7295
 5058WAT     H220953   4.959   1.710   3.165 -0.0144  0.9645 -0.3602
 5058WAT    EPW20954   4.993   1.708   3.094  0.1157 -0.2867 -0.2879
 5059WAT      O20955   3.643   4.334   3.110 -0.6892 -0.9634  0.3810
 5059WAT     H120956   3.568   4.297   3.134 -0.3914 -1.7060  0.2076
 5059WAT     H220957   3.685   4.346   3.185 -0.9562 -0.6017  0.4734
 5059WAT    EPW20958   3.638   4.330   3.124 -0.6846 -1.0196  0.3691
 5060WAT      O20959   1.222   6.760   7.133 -0.3503  0.5315  0.1004
 5060WAT     H120960   1.178   6.720   7.197  0.8113 -0.8263  0.1213
 5060WAT     H220961   1.217   6.844   7.153  0.1671  0.1345  2.1407
 5060WAT    EPW20962   1.215   6.766   7.145 -0.1023  0.2723  0.4049
 5061WAT      O20963   6.325   3.284   4.714  0.3890 -0.2969 -0.0841
 5061WAT     H120964   6.264   3.321   4.664  0.1150 -1.8936 -0.9715
 5061WAT     H220965   6.396   3.332   4.698  0.0326 -0.1096 -1.1466
 5061WAT    EPW20966   6.326   3.297   4.705  0.2959 -0.5051 -0.3721
 5062WAT      O20967   4.120   6.527   7.163  0.1984  0.2972 -1.0063
 5062WAT     H120968   4.111   6.465   7.225 -1.2641  0.8982 -0.5867
 5062WAT     H220969   4.184   6.578   7.195  0.9601 -0.5959 -1.0425
 5062WAT    EPW20970   4.128   6.525   7.177  0.0949  0.2541 -0.9496
 5063WAT      O20971   1.020   4.718   0.226 -0.5219  0.4983  0.3460
 5063WAT     H120972   1.023   4.794   0.182 -0.4043 -0.1015 -0.7296
 5063WAT     H220973   1.095   4.679   0.203 -0.3287  0.2862  1.3256
 5063WAT    EPW20974   1.032   4.723   0.216 -0.4760  0.3784  0.3318
 5064WAT      O20975   2.117   0.348   0.002 -0.6450  0.2836  0.6419
 5064WAT     H120976   2.037   0.375  -0.017 -1.2364 -0.9272  1.2992
 5064WAT     H220977   2.119   0.349   0.089  0.5241  1.5699  0.6427
 5064WAT    EPW20978   2.106   0.352   0.012 -0.5597  0.2948  0.7391
 5065WAT      O20979   2.145   3.864   3.219 -1.2445  0.3663  0.6279
 5065WAT     H120980   2.187   3.914   3.160 -1.2623  0.6208  0.8293
 5065WAT     H220981   2.086   3.821   3.171 -1.1257  0.4239  0.4288
 5065WAT    EPW20982   2.142   3.865   3.203 -1.2296  0.4124  0.6282
 5066WAT      O20983   7.085   6.051   3.904 -0.2330  0.2244  0.5523
 5066WAT     H120984   7.135   5.992   3.944 -0.5550 -0.8293 -0.5714
 5066WAT     H220985   7.138   6.120   3.896  0.0196  0.2884  2.2410
 5066WAT    EPW20986   7.100   6.053   3.909 -0.2432  0.0782  0.6357
 5067WAT      O20987   4.613   6.822   6.532 -0.1301  0.0827  0.5457
 5067WAT     H120988   4.554   6.853   6.589 -0.3659  0.3291  0.1740
 5067WAT     H220989   4.688   6.856   6.560 -0.0492 -0.7429  1.4017
 5067WAT    EPW20990   4.615   6.832   6.545 -0.1530 -0.0028  0.6173
 5068WAT      O20991   0.314   0.800   1.628  0.2953  0.3039  0.1627
 5068WAT     H120992   0.252   0.847   1.590 -0.5317 -0.0898  0.9916
 5068WAT     H220993   0.347   0.853   1.688 -0.9103 -0.2516  1.3736
 5068WAT    EPW20994   0.310   0.815   1.631 -0.0050  0.1637  0.4640
 5069WAT      O20995   1.107   3.038   4.232 -0.6604  0.2886 -0.2282
 5069WAT     H120996   1.137   3.047   4.314 -2.8371 -1.3609  0.8350
 5069WAT     H220997   1.135   2.959   4.209 -2.2236 -0.3351 -0.0614
 5069WAT    EPW20998   1.116   3.028   4.240 -1.2129 -0.0472 -0.0465
 5070WAT      O20999   1.513   5.657   1.237  0.3191  0.3991  0.5180
 5070WAT     H121000   1.575   5.659   1.298 -0.8186  1.3422  1.7093
 5070WAT     H221001   1.511   5.740   1.207  0.1933  0.1840 -0.0917
 5070WAT    EPW21002   1.522   5.670   1.241  0.1325  0.5066  0.6039
 5071WAT      O21003   4.482   5.357   5.794  0.1451 -0.2989  0.2335
 5071WAT     H121004   4.521   5.281   5.812  0.1197  0.1968  2.5835
 5071WAT     H221005   4.462   5.390   5.872 -0.4112  1.8564 -0.7401
 5071WAT    EPW21006   4.485   5.350   5.808  0.0592  0.0927  0.4368
 5072WAT      O21007   4.865   4.001   2.993  0.2908 -0.0330 -0.2787
 5072WAT     H121008   4.869   4.074   2.945 -0.6090 -0.2874 -0.7631
 5072WAT     H221009   4.912   4.021   3.064  1.0619  0.5893 -0.9464
 5072WAT    EPW21010   4.873   4.015   2.996  0.2718  0.0214 -0.4489
 5073WAT      O21011   4.528   4.004   3.837  0.0413 -0.1086 -0.3261
 5073WAT     H121012   4.464   3.952   3.809 -1.0298  1.5696 -1.1380
 5073WAT     H221013   4.578   3.951   3.885 -0.8850 -1.9076 -1.2566
 5073WAT    EPW21014   4.526   3.989   3.840 -0.2538 -0.1265 -0.5835
 5074WAT      O21015   1.342   1.993   6.328  0.0177 -0.2690 -0.6008
 5074WAT     H121016   1.403   1.935   6.307 -1.0200 -1.3722 -0.6314
 5074WAT     H221017   1.345   1.997   6.415 -0.1078 -0.5894 -0.5819
 5074WAT    EPW21018   1.352   1.985   6.338 -0.1541 -0.4793 -0.6025
 5075WAT      O21019   0.260   2.772   0.785  0.8075  0.0864  0.2236
 5075WAT     H121020   0.318   2.836   0.775 -0.0882  0.9539  0.4157
 5075WAT     H221021   0.183   2.814   0.785  0.1757 -1.0329 -0.0490
 5075WAT    EPW21022   0.257   2.788   0.783  0.5819  0.0492  0.2117
 5076WAT      O21023   5.508   4.486   2.304  0.4621 -0.1539 -0.6074
 5076WAT     H121024   5.512   4.456   2.386  0.4127  1.0220 -0.1515
 5076WAT     H221025   5.446   4.437   2.267 -0.2983  0.0295  0.3849
 5076WAT    EPW21026   5.500   4.474   2.311  0.3425  0.0469 -0.3935
 5077WAT      O21027   4.350   4.713   6.961  0.5359  0.9569 -0.2159
 5077WAT     H121028   4.419   4.661   6.973  0.6904  1.0422 -0.7098
 5077WAT     H221029   4.384   4.791   6.945  0.3139  1.0863 -0.0763
 5077WAT    EPW21030   4.365   4.717   6.960  0.5259  0.9886 -0.2682
 5078WAT      O21031   1.136   4.205   6.693  0.3754  0.2146 -0.4199
 5078WAT     H121032   1.083   4.275   6.695 -0.0536 -0.1253  0.5339
 5078WAT     H221033   1.124   4.168   6.771  2.6009  0.5281  0.1245
 5078WAT    EPW21034   1.126   4.210   6.705  0.6408  0.2107 -0.1986
 5079WAT      O21035   1.479   3.486   4.890  0.2142 -0.5803  0.1355
 5079WAT     H121036   1.532   3.458   4.827  0.9200  1.0737 -0.0516
 5079WAT     H221037   1.533   3.500   4.958  0.1516  1.5219 -0.1855
 5079WAT    EPW21038   1.495   3.484   4.891  0.3092 -0.0255  0.0605
 5080WAT      O21039   0.777   2.343   4.154  0.1164 -0.4408  0.2341
 5080WAT     H121040   0.764   2.415   4.107  1.2579 -1.3759 -1.6774
 5080WAT     H221041   0.747   2.364   4.233 -2.6215  0.9888 -1.0461
 5080WAT    EPW21042   0.771   2.357   4.159 -0.1195 -0.3677 -0.2373
 5081WAT      O21043   0.022   3.861   3.374  0.3346 -0.6278 -0.2490
 5081WAT     H121044  -0.064   3.872   3.385  0.0716 -1.8632 -0.8312
 5081WAT     H221045   0.052   3.855   3.456  0.4384  3.1585  0.1392
 5081WAT    EPW21046   0.013   3.861   3.388  0.3111 -0.2510 -0.2777
 5082WAT      O21047   4.493   5.124   5.290 -0.3900  0.2288  0.5361
 5082WAT     H121048   4.422   5.075   5.301 -0.7254  0.2590 -1.2088
 5082WAT     H221049   4.496   5.172   5.363 -4.0477  2.5814 -0.6012
 5082WAT    EPW21050   4.483   5.124   5.303 -0.9798  0.5808  0.1104
 5083WAT      O21051   1.518   0.928   5.942 -0.3948 -0.3068  0.8177
 5083WAT     H121052   1.558   0.870   5.993 -0.1717 -0.4479  0.4848
 5083WAT     H221053   1.452   0.957   5.991 -0.7090 -1.0797  0.8644
 5083WAT    EPW21054   1.514   0.924   5.956 -0.4083 -0.4418  0.7754
 5084WAT      O21055   0.380   1.522   2.349  0.1757  0.1249 -0.7189
 5084WAT     H121056   0.297   1.541   2.329  0.0748  1.0549  0.4948
 5084WAT     H221057   0.386   1.437   2.333 -0.3270  0.4511 -3.1097
 5084WAT    EPW21058   0.369   1.512   2.343  0.0865  0.3104 -0.8928
 5085WAT      O21059   3.038   5.042   2.546  0.0009 -0.3635  0.6559
 5085WAT     H121060   3.023   5.091   2.475 -0.8793  0.2681  1.2519
 5085WAT     H221061   3.124   5.031   2.545 -0.0353 -0.8100 -0.7908
 5085WAT    EPW21062   3.048   5.048   2.535 -0.1345 -0.3361  0.5302
 5086WAT      O21063   0.700   1.850   0.871 -0.2836 -0.0128 -0.3754
 5086WAT     H121064   0.697   1.763   0.878 -1.6015  0.0806  0.7075
 5086WAT     H221065   0.767   1.872   0.923 -2.0384 -0.2260  2.1793
 5086WAT    EPW21066   0.709   1.841   0.880 -0.7375 -0.0305  0.1620
 5087WAT      O21067   2.335   1.079   1.809 -0.3296 -0.6689 -0.6202
 5087WAT     H121068   2.398   1.063   1.751 -0.5486  0.0168 -1.0605
 5087WAT     H221069   2.261   1.059   1.767 -0.6345  1.5917 -1.2879
 5087WAT    EPW21070   2.333   1.074   1.795 -0.4070 -0.2337 -0.7839
 5088WAT      O21071   4.072   5.874   4.452 -0.9534  0.3476  0.3505
 5088WAT     H121072   4.059   5.890   4.536  0.0719  2.0363  0.2490
 5088WAT     H221073   4.039   5.945   4.412 -3.0938 -1.2085 -0.8649
 5088WAT    EPW21074   4.065   5.887   4.458 -1.1181  0.3672  0.1559
 5089WAT      O21075   7.281   0.004   3.107  0.1064  0.3886  1.0042
 5089WAT     H121076   7.242   0.042   3.039  1.4937  2.0833  1.0871
 5089WAT     H221077   7.223  -0.055   3.134 -2.4562  2.8107  1.2128
 5089WAT    EPW21078   7.266   0.001   3.101 -0.0672  0.9967  1.0473
 5090WAT      O21079   4.675   1.334   1.300 -0.3518  0.4039 -0.7181
 5090WAT     H121080   4.733   1.269   1.297 -1.2475 -0.4718  0.3008
 5090WAT     H221081   4.713   1.397   1.253  2.0504  0.3625  1.0150
 5090WAT    EPW21082   4.689   1.334   1.292 -0.1293  0.2684 -0.3116
 5091WAT      O21083   1.326   5.459   1.342  0.2599  0.7670  0.0685
 5091WAT     H121084   1.392   5.403   1.330 -0.2648  0.2804 -0.6016
 5091WAT     H221085   1.365   5.537   1.339  0.9088  0.4614  0.4171
 5091WAT    EPW21086   1.342   5.463   1.340  0.2783  0.6500  0.0210
 5092WAT      O21087   6.811   6.168   4.733 -0.2906 -0.1231  0.2412
 5092WAT     H121088   6.789   6.243   4.693 -1.5964 -0.6103  0.0086
 5092WAT     H221089   6.824   6.113   4.667 -0.8348 -0.5055  0.4554
 5092WAT    EPW21090   6.810   6.171   4.717 -0.5639 -0.2516  0.2385
 5093WAT      O21091   3.129   5.280   2.384  0.1618  0.4712 -0.7008
 5093WAT     H121092   3.088   5.243   2.317 -0.0617  1.6279 -1.2200
 5093WAT     H221093   3.213   5.267   2.367  0.0852  0.1305 -0.8277
 5093WAT    EPW21094   3.135   5.272   2.372  0.1175  0.5918 -0.7963
 5094WAT      O21095   7.176   6.705   6.635 -0.2877  0.0717 -0.5643
 5094WAT     H121096   7.205   6.652   6.572 -0.1662  1.2702 -1.5416
 5094WAT     H221097   7.126   6.762   6.593 -1.3832  0.0343  0.6398
 5094WAT    EPW21098   7.173   6.705   6.620 -0.4316  0.2432 -0.5308
 5095WAT      O21099   1.215   4.042   7.133 -1.3735  0.0448 -0.1277
 5095WAT     H121100   1.296   4.031   7.103 -1.4699  0.4430 -0.5359
 5095WAT     H221101   1.227   4.080   7.211 -1.1219 -1.0874  0.4072
 5095WAT    EPW21102   1.229   4.046   7.140 -1.3506 -0.0636 -0.1090
 5096WAT      O21103   6.125   2.180   6.617 -0.2114 -0.7270  0.0012
 5096WAT     H121104   6.090   2.216   6.545  0.3544  0.0515  0.1067
 5096WAT     H221105   6.083   2.219   6.682 -0.7117 -1.4218  0.1152
 5096WAT    EPW21106   6.113   2.191   6.616 -0.2017 -0.7146  0.0336
 5097WAT      O21107   2.712   4.165   2.819  0.0499  0.5023  0.0986
 5097WAT     H121108   2.666   4.172   2.893 -0.3427 -0.5871 -0.0254
 5097WAT     H221109   2.651   4.148   2.759  0.5312 -0.2717 -0.1852
 5097WAT    EPW21110   2.696   4.164   2.821  0.0630  0.2271  0.0383
 5098WAT      O21111   5.145   0.776   6.474  0.1581  0.0530 -0.2025
 5098WAT     H121112   5.089   0.815   6.529 -0.4399 -0.4467 -0.4456
 5098WAT     H221113   5.205   0.741   6.527 -0.3765 -0.3694  0.1307
 5098WAT    EPW21114   5.146   0.777   6.490 -0.0092 -0.0832 -0.1892
 5099WAT      O21115   2.233   6.913   0.029 -0.1127  0.1927  0.5615
 5099WAT     H121116   2.224   6.988   0.073  0.7290  0.5359  0.1563
 5099WAT     H221117   2.273   6.861   0.086 -0.8060 -0.0016  0.8859
 5099WAT    EPW21118   2.238   6.917   0.044 -0.0908  0.2147  0.5496
 5100WAT      O21119   6.739   1.695   0.918 -0.1067  0.4955 -0.1135
 5100WAT     H121120   6.723   1.611   0.931 -0.9945  0.4513 -1.3652
 5100WAT     H221121   6.825   1.699   0.911 -0.0597 -0.3151 -0.0879
 5100WAT    EPW21122   6.749   1.684   0.919 -0.2309  0.3692 -0.2946
 5101WAT      O21123   3.347   5.484   0.499 -0.6586 -0.3173  0.2024
 5101WAT     H121124   3.412   5.477   0.557 -1.4908 -3.0853  0.9787
 5101WAT     H221125   3.278   5.451   0.542 -1.3708 -2.2481 -2.1865
 5101WAT    EPW21126   3.347   5.478   0.514 -0.8867 -1.0114 -0.0358
 5102WAT      O21127   5.845   0.171   0.798  0.0871 -0.1248 -0.2786
 5102WAT     H121128   5.911   0.138   0.845 -0.6791 -0.0851  0.8829
 5102WAT     H221129   5.826   0.245   0.840 -0.1587  0.2790 -1.0957
 5102WAT    EPW21130   5.852   0.177   0.811 -0.0624 -0.0593 -0.2277
 5103WAT      O21131   5.135   7.106   3.506 -0.2889  0.3531 -0.0778
 5103WAT     H121132   5.099   7.044   3.456  0.7408  0.3035 -0.7764
 5103WAT     H221133   5.170   7.062   3.572 -0.5521  0.3029  0.0297
 5103WAT    EPW21134   5.135   7.090   3.509 -0.1757  0.3384 -0.1651
 5104WAT      O21135   5.116   2.120   6.210 -0.7327 -0.1551  0.7185
 5104WAT     H121136   5.084   2.201   6.210 -1.4177 -0.4083  1.4073
 5104WAT     H221137   5.138   2.105   6.127  1.9115  1.6847  0.9718
 5104WAT    EPW21138   5.115   2.129   6.198 -0.4433  0.0793  0.8577
 5105WAT      O21139   7.142   3.308   1.682  0.1319  0.5725  0.2769
 5105WAT     H121140   7.093   3.375   1.708 -0.7291  0.2856 -0.5814
 5105WAT     H221141   7.194   3.343   1.621 -0.1709  0.5025 -0.0204
 5105WAT    EPW21142   7.142   3.323   1.677 -0.0400  0.5198  0.1062
 5106WAT      O21143   4.501   2.473   3.708  0.3183  0.5288 -0.0857
 5106WAT     H121144   4.570   2.474   3.761 -0.4095 -1.7007  1.0225
 5106WAT     H221145   4.535   2.445   3.632  0.6750 -0.4504  0.4206
 5106WAT    EPW21146   4.516   2.469   3.704  0.2635  0.0548  0.1528
 5107WAT      O21147   5.922   3.466   1.747 -0.1127  0.1317 -0.1598
 5107WAT     H121148   5.857   3.488   1.801 -0.1158 -1.8490  0.7329
 5107WAT     H221149   5.992   3.464   1.800  0.4616  1.0011 -0.8566
 5107WAT    EPW21150   5.923   3.469   1.763 -0.0283 -0.0325 -0.1309
 5108WAT      O21151   3.980   6.640   6.391  0.4814  0.0054  0.2433
 5108WAT     H121152   3.986   6.554   6.379 -2.6062 -0.2026 -0.8589
 5108WAT     H221153   3.906   6.650   6.436  1.8160  2.0407  2.2079
 5108WAT    EPW21154   3.970   6.629   6.396  0.2224  0.2753  0.3707
 5109WAT      O21155   4.416   5.837   1.271 -0.1983  0.3573  0.1618
 5109WAT     H121156   4.385   5.820   1.351  0.0065  2.8509  0.8567
 5109WAT     H221157   4.473   5.772   1.257  0.5953  0.4603  2.5432
 5109WAT    EPW21158   4.420   5.825   1.281 -0.0508  0.7409  0.6162
 5110WAT      O21159   6.990   4.876   5.542 -0.3163  0.2010 -0.3665
 5110WAT     H121160   7.043   4.887   5.611  1.3504  2.4724 -1.9002
 5110WAT     H221161   6.910   4.889   5.576  0.0051 -2.5976  1.8506
 5110WAT    EPW21162   6.986   4.879   5.558 -0.0226  0.1231 -0.2656
 5111WAT      O21163   2.605   1.270   5.656  0.2107  0.4380  0.2542
 5111WAT     H121164   2.538   1.301   5.608  1.3620  0.9882 -1.0816
 5111WAT     H221165   2.674   1.280   5.603  1.4639  0.4905  1.8210
 5111WAT    EPW21166   2.605   1.276   5.641  0.5659  0.5270  0.2883
 5112WAT      O21167   7.020   1.877   1.607  0.1044  0.0211  0.4149
 5112WAT     H121168   7.020   1.948   1.656  0.9373  0.3253 -0.0060
 5112WAT     H221169   6.962   1.895   1.544 -1.0019 -0.3900  1.2818
 5112WAT    EPW21170   7.012   1.890   1.605  0.0640  0.0053  0.4808
 5113WAT      O21171   7.059   6.019   1.615  0.0701 -0.1365 -0.1711
 5113WAT     H121172   7.060   5.937   1.587  1.4748 -0.6581  1.2368
 5113WAT     H221173   7.005   6.060   1.560 -0.4129 -1.9267 -1.0741
 5113WAT    EPW21174   7.051   6.013   1.603  0.2063 -0.4780 -0.0965
 5114WAT      O21175   1.148   5.267   4.746 -0.2835  0.1790 -0.1280
 5114WAT     H121176   1.074   5.276   4.700 -0.5229 -2.3906 -0.3620
 5114WAT     H221177   1.122   5.278   4.829 -0.8245 -0.2029 -0.2440
 5114WAT    EPW21178   1.133   5.270   4.751 -0.3988 -0.2570 -0.1797
 5115WAT      O21179   6.473   1.009   4.881 -0.2531  0.0241 -0.3885
 5115WAT     H121180   6.556   1.023   4.857 -0.6486  1.2642 -1.1346
 5115WAT     H221181   6.472   0.925   4.905  0.4952 -1.0151 -3.5683
 5115WAT    EPW21182   6.485   0.999   4.881 -0.2010  0.0537 -0.9684
 5116WAT      O21183   6.488   1.263   4.054 -0.1809  0.8649  0.1016
 5116WAT     H121184   6.510   1.338   4.093 -0.9483  0.4917  1.3203
 5116WAT     H221185   6.544   1.257   3.988 -1.0119  3.2630 -0.9598
 5116WAT    EPW21186   6.499   1.273   4.050 -0.4170  1.1640  0.1249
 5117WAT      O21187   1.241   4.862   0.376 -0.4678 -0.1988  0.0617
 5117WAT     H121188   1.164   4.842   0.410 -1.2336  0.1207 -1.4024
 5117WAT     H221189   1.234   4.947   0.358 -1.1991 -0.8515 -3.3926
 5117WAT    EPW21190   1.229   4.872   0.378 -0.6890 -0.2480 -0.6648
 5118WAT      O21191   0.571   1.672   0.519 -0.3003  0.7581 -0.1421
 5118WAT     H121192   0.514   1.611   0.495 -0.7357  0.5983  1.2511
 5118WAT     H221193   0.521   1.741   0.540  0.1824  1.6513 -1.7262
 5118WAT    EPW21194   0.555   1.674   0.518 -0.2933  0.8665 -0.1703
 5119WAT      O21195   2.095   3.034   4.535 -0.1860  0.1651  0.6255
 5119WAT     H121196   2.096   3.007   4.452 -3.5358  0.6763  0.2992
 5119WAT     H221197   2.119   3.118   4.530 -1.5211  0.5262 -0.0338
 5119WAT    EPW21198   2.099   3.042   4.522 -0.8780  0.2939  0.4799
 5120WAT      O21199   1.786   1.039   6.679  0.3581 -0.5603 -0.2304
 5120WAT     H121200   1.850   1.091   6.652 -0.4912  1.0042  0.6308
 5120WAT     H221201   1.828   0.969   6.710  1.6739  0.4513  0.3641
 5120WAT    EPW21202   1.801   1.036   6.680  0.4270 -0.1797 -0.0153
 5121WAT      O21203   4.273   3.102   2.398 -0.8781 -0.0333  0.1332
 5121WAT     H121204   4.282   3.121   2.313 -1.2680  0.3818  0.1835
 5121WAT     H221205   4.199   3.057   2.401 -0.6695 -0.3732  0.2053
 5121WAT    EPW21206   4.264   3.098   2.386 -0.9049 -0.0222  0.1513
 5122WAT      O21207   4.036   1.945   4.293  0.1864 -0.5129  0.0516
 5122WAT     H121208   4.104   2.000   4.291 -2.1773  2.9016  2.0411
 5122WAT     H221209   3.995   1.966   4.367 -2.2829 -3.4266 -0.2951
 5122WAT    EPW21210   4.040   1.956   4.303 -0.5276 -0.4389  0.2943
 5123WAT      O21211   2.386   3.527   4.073 -0.0668  0.6989  0.4364
 5123WAT     H121212   2.336   3.486   4.014  0.8065 -1.9248  1.3674
 5123WAT     H221213   2.351   3.503   4.149  1.5892  0.1011  1.0587
 5123WAT    EPW21214   2.373   3.517   4.075  0.3068  0.2230  0.6659
 5124WAT      O21215   3.827   1.887   6.005 -0.2286 -0.0544  0.1464
 5124WAT     H121216   3.912   1.888   6.023  0.0886 -1.6603 -1.0473
 5124WAT     H221217   3.823   1.916   5.923 -0.7950 -0.3138  0.0787
 5124WAT    EPW21218   3.839   1.892   5.996 -0.2654 -0.3299 -0.0399
 5125WAT      O21219   0.276   5.372   4.270  0.0592 -0.2584  0.2977
 5125WAT     H121220   0.201   5.359   4.313  0.5117 -0.7631  0.9554
 5125WAT     H221221   0.254   5.358   4.187 -0.6770  0.0658  0.4248
 5125WAT    EPW21222   0.262   5.368   4.264  0.0173 -0.2851  0.4136
 5126WAT      O21223   5.801   4.253   5.567 -0.1042  0.4469 -0.0498
 5126WAT     H121224   5.846   4.268   5.494  0.8180 -0.5997  0.2710
 5126WAT     H221225   5.780   4.333   5.595  0.3923  0.9040 -0.9301
 5126WAT    EPW21226   5.804   4.267   5.561  0.1053  0.3598 -0.1325
 5127WAT      O21227   6.652   5.887   0.540 -0.3143  0.0038  0.0082
 5127WAT     H121228   6.576   5.877   0.582 -0.4349 -1.1088 -0.4508
 5127WAT     H221229   6.711   5.878   0.604 -0.5002 -1.5725 -0.0074
 5127WAT    EPW21230   6.649   5.885   0.556 -0.3596 -0.3934 -0.0619
 5128WAT      O21231   4.935   4.519   2.395 -0.3612 -0.0819 -0.4034
 5128WAT     H121232   4.862   4.470   2.389  0.1576 -0.8754 -0.4693
 5128WAT     H221233   4.998   4.462   2.375  0.1754  0.9225 -1.7396
 5128WAT    EPW21234   4.933   4.503   2.391 -0.2053 -0.0507 -0.6105
 5129WAT      O21235   7.281   4.847   6.881 -0.4185  0.3053 -0.2096
 5129WAT     H121236   7.219   4.823   6.824 -2.6980 -0.0381  2.2463
 5129WAT     H221237   7.348   4.869   6.829 -2.2351 -0.1724 -3.0016
 5129WAT    EPW21238   7.281   4.847   6.865 -1.0235  0.1840 -0.2592
 5130WAT      O21239   3.189   1.637   3.946 -0.4235  0.0048  0.2809
 5130WAT     H121240   3.107   1.645   3.917 -0.0907 -1.2859 -1.1649
 5130WAT     H221241   3.179   1.618   4.030 -1.7547 -2.5716 -0.3651
 5130WAT    EPW21242   3.175   1.636   3.954 -0.5710 -0.5665 -0.0281
 5131WAT      O21243   2.921   5.271   4.222 -0.3287 -0.5332  0.1468
 5131WAT     H121244   2.965   5.322   4.277 -0.9009 -0.9279  1.0023
 5131WAT     H221245   2.941   5.303   4.143 -1.8289  1.9782  0.6831
 5131WAT    EPW21246   2.931   5.283   4.218 -0.6348 -0.2205  0.3524
 5132WAT      O21247   6.156   1.685   4.587 -0.0499 -0.7407  0.3675
 5132WAT     H121248   6.141   1.712   4.669  0.4421 -0.9878  0.5407
 5132WAT     H221249   6.242   1.693   4.578 -0.2739  1.1460 -0.7836
 5132WAT    EPW21250   6.167   1.690   4.598 -0.0103 -0.4985  0.2231
 5133WAT      O21251   0.888   1.395   4.073  0.0536 -1.1938  0.2281
 5133WAT     H121252   0.820   1.449   4.066 -0.5611 -1.9827 -0.1322
 5133WAT     H221253   0.926   1.400   3.995 -0.4426 -1.8286 -0.0639
 5133WAT    EPW21254   0.883   1.403   4.060 -0.1105 -1.4041  0.1317
 5134WAT      O21255   1.994   1.846   0.721  0.0928 -0.1141  0.2567
 5134WAT     H121256   2.030   1.840   0.801  1.4646  1.6044 -0.1636
 5134WAT     H221257   1.909   1.846   0.737  0.2357 -2.7959  1.4434
 5134WAT    EPW21258   1.987   1.845   0.736  0.3165 -0.2564  0.3699
 5135WAT      O21259   5.273   4.076   7.368  0.1026  0.4381  0.0692
 5135WAT     H121260   5.304   4.157   7.362 -1.7746  1.2692  0.6807
 5135WAT     H221261   5.297   4.050   7.448  0.0952  0.6718  0.1466
 5135WAT    EPW21262   5.281   4.084   7.379 -0.1758  0.5954  0.1710
 5136WAT      O21263   2.666   1.986   2.634 -0.0286 -0.6834 -0.4216
 5136WAT     H121264   2.713   1.992   2.560  0.1757 -0.8740 -0.3070
 5136WAT     H221265   2.649   2.069   2.654  1.3680 -0.5299  0.2508
 5136WAT    EPW21266   2.671   1.999   2.626  0.2079 -0.6889 -0.3054
 5137WAT      O21267   3.281   4.707   1.537 -0.5360  0.0262  0.4656
 5137WAT     H121268   3.334   4.745   1.479  1.6872  0.4896  2.6210
 5137WAT     H221269   3.208   4.694   1.492  1.4103 -0.8650 -2.7916
 5137WAT    EPW21270   3.278   4.711   1.522  0.0799 -0.0370  0.3029
 5138WAT      O21271   5.254   3.067   3.881 -0.2403  0.5760  0.3055
 5138WAT     H121272   5.292   3.008   3.829 -0.1025 -1.7845  2.8509
 5138WAT     H221273   5.169   3.054   3.867 -0.1973  0.4794  0.1282
 5138WAT    EPW21274   5.247   3.056   3.871 -0.2136  0.2130  0.6553
 5139WAT      O21275   0.064   0.233   7.176  0.1921 -0.0057  0.0722
 5139WAT     H121276  -0.004   0.206   7.222 -0.0142  0.9532  0.3588
 5139WAT     H221277   0.060   0.185   7.103 -1.2428  0.5686 -0.2580
 5139WAT    EPW21278   0.053   0.222   7.172 -0.0503  0.2208  0.0657
 5140WAT      O21279   6.015   0.502   0.485 -0.5177 -0.1159  0.3937
 5140WAT     H121280   6.037   0.571   0.533  2.3551  0.0770 -0.9649
 5140WAT     H221281   5.947   0.530   0.438 -1.4969  0.6437  2.1942
 5140WAT    EPW21282   6.008   0.516   0.485 -0.2380  0.0248  0.4590
 5141WAT      O21283   3.415   6.063   3.308  0.8030 -0.0946  0.1618
 5141WAT     H121284   3.391   6.084   3.390  0.7480  0.1931  0.0708
 5141WAT     H221285   3.460   5.988   3.319 -1.7780 -1.7878  0.1620
 5141WAT    EPW21286   3.418   6.055   3.322  0.4136 -0.3022  0.1484
 5142WAT      O21287   6.510   5.776   4.962 -0.5377  0.8674  0.1775
 5142WAT     H121288   6.439   5.742   4.924 -0.7396  1.3741  0.0950
 5142WAT     H221289   6.488   5.780   5.046  0.1002 -0.7400  0.4553
 5142WAT    EPW21290   6.496   5.772   4.968 -0.4733  0.7048  0.2064
 5143WAT      O21291   6.204   3.437   3.063 -0.8458  0.3460  0.2314
 5143WAT     H121292   6.244   3.497   3.014  0.5391  0.8279  1.8639
 5143WAT     H221293   6.149   3.484   3.112 -1.9468 -0.0944 -0.5313
 5143WAT    EPW21294   6.202   3.453   3.063 -0.8038  0.3522  0.3599
 5144WAT      O21295   0.608   1.747   4.401 -0.0726  0.7708 -0.4215
 5144WAT     H121296   0.586   1.721   4.320 -0.8409  0.7267 -0.2072
 5144WAT     H221297   0.562   1.694   4.453  0.4922  0.7358  0.0482
 5144WAT    EPW21298   0.598   1.735   4.396 -0.1027  0.7591 -0.3204
 5145WAT      O21299   0.503   5.273   2.252  0.9264  0.8476  0.9529
 5145WAT     H121300   0.454   5.205   2.225  2.2034 -0.2372  1.2547
 5145WAT     H221301   0.452   5.313   2.311 -0.7481  1.5270 -0.8511
 5145WAT    EPW21302   0.488   5.269   2.257  0.8677  0.7877  0.7310
 5146WAT      O21303   2.575   4.500   1.281 -0.4455  0.3268 -0.0634
 5146WAT     H121304   2.630   4.479   1.346 -1.4575  0.8836  1.0023
 5146WAT     H221305   2.626   4.496   1.210  1.0021  0.9276  0.8885
 5146WAT    EPW21306   2.591   4.496   1.280 -0.3811  0.4978  0.2347
 5147WAT      O21307   7.155   6.379   5.576 -0.0980  0.2776 -0.2817
 5147WAT     H121308   7.237   6.362   5.599 -0.8134 -3.0356  0.4010
 5147WAT     H221309   7.112   6.379   5.652 -0.8916  1.0400 -0.7089
 5147WAT    EPW21310   7.161   6.377   5.590 -0.3209 -0.0992 -0.2440
 5148WAT      O21311   5.075   1.231   1.619 -0.0240  0.3798  0.6105
 5148WAT     H121312   5.095   1.284   1.552 -1.7746  0.9258  0.4832
 5148WAT     H221313   5.003   1.267   1.653  0.2416 -0.4763  2.1607
 5148WAT    EPW21314   5.067   1.244   1.614 -0.2434  0.3340  0.8207
 5149WAT      O21315   5.622   5.468   4.965 -0.0671 -0.1976  0.8251
 5149WAT     H121316   5.678   5.446   5.028  0.6627  1.7154  0.9126
 5149WAT     H221317   5.549   5.488   5.008 -1.0550 -3.0768  0.6846
 5149WAT    EPW21318   5.620   5.468   4.981 -0.1052 -0.3403  0.8172
 5150WAT      O21319   5.449   4.023   3.746  0.3794  0.2539  0.2640
 5150WAT     H121320   5.492   4.062   3.681 -1.0664 -1.3166 -1.7340
 5150WAT     H221321   5.513   3.989   3.795  1.5010  0.2310 -1.1413
 5150WAT    EPW21322   5.465   4.024   3.744  0.3315  0.0185 -0.2387
 5151WAT      O21323   3.133   4.469   3.069  0.4920 -0.1486 -0.2660
 5151WAT     H121324   3.069   4.422   3.107  0.7052 -0.4844 -0.3146
 5151WAT     H221325   3.102   4.485   2.989  0.3771 -0.1302 -0.2177
 5151WAT    EPW21326   3.119   4.464   3.063  0.5065 -0.1955 -0.2660
 5152WAT      O21327   3.643   0.064   5.723  0.6071  0.0981  0.3144
 5152WAT     H121328   3.708   0.018   5.688  2.2794  0.3763  2.7688
 5152WAT     H221329   3.681   0.104   5.791 -1.5180  2.4836  0.2566
 5152WAT    EPW21330   3.659   0.063   5.728  0.5402  0.4915  0.6684
 5153WAT      O21331   4.906   3.865   5.316 -0.2080  0.2546  0.2862
 5153WAT     H121332   4.899   3.938   5.270 -1.0608 -0.4462 -0.7392
 5153WAT     H221333   4.894   3.802   5.257  0.8139 -0.7393  1.0777
 5153WAT    EPW21334   4.903   3.866   5.300 -0.1830  0.0042  0.2516
 5154WAT      O21335   1.117   5.846   1.341 -0.1579  0.7958  0.3037
 5154WAT     H121336   1.111   5.778   1.396  1.6033 -0.4437 -0.9078
 5154WAT     H221337   1.193   5.883   1.363  0.4687  0.4091 -1.0726
 5154WAT    EPW21338   1.127   5.841   1.352  0.1948  0.5556 -0.0785
 5155WAT      O21339   1.421   2.850   1.266  0.2471  0.4550  0.8571
 5155WAT     H121340   1.494   2.889   1.239  0.9048 -1.7709 -0.9963
 5155WAT     H221341   1.367   2.858   1.198  0.0193 -0.7691  0.8540
 5155WAT    EPW21342   1.424   2.857   1.252  0.3106 -0.0546  0.5828
 5156WAT      O21343   0.426   1.538   4.521  0.2414 -0.4513 -0.2176
 5156WAT     H121344   0.496   1.486   4.530  0.5533  0.2376  1.9448
 5156WAT     H221345   0.367   1.503   4.575 -0.1400  0.4797 -0.0086
 5156WAT    EPW21346   0.428   1.525   4.530  0.2311 -0.2120  0.1327
 5157WAT      O21347   0.471   1.711   0.118 -0.0096 -0.1012 -0.6822
 5157WAT     H121348   0.425   1.637   0.127 -1.2915  0.7720  0.2385
 5157WAT     H221349   0.413   1.774   0.133  0.7007  1.1766 -2.8984
 5157WAT    EPW21350   0.456   1.709   0.122 -0.0941  0.2165 -0.8736
 5158WAT      O21351   4.795   3.838   6.229  0.1699  0.0007  0.1563
 5158WAT     H121352   4.727   3.848   6.284 -0.3694  0.6134 -0.6028
 5158WAT     H221353   4.835   3.916   6.232 -0.5761  0.4648 -1.2342
 5158WAT    EPW21354   4.791   3.851   6.238 -0.0200  0.1598 -0.1612
 5159WAT      O21355   3.609   5.571   1.687 -0.0440  0.6507 -0.2328
 5159WAT     H121356   3.642   5.546   1.610  1.2396  1.0985  0.1524
 5159WAT     H221357   3.678   5.573   1.740 -0.5229  2.5074  0.3947
 5159WAT    EPW21358   3.624   5.568   1.683  0.0749  0.9911 -0.0832
 5160WAT      O21359   1.338   3.973   0.614  0.2529  0.1145 -0.5131
 5160WAT     H121360   1.314   3.959   0.531 -1.7914 -0.3693  0.0973
 5160WAT     H221361   1.406   3.920   0.625 -1.3810 -2.2701 -1.0248
 5160WAT    EPW21362   1.345   3.963   0.603 -0.2905 -0.3092 -0.4985
 5161WAT      O21363   2.018   3.788   1.632 -0.0198 -0.1713  0.0966
 5161WAT     H121364   2.043   3.760   1.711  0.2691  0.1217  0.1113
 5161WAT     H221365   1.946   3.742   1.616  0.0242 -0.3681  0.4516
 5161WAT    EPW21366   2.011   3.777   1.642  0.0294 -0.1571  0.1512
 5162WAT      O21367   0.299   2.148   6.520  0.2198  0.3635  0.3335
 5162WAT     H121368   0.345   2.174   6.590 -0.7377  0.0321  1.1059
 5162WAT     H221369   0.217   2.168   6.540 -0.4270 -2.0887  0.4659
 5162WAT    EPW21370   0.294   2.155   6.533 -0.0172 -0.0477  0.4672
 5163WAT      O21371   2.360   2.215   0.945 -0.3543 -0.0240 -0.2427
 5163WAT     H121372   2.443   2.234   0.961 -0.4041  1.7127 -1.7261
 5163WAT     H221373   2.362   2.137   0.907  0.4161 -0.6830  1.0862
 5163WAT    EPW21374   2.372   2.206   0.942 -0.2478  0.1352 -0.2655
 5164WAT      O21375   5.537   3.801   4.165 -0.2303  0.7427  0.1631
 5164WAT     H121376   5.598   3.783   4.224 -0.8512  1.5695  1.0934
 5164WAT     H221377   5.462   3.787   4.208 -0.7514 -1.0596 -1.1913
 5164WAT    EPW21378   5.535   3.796   4.180 -0.3990  0.5986  0.1004
 5165WAT      O21379   0.713   4.355   0.050 -0.4223  0.0789 -0.0448
 5165WAT     H121380   0.729   4.304   0.120 -1.1718  0.0735  0.1419
 5165WAT     H221381   0.714   4.436   0.083  1.3834  0.2520 -0.4622
 5165WAT    EPW21382   0.715   4.359   0.065 -0.2663  0.1037 -0.0789
 5166WAT      O21383   4.960   1.666   1.177 -0.3680  0.5346  0.4679
 5166WAT     H121384   4.997   1.625   1.244 -1.4604  1.0455  1.4130
 5166WAT     H221385   4.895   1.613   1.154 -0.2127  0.5285  0.0300
 5166WAT    EPW21386   4.956   1.652   1.183 -0.5064  0.6092  0.5428
 5167WAT      O21387   5.960   5.777   2.299  0.5314 -0.6527 -0.2042
 5167WAT     H121388   5.968   5.705   2.250  1.2979 -0.2720 -0.6640
 5167WAT     H221389   5.930   5.837   2.242  1.8305 -0.0974 -0.3359
 5167WAT    EPW21390   5.957   5.775   2.283  0.8365 -0.5144 -0.2916
 5168WAT      O21391   0.399   4.388   5.548 -0.5274  0.1529 -0.2285
 5168WAT     H121392   0.466   4.344   5.512 -0.0985  0.2698  0.4051
 5168WAT     H221393   0.394   4.461   5.501  0.5707  0.6885  0.4355
 5168WAT    EPW21394   0.408   4.392   5.536 -0.3018  0.2493 -0.0368
 5169WAT      O21395   1.168   1.447   5.018 -0.0950  0.4966 -0.5045
 5169WAT     H121396   1.184   1.365   5.040 -0.1310  0.6074 -0.0505
 5169WAT     H221397   1.118   1.440   4.946 -1.2570  0.0965  0.3116
 5169WAT    EPW21398   1.163   1.434   5.010 -0.2720  0.4538 -0.3169
 5170WAT      O21399   7.203   2.313   1.060  0.1575  0.1590 -0.1392
 5170WAT     H121400   7.186   2.321   0.975  0.7495  0.0890 -0.2675
 5170WAT     H221401   7.125   2.292   1.095 -0.2355  0.9001 -0.5565
 5170WAT    EPW21402   7.189   2.311   1.053  0.1869  0.2582 -0.2198
 5171WAT      O21403   3.554   6.805   4.386 -0.0874  0.2382  0.3040
 5171WAT     H121404   3.529   6.775   4.307  0.9640  1.2547 -0.4380
 5171WAT     H221405   3.634   6.771   4.396 -0.0605  0.4331  0.7558
 5171WAT    EPW21406   3.562   6.795   4.376  0.0719  0.4172  0.2611
 5172WAT      O21407   0.503   1.429   1.721 -0.7083  0.4046  0.1946
 5172WAT     H121408   0.504   1.410   1.806  0.3278  1.1341  0.3673
 5172WAT     H221409   0.447   1.496   1.716 -0.7430  0.3847  0.3005
 5172WAT    EPW21410   0.495   1.436   1.733 -0.5603  0.5094  0.2357
 5173WAT      O21411   1.983   0.255   3.711 -0.1002 -0.5200 -0.1862
 5173WAT     H121412   2.062   0.244   3.675  0.3190  0.3231  0.4437
 5173WAT     H221413   1.991   0.329   3.756 -0.8511 -1.1031  0.9529
 5173WAT    EPW21414   1.996   0.264   3.713 -0.1492 -0.4816  0.0751
 5174WAT      O21415   0.630   6.959   1.173  0.6091 -0.8429  0.4400
 5174WAT     H121416   0.683   6.967   1.104  1.1462 -0.4941  0.8860
 5174WAT     H221417   0.551   6.981   1.142  0.7818 -1.0453 -0.1440
 5174WAT    EPW21418   0.626   6.963   1.158  0.7139 -0.8213  0.4196
 5175WAT      O21419   5.094   0.097   3.353  0.2090  0.4585  0.2162
 5175WAT     H121420   5.097   0.167   3.405  4.7648  0.9260 -0.2687
 5175WAT     H221421   5.116   0.031   3.405 -2.1495 -0.4381  0.2278
 5175WAT    EPW21422   5.097   0.097   3.368  0.5336  0.3951  0.1463
 5176WAT      O21423   0.269   3.180   5.430  0.3502 -0.3331 -0.1776
 5176WAT     H121424   0.334   3.137   5.470  0.2813  0.4766  0.8415
 5176WAT     H221425   0.208   3.119   5.419  1.1135 -1.0122 -0.7878
 5176WAT    EPW21426   0.270   3.165   5.435  0.4528 -0.3138 -0.1172
 5177WAT      O21427   0.136   3.556   1.946 -0.2682 -0.0389  0.2450
 5177WAT     H121428   0.098   3.477   1.939 -1.0008  0.3482 -0.2230
 5177WAT     H221429   0.215   3.537   1.978 -0.7701 -0.8882  1.0466
 5177WAT    EPW21430   0.142   3.541   1.950 -0.4505 -0.1072  0.2943
 5178WAT      O21431   1.205   2.902   0.136 -0.1985  0.3647  0.0408
 5178WAT     H121432   1.252   2.905   0.209  1.0161 -1.4795 -0.6121
 5178WAT     H221433   1.262   2.921   0.073 -0.5747 -0.7591 -0.6678
 5178WAT    EPW21434   1.220   2.905   0.138 -0.0747 -0.0737 -0.1603
 5179WAT      O21435   1.792   2.380   2.075 -0.4525  0.0392  0.1538
 5179WAT     H121436   1.829   2.458   2.062 -1.6349  0.6361  0.2239
 5179WAT     H221437   1.797   2.341   1.998 -1.3921  0.8846 -0.3576
 5179WAT    EPW21438   1.799   2.386   2.062 -0.7659  0.2522  0.0886
 5180WAT      O21439   0.502   2.113   2.944  0.0182 -0.2434 -0.3159
 5180WAT     H121440   0.453   2.046   2.970  0.8234 -1.0949 -0.9381
 5180WAT     H221441   0.453   2.151   2.882 -1.0754  0.6598  1.0445
 5180WAT    EPW21442   0.488   2.109   2.938 -0.0244 -0.2357 -0.2068
 5181WAT      O21443   2.898   5.117   0.673 -0.4001  0.6962 -0.6018
 5181WAT     H121444   2.874   5.195   0.702 -2.1654  0.2639 -0.7900
 5181WAT     H221445   2.823   5.080   0.648  0.4884 -0.7378 -1.3040
 5181WAT    EPW21446   2.883   5.123   0.673 -0.5297  0.4205 -0.7333
 5182WAT      O21447   2.675   6.594   1.685 -0.1622  0.1628 -0.3321
 5182WAT     H121448   2.750   6.603   1.728 -0.2190 -3.4535  0.8760
 5182WAT     H221449   2.628   6.663   1.712  1.1322  0.0728  2.5982
 5182WAT    EPW21450   2.679   6.605   1.695  0.0206 -0.3847  0.2792
 5183WAT      O21451   1.447   3.402   5.357 -0.4332 -0.7486  0.0106
 5183WAT     H121452   1.373   3.358   5.371 -0.7849  0.6696  3.3607
 5183WAT     H221453   1.419   3.480   5.329 -0.1004 -0.7257 -0.2611
 5183WAT    EPW21454   1.432   3.407   5.355 -0.4360 -0.5357  0.4653
 5184WAT      O21455   1.608   6.302   4.945  0.2227 -0.1187 -0.2082
 5184WAT     H121456   1.661   6.266   5.004 -0.0831  1.0269  0.8046
 5184WAT     H221457   1.662   6.328   4.882  0.5043 -1.7843 -0.7073
 5184WAT    EPW21458   1.624   6.300   4.944  0.2191 -0.1955 -0.1323
 5185WAT      O21459   1.076   2.146   3.893  0.0772 -0.0489 -0.3256
 5185WAT     H121460   1.096   2.116   3.814  2.8741  0.3116  0.1243
 5185WAT     H221461   1.077   2.232   3.883 -2.6778  0.0330 -0.4901
 5185WAT    EPW21462   1.079   2.154   3.880  0.0834  0.0164 -0.2835
 5186WAT      O21463   2.540   4.074   4.444  0.0370  0.0502  0.1290
 5186WAT     H121464   2.458   4.097   4.427  0.1029 -0.0615 -0.3617
 5186WAT     H221465   2.568   4.137   4.498  0.2381  1.1907 -1.2397
 5186WAT    EPW21466   2.532   4.087   4.449  0.0765  0.2022 -0.1457
 5187WAT      O21467   4.031   2.033   2.134 -0.0038 -0.1925 -0.1634
 5187WAT     H121468   4.020   2.011   2.050  0.5586 -0.6991 -0.1119
 5187WAT     H221469   4.116   2.051   2.139 -0.1304  0.3082  0.1941
 5187WAT    EPW21470   4.042   2.032   2.122  0.0606 -0.1934 -0.1030
 5188WAT      O21471   5.091   5.444   0.154 -0.0013  0.4867  0.0854
 5188WAT     H121472   5.154   5.447   0.095 -0.0964  0.8864  0.0066
 5188WAT     H221473   5.059   5.525   0.156 -0.6221  0.2496  0.0046
 5188WAT    EPW21474   5.095   5.456   0.146 -0.1070  0.5108  0.0618
 5189WAT      O21475   1.078   4.078   1.615 -0.5138 -0.5258  0.1839
 5189WAT     H121476   1.053   4.044   1.691 -0.3667  0.1183  0.5273
 5189WAT     H221477   1.155   4.114   1.634 -0.0501 -1.1444 -0.4887
 5189WAT    EPW21478   1.086   4.079   1.629 -0.4235 -0.5220  0.1353
 5190WAT      O21479   0.674   6.967   2.414 -0.8046  0.5277 -0.3082
 5190WAT     H121480   0.652   7.007   2.340  1.3057  1.1468 -0.6666
 5190WAT     H221481   0.606   6.984   2.467 -1.1010  2.5163 -1.2157
 5190WAT    EPW21482   0.661   6.976   2.411 -0.5366  0.9129 -0.4952
 5191WAT      O21483   3.061   1.633   5.840  0.6083  0.1771 -0.0876
 5191WAT     H121484   2.991   1.627   5.892 -0.4662 -1.9073 -1.6153
 5191WAT     H221485   3.035   1.687   5.776  0.1008 -1.0393 -0.9602
 5191WAT    EPW21486   3.047   1.640   5.838  0.3746 -0.3105 -0.4422
 5192WAT      O21487   5.475   0.787   1.632  0.6321 -0.3255  0.7159
 5192WAT     H121488   5.467   0.874   1.634 -0.7023 -0.3402 -1.1526
 5192WAT     H221489   5.395   0.759   1.654  1.2725 -1.1384  2.1365
 5192WAT    EPW21490   5.462   0.796   1.635  0.5296 -0.4478  0.6497
 5193WAT      O21491   0.873   1.279   6.690 -0.1848  0.2400 -0.3679
 5193WAT     H121492   0.958   1.267   6.676 -0.2782 -1.4297  0.3061
 5193WAT     H221493   0.869   1.360   6.723  1.5028 -0.5859  2.1585
 5193WAT    EPW21494   0.885   1.289   6.693  0.0507 -0.1286  0.1049
 5194WAT      O21495   5.229   6.773   6.416 -0.5524 -0.1329 -0.2876
 5194WAT     H121496   5.223   6.686   6.405  1.1072 -0.3546  0.3012
 5194WAT     H221497   5.246   6.781   6.501  0.0034  0.7426 -0.4751
 5194WAT    EPW21498   5.230   6.761   6.427 -0.2251 -0.0364 -0.2283
 5195WAT      O21499   2.821   2.714   0.742  0.1242  0.1726  0.2532
 5195WAT     H121500   2.830   2.646   0.688 -0.4171  1.0962 -1.0319
 5195WAT     H221501   2.750   2.755   0.713  0.4568  1.3138  0.9717
 5195WAT    EPW21502   2.812   2.710   0.730  0.0934  0.4776  0.1695
 5196WAT      O21503   2.213   5.434   5.243 -0.1416 -0.1417  0.1361
 5196WAT     H121504   2.289   5.417   5.281  1.1194  1.9912 -1.2478
 5196WAT     H221505   2.214   5.387   5.170  0.8965  1.4603 -0.9535
 5196WAT    EPW21506   2.224   5.425   5.238  0.1980  0.4100 -0.2293
 5197WAT      O21507   4.956   0.265   4.572 -0.2934 -0.3262  0.1754
 5197WAT     H121508   4.879   0.244   4.606 -0.8732  1.4440  0.1055
 5197WAT     H221509   4.977   0.196   4.523 -1.9299 -0.7740  0.0457
 5197WAT    EPW21510   4.948   0.252   4.570 -0.6208 -0.1309  0.1459
 5198WAT      O21511   2.147   3.138   2.299 -0.0933 -0.2958  0.3494
 5198WAT     H121512   2.179   3.215   2.272  2.3463 -2.2639 -3.0311
 5198WAT     H221513   2.216   3.085   2.301 -1.6124 -2.4752  2.9014
 5198WAT    EPW21514   2.162   3.142   2.295  0.0427 -0.9085  0.2270
 5199WAT      O21515   3.981   1.885   0.252  0.1369  0.1628 -0.0131
 5199WAT     H121516   3.982   1.950   0.310  0.3111 -0.2673  0.4689
 5199WAT     H221517   3.949   1.923   0.180  0.7382  0.9137  0.1035
 5199WAT    EPW21518   3.977   1.901   0.250  0.2515  0.2101  0.0753
 5200WAT      O21519   1.345   2.662   1.563  0.4648  0.6273 -0.3353
 5200WAT     H121520   1.279   2.718   1.567 -0.3939 -0.3818  2.4090
 5200WAT     H221521   1.376   2.662   1.645  1.7551 -1.3497 -0.7542
 5200WAT    EPW21522   1.340   2.670   1.576  0.5285  0.1862  0.0082
 5201WAT      O21523   1.354   2.876   4.759 -0.1309 -0.3079 -0.0396
 5201WAT     H121524   1.294   2.816   4.779 -1.2663  0.8988  0.3341
 5201WAT     H221525   1.420   2.859   4.813 -0.9025 -0.5245  0.8551
 5201WAT    EPW21526   1.355   2.865   4.770 -0.4126 -0.1616  0.1478
 5202WAT      O21527   3.432   1.335   1.369 -0.6531 -0.4624 -0.3234
 5202WAT     H121528   3.369   1.316   1.427 -0.1327 -0.5118  0.2304
 5202WAT     H221529   3.487   1.385   1.413 -0.0334 -0.8317 -0.6511
 5202WAT    EPW21530   3.431   1.339   1.384 -0.4847 -0.5243 -0.2900
 5203WAT      O21531   7.201   7.228   4.761  0.8572  0.1040 -0.1665
 5203WAT     H121532   7.174   7.293   4.813  1.2477 -0.5037  0.8129
 5203WAT     H221533   7.141   7.227   4.698  0.4642  0.9648  0.1694
 5203WAT    EPW21534   7.188   7.237   4.759  0.8568  0.1414  0.0278
 5204WAT      O21535   4.125   3.814   0.314  0.1130 -0.7812 -0.1267
 5204WAT     H121536   4.043   3.845   0.308  0.7886  0.9180 -1.8529
 5204WAT     H221537   4.137   3.773   0.238  1.5333  0.9451 -0.9167
 5204WAT    EPW21538   4.115   3.813   0.302  0.4226 -0.2752 -0.4984
 5205WAT      O21539   5.024   4.980   3.436 -0.1165  0.9349  0.1982
 5205WAT     H121540   4.947   4.956   3.404  0.4049 -0.4765 -0.0531
 5205WAT     H221541   5.041   4.920   3.498  1.1423  0.7300 -0.3090
 5205WAT    EPW21542   5.015   4.968   3.441  0.1464  0.6962  0.0861
 5206WAT      O21543   2.783   5.315   7.314  0.2731 -0.1184  0.2802
 5206WAT     H121544   2.840   5.254   7.338  0.4499 -0.8941 -1.9242
 5206WAT     H221545   2.827   5.390   7.328  1.8720 -0.6857 -1.2709
 5206WAT    EPW21546   2.798   5.317   7.320  0.5354 -0.3168 -0.2746
 5207WAT      O21547   2.572   2.024   6.892  0.2187  0.0101 -0.3407
 5207WAT     H121548   2.597   1.943   6.873  0.3841 -0.1873  0.7032
 5207WAT     H221549   2.566   2.062   6.813 -1.1901 -1.3776 -0.9569
 5207WAT    EPW21550   2.575   2.018   6.877  0.0350 -0.2241 -0.2775
 5208WAT      O21551   4.418   3.754   5.481  0.5276  0.0369 -0.0395
 5208WAT     H121552   4.370   3.758   5.409 -1.6502  0.0639  1.3373
 5208WAT     H221553   4.485   3.807   5.463 -2.7345  4.7727 -0.1605
 5208WAT    EPW21554   4.421   3.763   5.468 -0.2760  0.7404  0.1460
 5209WAT      O21555   2.965   5.115   0.319 -0.0216  0.4903  0.5802
 5209WAT     H121556   2.933   5.034   0.327  1.2419 -0.1349 -0.3061
 5209WAT     H221557   2.959   5.147   0.400 -0.3204 -0.5691  1.0038
 5209WAT    EPW21558   2.959   5.108   0.332  0.1209  0.2415  0.5119
 5210WAT      O21559   0.144   4.080   3.238 -0.3602  0.1751 -0.1074
 5210WAT     H121560   0.202   4.031   3.195  0.2710 -0.0026  0.9042
 5210WAT     H221561   0.101   4.021   3.286 -1.1295  0.3550 -0.5642
 5210WAT    EPW21562   0.146   4.064   3.239 -0.3806  0.1754 -0.0255
 5211WAT      O21563   2.857   1.375   0.666 -0.1107  0.5046 -0.0932
 5211WAT     H121564   2.858   1.437   0.728  1.4370 -0.2704  0.7323
 5211WAT     H221565   2.877   1.302   0.711 -0.1828 -0.2901 -1.3199
 5211WAT    EPW21566   2.860   1.373   0.682  0.1072  0.2727 -0.1525
 5212WAT      O21567   6.462   7.045   1.261  0.6235  0.3839  0.0100
 5212WAT     H121568   6.445   7.057   1.345 -0.3218  1.4825 -0.3181
 5212WAT     H221569   6.542   7.078   1.251  0.4209  0.9765  0.3232
 5212WAT    EPW21570   6.471   7.052   1.272  0.4539  0.6337  0.0078
 5213WAT      O21571   4.459   0.186   2.923 -0.1468 -0.4854  0.2764
 5213WAT     H121572   4.426   0.266   2.920 -1.4062 -0.9805  0.2613
 5213WAT     H221573   4.461   0.168   3.009 -0.9601 -0.8552  0.2268
 5213WAT    EPW21574   4.455   0.195   2.936 -0.4530 -0.6132  0.2668
 5214WAT      O21575   3.018   6.920   3.312 -1.0398 -0.0484 -0.2168
 5214WAT     H121576   3.049   6.838   3.315 -0.4114  0.1780 -0.3489
 5214WAT     H221577   2.963   6.924   3.379  0.9813  0.2277  1.5168
 5214WAT    EPW21578   3.015   6.909   3.322 -0.6484  0.0258  0.0198
 5215WAT      O21579   6.823   1.411   3.921  0.3085 -0.2667  0.2084
 5215WAT     H121580   6.873   1.391   3.989 -1.0356 -1.7077  0.8402
 5215WAT     H221581   6.786   1.335   3.900 -1.0462  0.5946 -0.6855
 5215WAT    EPW21582   6.825   1.397   3.928 -0.0901 -0.3523  0.1697
 5216WAT      O21583   6.183   2.223   0.894  0.4708  0.2106 -0.2935
 5216WAT     H121584   6.239   2.289   0.880 -1.1124  1.4171 -1.3324
 5216WAT     H221585   6.110   2.263   0.921 -0.6041 -1.0637 -1.1637
 5216WAT    EPW21586   6.180   2.239   0.896  0.0782  0.2006 -0.5755
 5217WAT      O21587   1.470   2.353   3.838 -0.0150  0.0644  0.3432
 5217WAT     H121588   1.436   2.279   3.871  0.0208  0.1900  0.6674
 5217WAT     H221589   1.510   2.389   3.907 -0.8200  0.8475  0.4132
 5217WAT    EPW21590   1.471   2.347   3.853 -0.1287  0.1986  0.4015
 5218WAT      O21591   3.109   0.302   1.377 -0.1888  0.2615  0.0977
 5218WAT     H121592   3.129   0.384   1.352  0.8530 -0.2085 -0.7041
 5218WAT     H221593   3.031   0.289   1.341 -0.0119  0.6374 -0.4487
 5218WAT    EPW21594   3.100   0.312   1.368 -0.0088  0.2476 -0.1015
 5219WAT      O21595   1.982   3.326   0.647 -0.1468 -0.4353  0.0213
 5219WAT     H121596   1.973   3.248   0.609 -0.6268 -0.5906  0.4465
 5219WAT     H221597   1.901   3.348   0.669  0.0496 -0.0645  0.3968
 5219WAT    EPW21598   1.969   3.318   0.645 -0.1887 -0.4035  0.1396
 5220WAT      O21599   0.128   0.867   2.423  0.1642 -0.3528  0.0672
 5220WAT     H121600   0.067   0.923   2.451  0.3253  0.0805 -0.4241
 5220WAT     H221601   0.081   0.807   2.379 -0.1520 -1.3531  1.6764
 5220WAT    EPW21602   0.112   0.866   2.420  0.1413 -0.4366  0.2323
 5221WAT      O21603   5.329   2.764   4.909  0.3106  0.5573  0.0992
 5221WAT     H121604   5.381   2.726   4.968 -0.8447  0.9290  1.4045
 5221WAT     H221605   5.296   2.696   4.864  1.7494  0.3130 -0.6331
 5221WAT    EPW21606   5.332   2.748   4.911  0.3525  0.5761  0.1839
 5222WAT      O21607   5.910   5.703   5.919 -0.0054  0.0575 -0.3831
 5222WAT     H121608   5.931   5.744   5.994 -1.4073  0.6228 -0.2612
 5222WAT     H221609   5.827   5.727   5.905  0.3500  0.2917 -2.3569
 5222WAT    EPW21610   5.900   5.712   5.928 -0.1600  0.1756 -0.6567
 5223WAT      O21611   2.382   4.049   4.099 -0.0098 -0.1166 -0.2999
 5223WAT     H121612   2.409   3.971   4.071  0.2241  0.4390 -1.7152
 5223WAT     H221613   2.453   4.098   4.093  0.0891  0.0068  1.4954
 5223WAT    EPW21614   2.396   4.044   4.094  0.0394 -0.0163 -0.2438
 5224WAT      O21615   1.773   4.184   3.730  0.1367 -0.0314  0.1187
 5224WAT     H121616   1.830   4.245   3.755  0.4285 -0.2378 -0.0284
 5224WAT     H221617   1.759   4.138   3.803  2.5495 -1.9005 -0.4295
 5224WAT    EPW21618   1.779   4.186   3.745  0.5362 -0.3380  0.0160
 5225WAT      O21619   5.145   1.718   5.728 -0.2154  0.3557  0.3165
 5225WAT     H121620   5.214   1.670   5.750  0.0465  0.8365  0.5686
 5225WAT     H221621   5.181   1.790   5.693 -0.5770  0.7713  0.7846
 5225WAT    EPW21622   5.161   1.722   5.726 -0.2302  0.4881  0.4229
 5226WAT      O21623   1.305   6.653   3.801  0.1270  0.0278  0.2856
 5226WAT     H121624   1.291   6.652   3.715 -0.4550  0.1837  0.3713
 5226WAT     H221625   1.390   6.671   3.808  0.1603  0.0965 -0.2551
 5226WAT    EPW21626   1.315   6.655   3.789  0.0459  0.0610  0.2184
 5227WAT      O21627   4.946   6.506   6.243 -0.3570  0.4712 -0.1835
 5227WAT     H121628   4.869   6.546   6.250 -0.4458  0.3248 -0.3392
 5227WAT     H221629   4.987   6.530   6.317  0.7273  3.2742 -1.5505
 5227WAT    EPW21630   4.941   6.516   6.255 -0.2099  0.8636 -0.4085
 5228WAT      O21631   3.352   6.478   1.785  0.3436 -0.4720  0.2884
 5228WAT     H121632   3.408   6.528   1.740  0.0163 -0.7442 -0.4433
 5228WAT     H221633   3.394   6.402   1.794  1.0513  0.0662  1.8521
 5228WAT    EPW21634   3.366   6.474   1.779  0.3998 -0.4327  0.4113
 5229WAT      O21635   1.599   2.030   5.252  0.0413 -0.7208 -0.3550
 5229WAT     H121636   1.579   1.984   5.323 -0.4053 -0.3573 -0.2445
 5229WAT     H221637   1.567   2.109   5.269  0.2560 -0.5355 -0.8066
 5229WAT    EPW21638   1.591   2.035   5.265  0.0070 -0.6398 -0.4054
 5230WAT      O21639   2.187   3.983   7.221  0.1725  0.3487  0.0302
 5230WAT     H121640   2.198   3.898   7.209 -0.1314  0.4182 -0.8177
 5230WAT     H221641   2.261   4.009   7.259  0.6617 -0.1382 -0.5654
 5230WAT    EPW21642   2.200   3.975   7.225  0.1999  0.2870 -0.1830
 5231WAT      O21643   7.253   4.515   5.716 -0.1796 -0.1196  0.5204
 5231WAT     H121644   7.265   4.569   5.649 -0.8037 -0.3511  0.2207
 5231WAT     H221645   7.284   4.439   5.687  2.3101  0.4005  1.5249
 5231WAT    EPW21646   7.260   4.511   5.702  0.0960 -0.0770  0.6245
 5232WAT      O21647   0.911   0.728   4.454  0.1251 -0.1897  0.4244
 5232WAT     H121648   0.888   0.645   4.443  1.4665 -0.6119  0.5898
 5232WAT     H221649   0.892   0.765   4.378  1.1499 -1.0675 -0.2914
 5232WAT    EPW21650   0.905   0.721   4.441  0.4746 -0.3817  0.3431
 5233WAT      O21651   1.024   0.688   5.777 -0.1559  0.4696  0.3618
 5233WAT     H121652   1.107   0.675   5.753 -0.4760  0.4354 -0.7641
 5233WAT     H221653   0.979   0.676   5.703 -1.2063  0.1063  1.0410
 5233WAT    EPW21654   1.029   0.685   5.762 -0.3583  0.4109  0.2958
 5234WAT      O21655   2.429   0.936   2.784  0.2607 -0.4184  0.1115
 5234WAT     H121656   2.409   0.857   2.752  1.0499 -0.2787 -0.7742
 5234WAT     H221657   2.515   0.931   2.797 -0.0893 -0.7104  2.9753
 5234WAT    EPW21658   2.439   0.923   2.781  0.3256 -0.4409  0.4037
 5235WAT      O21659   1.569   2.269   6.886 -0.4760  0.2115 -0.3405
 5235WAT     H121660   1.589   2.206   6.943 -0.6982 -0.7678 -1.3083
 5235WAT     H221661   1.619   2.336   6.911 -0.5827 -0.1796  1.0038
 5235WAT    EPW21662   1.579   2.269   6.898 -0.5246  0.0090 -0.2849
 5236WAT      O21663   4.002   6.007   2.159 -0.0199 -0.1592  0.3085
 5236WAT     H121664   4.028   5.926   2.138 -1.6815 -0.8629  0.8251
 5236WAT     H221665   3.976   6.040   2.082  1.8973  0.4119 -0.1425
 5236WAT    EPW21666   4.002   6.000   2.144  0.0179 -0.1788  0.3182
 5237WAT      O21667   1.112   0.191   3.839  0.3680 -0.0004  0.2927
 5237WAT     H121668   1.178   0.144   3.807 -0.4213 -1.9362  1.3438
 5237WAT     H221669   1.124   0.270   3.804  3.3435 -0.2090  0.6445
 5237WAT    EPW21670   1.123   0.196   3.829  0.6909 -0.3172  0.5000
 5238WAT      O21671   4.820   5.466   6.627  0.0417 -0.8263 -0.0033
 5238WAT     H121672   4.835   5.507   6.703  1.3311 -0.6075 -0.3617
 5238WAT     H221673   4.814   5.382   6.650 -0.7290 -0.6580  0.4784
 5238WAT    EPW21674   4.821   5.460   6.642  0.1183 -0.7692  0.0149
 5239WAT      O21675   2.360   3.804   6.658  0.1265 -0.5979  0.3821
 5239WAT     H121676   2.359   3.858   6.727  0.6890 -1.4935  1.1198
 5239WAT     H221677   2.284   3.822   6.618 -0.1036  0.1189  1.0984
 5239WAT    EPW21678   2.348   3.814   6.662  0.1756 -0.6243  0.5969
 5240WAT      O21679   1.028   4.095   6.935 -0.1337  0.3456 -0.0362
 5240WAT     H121680   0.967   4.034   6.921  0.2829 -0.0758 -0.0598
 5240WAT     H221681   1.080   4.058   6.994  0.1159  0.6866 -0.0433
 5240WAT    EPW21682   1.026   4.080   6.941 -0.0353  0.3337 -0.0407
 5241WAT      O21683   2.941   2.200   2.230 -0.0016  0.7383  0.1990
 5241WAT     H121684   2.855   2.186   2.220  0.3609 -0.7607 -1.3223
 5241WAT     H221685   2.977   2.141   2.176  1.9990  1.0750  1.1099
 5241WAT    EPW21686   2.934   2.189   2.220  0.3475  0.5666  0.1088
 5242WAT      O21687   6.061   3.677   0.151  0.5862  0.1058 -0.1090
 5242WAT     H121688   6.024   3.752   0.175  0.2115  0.1486 -0.8023
 5242WAT     H221689   6.063   3.681   0.064  1.9842 -0.0183 -0.1063
 5242WAT    EPW21690   6.056   3.689   0.142  0.7373  0.0938 -0.2110
 5243WAT      O21691   3.206   5.074   7.378  0.5486  0.2766 -0.1620
 5243WAT     H121692   3.242   5.115   7.446 -1.7182 -0.9590  1.9484
 5243WAT     H221693   3.122   5.096   7.383 -0.0669 -1.6109 -1.2215
 5243WAT    EPW21694   3.199   5.084   7.389  0.1228 -0.1847 -0.0068
 5244WAT      O21695   5.808   1.760   0.757 -0.3920  0.0687 -0.5445
 5244WAT     H121696   5.829   1.813   0.822 -1.0590 -0.2561 -0.0588
 5244WAT     H221697   5.865   1.695   0.764 -1.1140 -0.4811  0.3604
 5244WAT    EPW21698   5.819   1.758   0.767 -0.5972 -0.0605 -0.3391
 5245WAT      O21699   1.017   6.645   5.292  0.0523 -0.0728 -0.4318
 5245WAT     H121700   0.987   6.710   5.241 -1.1735 -0.6853 -0.5183
 5245WAT     H221701   1.025   6.578   5.237 -0.6737 -0.5677  0.0528
 5245WAT    EPW21702   1.014   6.645   5.276 -0.2360 -0.2364 -0.3730
 5246WAT      O21703   2.602   6.477   4.590  0.2344 -0.0290 -0.2239
 5246WAT     H121704   2.656   6.477   4.659 -1.0937 -0.3769  0.8655
 5246WAT     H221705   2.653   6.452   4.524  1.1243 -1.5442  0.9736
 5246WAT    EPW21706   2.618   6.474   4.591  0.1697 -0.3042  0.1139
 5247WAT      O21707   5.318   3.027   1.810  0.2020 -0.0899 -0.0631
 5247WAT     H121708   5.358   2.976   1.868 -0.5604  0.2613  0.8012
 5247WAT     H221709   5.276   3.085   1.860 -1.8750 -0.8051 -0.8895
 5247WAT    EPW21710   5.318   3.028   1.826 -0.2174 -0.1436 -0.0575
 5248WAT      O21711   0.758   0.933   2.635  0.0522 -0.2658  0.4763
 5248WAT     H121712   0.692   0.954   2.687 -0.1699  1.1312 -0.3127
 5248WAT     H221713   0.829   0.960   2.678 -0.0168 -0.3058  0.6149
 5248WAT    EPW21714   0.759   0.940   2.649  0.0092 -0.0654  0.3802
 5249WAT      O21715   3.525   4.756   6.721  0.0969 -0.1336  0.2809
 5249WAT     H121716   3.481   4.824   6.753 -1.6232  0.3690 -2.7928
 5249WAT     H221717   3.585   4.792   6.669 -0.9308 -0.8951 -1.5088
 5249WAT    EPW21718   3.528   4.771   6.718 -0.3090 -0.1718 -0.4375
 5250WAT      O21719   1.853   3.477   5.256 -0.8044 -0.3870 -0.1172
 5250WAT     H121720   1.794   3.463   5.193 -2.6239 -0.9162  1.6082
 5250WAT     H221721   1.847   3.406   5.307  0.5720  0.0422  0.7031
 5250WAT    EPW21722   1.843   3.465   5.254 -0.8699 -0.4018  0.2589
 5251WAT      O21723   5.108   3.182   6.360 -0.1570  0.3044  0.1138
 5251WAT     H121724   5.164   3.236   6.398  0.2685 -0.3473  0.4270
 5251WAT     H221725   5.080   3.227   6.291  1.9951  0.0610 -1.0047
 5251WAT    EPW21726   5.112   3.196   6.355  0.2238  0.1722 -0.0051
 5252WAT      O21727   3.770   1.303   0.283 -0.2507 -0.4213  0.1371
 5252WAT     H121728   3.828   1.359   0.248 -1.1437  0.2164 -0.3701
 5252WAT     H221729   3.755   1.336   0.362  0.0317 -0.5531  0.2462
 5252WAT    EPW21730   3.776   1.316   0.289 -0.3409 -0.3465  0.0783
 5253WAT      O21731   6.278   6.064   6.402 -0.4191  0.8118 -0.1169
 5253WAT     H121732   6.357   6.037   6.428 -0.9418 -2.6173 -1.5318
 5253WAT     H221733   6.295   6.104   6.326 -0.0136 -0.0959 -0.5215
 5253WAT    EPW21734   6.292   6.066   6.394 -0.4364  0.1712 -0.3857
 5254WAT      O21735   3.166   6.793   6.671 -0.5214  0.2722 -0.7046
 5254WAT     H121736   3.086   6.827   6.667 -0.3900  0.6870 -0.0574
 5254WAT     H221737   3.216   6.853   6.632 -0.4992  0.0982 -0.9467
 5254WAT    EPW21738   3.162   6.807   6.665 -0.4987  0.3078 -0.6448
 5255WAT      O21739   5.182   0.079   2.325  0.3926 -0.1146 -0.2303
 5255WAT     H121740   5.231   0.144   2.358  0.1277 -0.1692  0.2850
 5255WAT     H221741   5.134   0.119   2.264  0.2533  0.1704  0.0634
 5255WAT    EPW21742   5.182   0.095   2.321  0.3329 -0.0806 -0.1108
 5256WAT      O21743   2.587   1.002   4.309  0.0989 -0.3406 -0.2770
 5256WAT     H121744   2.579   0.947   4.243  0.4959  0.9632 -1.4549
 5256WAT     H221745   2.504   1.024   4.328  0.0281  1.9082 -2.6920
 5256WAT    EPW21746   2.573   0.997   4.302  0.1471  0.1842 -0.8077
 5257WAT      O21747   1.743   5.646   3.567  0.3441 -0.4498  0.5156
 5257WAT     H121748   1.765   5.723   3.600 -0.1704  0.0391 -0.2433
 5257WAT     H221749   1.767   5.652   3.483  0.2701 -1.0993  0.4419
 5257WAT    EPW21750   1.750   5.658   3.559  0.2571 -0.4736  0.3926
 5258WAT      O21751   0.327   3.983   4.178  0.2740 -0.1221 -0.8046
 5258WAT     H121752   0.371   3.914   4.206  2.3364  1.6997  0.8486
 5258WAT     H221753   0.384   4.025   4.127 -1.2573 -0.0458 -2.5834
 5258WAT    EPW21754   0.342   3.979   4.174  0.3524  0.1583 -0.8232
 5259WAT      O21755   6.072   3.926   0.712 -0.0982  0.5322  0.2149
 5259WAT     H121756   6.076   4.005   0.675 -0.1868  0.3381 -0.2056
 5259WAT     H221757   6.018   3.939   0.780 -0.3623  0.7627 -0.0339
 5259WAT    EPW21758   6.065   3.940   0.717 -0.1503  0.5376  0.1160
 5260WAT      O21759   2.812   6.628   7.326 -0.6065  0.4050  0.1847
 5260WAT     H121760   2.870   6.578   7.283  1.3647  3.5449 -1.1838
 5260WAT     H221761   2.839   6.623   7.409  0.9695  0.8736 -0.2578
 5260WAT    EPW21762   2.825   6.620   7.332 -0.0825  0.9381 -0.0829
 5261WAT      O21763   7.136   1.954   2.493  0.2884  0.2429  0.0254
 5261WAT     H121764   7.062   1.918   2.522  0.8120 -1.5138 -0.7450
 5261WAT     H221765   7.196   1.893   2.506  1.5946  1.5439  0.3853
 5261WAT    EPW21766   7.134   1.940   2.499  0.5587  0.1756 -0.0352
 5262WAT      O21767   2.511   0.204   3.780 -0.0761 -0.1737 -0.4964
 5262WAT     H121768   2.561   0.212   3.708 -0.9573  0.5994 -1.0567
 5262WAT     H221769   2.465   0.278   3.780 -0.7809 -0.6028  0.3463
 5262WAT    EPW21770   2.512   0.216   3.769 -0.3104 -0.1229 -0.4547
 5263WAT      O21771   2.117   0.928   1.751  0.4100  0.0342  0.5121
 5263WAT     H121772   2.074   0.883   1.812  0.9684  2.1070  2.5840
 5263WAT     H221773   2.058   0.940   1.688 -0.6464 -0.9298  1.2909
 5263WAT    EPW21774   2.102   0.923   1.750  0.3365  0.1980  0.9332
 5264WAT      O21775   0.231   0.724   2.656 -0.6285  0.0955  0.1423
 5264WAT     H121776   0.187   0.763   2.592 -0.0048 -0.5897 -0.7279
 5264WAT     H221777   0.301   0.690   2.616 -0.6808 -1.1171  1.0253
 5264WAT    EPW21778   0.235   0.725   2.641 -0.5441 -0.1849  0.1442
 5265WAT      O21779   3.148   3.779   5.871  0.1228  0.7940  0.6486
 5265WAT     H121780   3.085   3.745   5.820  0.3355  1.4656 -0.0928
 5265WAT     H221781   3.135   3.741   5.948  0.5338 -1.1708 -0.1944
 5265WAT    EPW21782   3.137   3.768   5.875  0.2149  0.6030  0.4146
 5266WAT      O21783   2.381   2.773   7.131  0.0893 -0.1259  0.1494
 5266WAT     H121784   2.366   2.858   7.141  2.1985  0.1478  1.6274
 5266WAT     H221785   2.318   2.736   7.180  0.5137  0.6987  1.3668
 5266WAT    EPW21786   2.369   2.780   7.140  0.4636  0.0364  0.5475
 5267WAT      O21787   4.598   0.758   5.805  0.3065 -0.3024 -0.5885
 5267WAT     H121788   4.666   0.808   5.782  0.1621 -0.2335 -0.8669
 5267WAT     H221789   4.625   0.678   5.787  0.0682 -0.2201 -1.3107
 5267WAT    EPW21790   4.612   0.754   5.799  0.2500 -0.2800 -0.7363
 5268WAT      O21791   2.427   4.273   6.647 -0.3567 -0.0296 -0.2521
 5268WAT     H121792   2.474   4.298   6.578  0.6727 -1.7176 -0.2063
 5268WAT     H221793   2.459   4.322   6.712  1.4846 -1.1979 -0.2003
 5268WAT    EPW21794   2.439   4.284   6.646  0.0674 -0.4515 -0.2377
 5269WAT      O21795   5.535   1.852   7.277 -0.1730  0.2328 -0.2531
 5269WAT     H121796   5.558   1.812   7.203  0.6266  0.7274 -0.2833
 5269WAT     H221797   5.477   1.912   7.251  0.2734  0.5588 -0.5244
 5269WAT    EPW21798   5.530   1.855   7.262  0.0111  0.3540 -0.2977
 5270WAT      O21799   3.304   1.216   6.787  0.3760 -0.3723  0.1904
 5270WAT     H121800   3.315   1.303   6.795 -1.0205 -0.2040  0.4305
 5270WAT     H221801   3.236   1.209   6.733  0.1913 -1.3263  0.5345
 5270WAT    EPW21802   3.296   1.228   6.780  0.1424 -0.4883  0.2767
 5271WAT      O21803   5.632   3.794   7.110 -0.6854  0.0712 -0.3613
 5271WAT     H121804   5.651   3.795   7.025  1.0107  0.8096 -0.0188
 5271WAT     H221805   5.558   3.839   7.115 -1.1325 -0.5065 -1.5138
 5271WAT    EPW21806   5.624   3.801   7.098 -0.5009  0.0949 -0.4809
 5272WAT      O21807   6.471   3.272   5.044  0.4983  0.9311  0.5131
 5272WAT     H121808   6.460   3.276   5.131  2.3467 -4.3073  1.3920
 5272WAT     H221809   6.390   3.268   5.013 -0.2038  1.7029  2.1401
 5272WAT    EPW21810   6.457   3.272   5.052  0.6676  0.2713  0.8833
 5273WAT      O21811   2.047   6.480   3.265 -0.1759 -0.0188 -0.1610
 5273WAT     H121812   2.025   6.482   3.181 -0.1252 -0.6520 -0.1987
 5273WAT     H221813   2.102   6.548   3.275 -0.0281 -0.0622 -0.6819
 5273WAT    EPW21814   2.052   6.490   3.254 -0.1466 -0.1187 -0.2435
 5274WAT      O21815   4.404   4.938   7.288 -0.0486 -0.0726  0.1346
 5274WAT     H121816   4.330   4.895   7.271  0.3338 -0.8252  0.3566
 5274WAT     H221817   4.397   4.958   7.373  0.5109 -1.1560  0.4454
 5274WAT    EPW21818   4.392   4.935   7.298  0.0906 -0.3438  0.2133
 5275WAT      O21819   4.159   2.159   3.409  0.2652  0.0805  0.1949
 5275WAT     H121820   4.228   2.125   3.449 -1.0773 -2.2381  0.6852
 5275WAT     H221821   4.093   2.142   3.462 -0.7838  2.0844 -0.3494
 5275WAT    EPW21822   4.159   2.151   3.422 -0.0881  0.0340  0.1869
 5276WAT      O21823   0.855   0.781   0.490 -0.1962 -0.0247  0.3688
 5276WAT     H121824   0.903   0.722   0.532  0.0169  0.5221  0.9142
 5276WAT     H221825   0.871   0.765   0.405 -0.8675 -1.3347  0.4675
 5276WAT    EPW21826   0.864   0.770   0.483 -0.2639 -0.1375  0.4640
 5277WAT      O21827   1.724   5.788   7.278  0.2128 -0.0840 -0.0293
 5277WAT     H121828   1.651   5.748   7.253 -0.2305  0.1913  0.7565
 5277WAT     H221829   1.764   5.808   7.203 -1.6883  1.8856 -0.6413
 5277WAT    EPW21830   1.719   5.785   7.264 -0.1335  0.2476 -0.0036
 5278WAT      O21831   6.096   3.767   6.820 -0.1816 -0.1827  0.1982
 5278WAT     H121832   6.150   3.754   6.887  2.1518 -0.9385 -1.6741
 5278WAT     H221833   6.042   3.698   6.823  1.7903 -1.8715 -0.3024
 5278WAT    EPW21834   6.096   3.755   6.830  0.4544 -0.5438 -0.1524
 5279WAT      O21835   7.244   3.373   2.688  0.3746 -0.2420 -0.3255
 5279WAT     H121836   7.305   3.312   2.702  0.5457 -0.6151 -2.4613
 5279WAT     H221837   7.213   3.354   2.609 -1.9504  0.4561  0.3589
 5279WAT    EPW21838   7.249   3.361   2.679  0.0564 -0.1940 -0.5399
 5280WAT      O21839   2.628   1.983   1.117 -0.2096 -0.0739 -0.9002
 5280WAT     H121840   2.687   1.925   1.089 -0.7226 -0.7404 -0.6189
 5280WAT     H221841   2.647   2.055   1.071 -0.5792 -0.9223 -2.4581
 5280WAT    EPW21842   2.639   1.985   1.106 -0.3400 -0.2977 -1.0888
 5281WAT      O21843   5.501   7.185   2.497  0.0558 -0.0241  0.1648
 5281WAT     H121844   5.493   7.099   2.506  0.6622 -0.1358 -0.3143
 5281WAT     H221845   5.505   7.196   2.411 -0.3097  0.5192  0.2092
 5281WAT    EPW21846   5.500   7.174   2.486  0.0914  0.0396  0.1006
 5282WAT      O21847   4.390   4.723   1.316 -0.6277  0.5076  0.1897
 5282WAT     H121848   4.369   4.802   1.287 -1.8602  0.6799  1.4577
 5282WAT     H221849   4.477   4.721   1.311 -0.6863  0.9234 -2.3599
 5282WAT    EPW21850   4.400   4.734   1.311 -0.8184  0.5945  0.0004
 5283WAT      O21851   6.001   0.033   3.110  0.1621  0.5874  0.6598
 5283WAT     H121852   5.924   0.033   3.152  0.2385 -0.5122  0.8325
 5283WAT     H221853   6.034   0.112   3.127 -1.0942  1.2335  0.2622
 5283WAT    EPW21854   5.994   0.045   3.119 -0.0122  0.5204  0.6266
 5284WAT      O21855   0.051   6.355   2.684  0.0260  0.2388  0.1528
 5284WAT     H121856   0.018   6.308   2.749  0.7017  0.0384  0.3556
 5284WAT     H221857  -0.017   6.405   2.659 -0.2956  0.1796  0.8688
 5284WAT    EPW21858   0.036   6.355   2.690  0.0783  0.2004  0.2885
 5285WAT      O21859   1.880   1.498   2.653  0.0734 -0.4156 -0.2322
 5285WAT     H121860   1.830   1.489   2.724  1.0128 -0.4366  0.4472
 5285WAT     H221861   1.938   1.433   2.661  1.2369  0.6148 -0.1223
 5285WAT    EPW21862   1.881   1.487   2.664  0.3840 -0.2665 -0.1156
 5286WAT      O21863   3.279   0.042   4.231 -0.0318  0.0962  0.2873
 5286WAT     H121864   3.308   0.101   4.288 -0.6425  1.1503 -0.4373
 5286WAT     H221865   3.278  -0.032   4.276 -1.1590  1.0047  1.8614
 5286WAT    EPW21866   3.283   0.040   4.246 -0.2885  0.3861  0.4128
 5287WAT      O21867   4.298   3.688   0.885 -0.3042 -0.3374  0.5797
 5287WAT     H121868   4.242   3.709   0.949 -0.2881  0.1598  0.4386
 5287WAT     H221869   4.318   3.766   0.850 -0.2857 -0.6042 -0.0056
 5287WAT    EPW21870   4.292   3.703   0.890 -0.2991 -0.3034  0.4724
 5288WAT      O21871   2.603   2.754   4.780 -0.1739 -0.0267 -0.1733
 5288WAT     H121872   2.675   2.713   4.751  2.1509  0.6424  3.7834
 5288WAT     H221873   2.575   2.701   4.844 -1.7311  0.9378 -0.0136
 5288WAT    EPW21874   2.610   2.740   4.785 -0.0605  0.2146  0.4348
 5289WAT      O21875   3.078   1.032   0.342  0.4567 -0.3141  0.5990
 5289WAT     H121876   2.994   1.009   0.344 -0.3397  2.1151 -0.7239
 5289WAT     H221877   3.118   0.964   0.305 -1.1036 -1.0894  0.2895
 5289WAT    EPW21878   3.072   1.019   0.337  0.1086 -0.0698  0.3578
 5290WAT      O21879   4.634   3.187   2.919 -0.2437 -0.0836 -0.2061
 5290WAT     H121880   4.662   3.171   3.000  2.9180  0.2343 -1.0839
 5290WAT     H221881   4.556   3.223   2.931 -1.2463 -2.7295  2.4823
 5290WAT    EPW21882   4.627   3.190   2.933  0.0753 -0.4275  0.0614
 5291WAT      O21883   5.644   1.967   4.236 -0.0523  0.0815 -0.0473
 5291WAT     H121884   5.602   1.890   4.229  0.0325 -0.0382  0.7264
 5291WAT     H221885   5.595   2.021   4.188  0.5305 -0.6996 -1.6242
 5291WAT    EPW21886   5.631   1.963   4.228  0.0463 -0.0516 -0.1659
 5292WAT      O21887   3.634   6.420   3.164  0.4882  0.1736 -0.4038
 5292WAT     H121888   3.632   6.346   3.210  0.9437  0.0333 -0.6084
 5292WAT     H221889   3.563   6.415   3.114 -0.1436  0.4306  0.4365
 5292WAT    EPW21890   3.623   6.408   3.164  0.4621  0.1908 -0.3099
 5293WAT      O21891   3.281   0.438   2.491  0.6351 -0.2200  0.0223
 5293WAT     H121892   3.347   0.495   2.495  1.6953 -1.4121  0.2795
 5293WAT     H221893   3.317   0.368   2.453 -0.7250 -0.5976 -0.6108
 5293WAT    EPW21894   3.296   0.436   2.486  0.5908 -0.4519 -0.0333
 5294WAT      O21895   6.889   4.264   1.807 -0.3470  0.4469  0.1033
 5294WAT     H121896   6.974   4.247   1.809  0.2116  2.7215 -1.0718
 5294WAT     H221897   6.852   4.185   1.803  1.6601 -0.6074  1.0183
 5294WAT    EPW21898   6.896   4.250   1.807  0.0320  0.6272  0.0649
 5295WAT      O21899   1.722   7.167   7.357  0.2609  0.4503  0.3771
 5295WAT     H121900   1.654   7.120   7.328  0.8573 -0.3843  0.2911
 5295WAT     H221901   1.785   7.107   7.369  0.1782  0.7707  3.0882
 5295WAT    EPW21902   1.721   7.151   7.355  0.3368  0.3743  0.7649
 5296WAT      O21903   4.108   5.720   3.139  0.3016  0.1245  0.2270
 5296WAT     H121904   4.134   5.728   3.222 -1.2572  2.1851  0.5771
 5296WAT     H221905   4.058   5.790   3.126 -1.4763 -1.3944 -1.7286
 5296WAT    EPW21906   4.104   5.731   3.150 -0.1913  0.2045 -0.0102
 5297WAT      O21907   3.546   6.581   6.116 -0.4802 -0.3276  0.5277
 5297WAT     H121908   3.615   6.630   6.134 -1.4804  0.7452  1.6093
 5297WAT     H221909   3.484   6.639   6.097 -0.6147 -1.2981 -2.4614
 5297WAT    EPW21910   3.547   6.597   6.116 -0.6478 -0.3125  0.2459
 5298WAT      O21911   4.868   1.195   7.386  0.2480 -0.1727  0.1657
 5298WAT     H121912   4.797   1.152   7.358  0.0003 -0.8890  1.7817
 5298WAT     H221913   4.842   1.277   7.391 -0.4901 -0.4412  0.7968
 5298WAT    EPW21914   4.854   1.201   7.382  0.1024 -0.3181  0.4976
 5299WAT      O21915   3.954   5.502   0.625  0.6036  0.0485  0.0680
 5299WAT     H121916   3.901   5.561   0.661  1.7020  1.3289 -0.3278
 5299WAT     H221917   4.008   5.479   0.690  0.9529  0.4220 -0.0840
 5299WAT    EPW21918   3.954   5.507   0.640  0.8174  0.2928 -0.0130
 5300WAT      O21919   6.020   2.162   5.920  0.2735  0.3198 -0.0922
 5300WAT     H121920   6.092   2.159   5.969  0.2694 -2.8851 -0.0825
 5300WAT     H221921   5.968   2.217   5.964  2.4460  2.3236  0.1553
 5300WAT    EPW21922   6.023   2.170   5.934  0.5938  0.1423 -0.0542
 5301WAT      O21923   5.013   6.568   4.903  0.6527 -0.9105  0.4005
 5301WAT     H121924   5.025   6.487   4.872 -0.5214 -1.0087  0.1210
 5301WAT     H221925   4.960   6.556   4.972  0.5845 -0.3977  0.4432
 5301WAT    EPW21926   5.007   6.554   4.909  0.4692 -0.8493  0.3655
 5302WAT      O21927   6.320   3.525   0.596 -0.5209  0.0566 -0.1405
 5302WAT     H121928   6.266   3.478   0.646 -0.2754  1.0833  1.1596
 5302WAT     H221929   6.279   3.529   0.519 -2.4907  1.0332  0.8727
 5302WAT    EPW21930   6.306   3.519   0.592 -0.7756  0.3525  0.2012
 5303WAT      O21931   1.025   2.155   7.391 -0.3877  0.1853  0.0486
 5303WAT     H121932   1.009   2.098   7.455 -0.9841  2.4979  2.0746
 5303WAT     H221933   1.083   2.209   7.425  0.4814  0.6305 -1.9724
 5303WAT    EPW21934   1.031   2.154   7.405 -0.3474  0.5927  0.0493
 5304WAT      O21935   1.746   0.284   3.311  0.2757 -0.4762 -0.5282
 5304WAT     H121936   1.765   0.217   3.258 -1.2407 -1.3191 -0.0515
 5304WAT     H221937   1.715   0.345   3.257 -0.4973 -1.0254 -0.7089
 5304WAT    EPW21938   1.744   0.283   3.295 -0.0625 -0.6818 -0.4845
 5305WAT      O21939   4.361   6.594   6.863 -0.3537  0.0187  0.6689
 5305WAT     H121940   4.304   6.530   6.877  1.0401 -1.6331 -0.7501
 5305WAT     H221941   4.313   6.656   6.825 -1.3202 -1.1732 -0.1444
 5305WAT    EPW21942   4.346   6.594   6.860 -0.2906 -0.4014  0.3391
 5306WAT      O21943   4.926   2.597   1.634  0.1400  0.0154 -0.4507
 5306WAT     H121944   4.969   2.558   1.569 -1.0384 -0.6219 -0.8725
 5306WAT     H221945   4.910   2.532   1.690  1.3197  0.5918  0.6069
 5306WAT    EPW21946   4.930   2.581   1.633  0.1402  0.0064 -0.3568
 5307WAT      O21947   5.035   0.609   2.464 -0.0503  0.3356  0.0387
 5307WAT     H121948   5.083   0.536   2.471  0.5345  0.7325  0.2616
 5307WAT     H221949   4.953   0.580   2.467  0.1701 -0.2231  1.2720
 5307WAT    EPW21950   5.030   0.594   2.466  0.0687  0.3117  0.2538
 5308WAT      O21951   3.529   5.863   3.487 -0.0246 -0.5762  0.4615
 5308WAT     H121952   3.582   5.902   3.545  1.1311  0.6306 -1.3011
 5308WAT     H221953   3.452   5.862   3.528  0.0243  2.9932  0.9855
 5308WAT    EPW21954   3.526   5.869   3.502  0.1533  0.1294  0.2785
 5309WAT      O21955   5.574   2.684   5.424  0.0312  0.0758  0.2973
 5309WAT     H121956   5.554   2.677   5.508 -1.0996 -0.1015  0.0294
 5309WAT     H221957   5.528   2.753   5.397 -0.0981 -0.2358 -0.3122
 5309WAT    EPW21958   5.564   2.693   5.432 -0.1550  0.0036  0.1677
 5310WAT      O21959   0.195   2.264   2.520 -0.1388 -0.3017 -0.4242
 5310WAT     H121960   0.111   2.276   2.539 -0.0947 -0.0826 -0.3530
 5310WAT     H221961   0.196   2.192   2.472 -0.0034 -2.3832  2.4710
 5310WAT    EPW21962   0.183   2.255   2.516 -0.1123 -0.5768  0.0140
 5311WAT      O21963   7.045   3.234   3.522  0.2369 -0.2979 -0.5954
 5311WAT     H121964   6.996   3.169   3.554  0.1362 -1.2082 -2.5030
 5311WAT     H221965   7.126   3.214   3.549 -0.1797  0.5661  1.5333
 5311WAT    EPW21966   7.050   3.222   3.531  0.1605 -0.3047 -0.5628
 5312WAT      O21967   1.504   3.635   4.586 -0.2964 -0.3140 -0.6774
 5312WAT     H121968   1.427   3.633   4.628  1.1251  0.4187  2.2179
 5312WAT     H221969   1.533   3.553   4.594  0.4076  0.0472  0.7665
 5312WAT    EPW21970   1.497   3.623   4.594  0.0176 -0.1524 -0.0364
 5313WAT      O21971   2.942   3.021   1.333  0.2441  0.5045  0.7237
 5313WAT     H121972   2.866   3.057   1.357 -0.1465  0.6762 -0.6823
 5313WAT     H221973   2.919   2.957   1.279  1.0670 -0.2204  1.1916
 5313WAT    EPW21974   2.927   3.017   1.329  0.3080  0.4228  0.5851
 5314WAT      O21975   0.529   2.413   2.246 -0.5759 -0.5887 -0.3080
 5314WAT     H121976   0.538   2.392   2.330 -2.0741 -0.1289 -0.0110
 5314WAT     H221977   0.590   2.474   2.234  1.1720 -2.2146 -0.1749
 5314WAT    EPW21978   0.539   2.419   2.256 -0.5391 -0.7609 -0.2444
 5315WAT      O21979   0.303   2.471   5.732  0.0796  0.0824 -0.0506
 5315WAT     H121980   0.288   2.463   5.646 -3.0543  3.3738 -0.0799
 5315WAT     H221981   0.264   2.402   5.767 -0.5118 -0.1646 -1.1654
 5315WAT    EPW21982   0.295   2.460   5.724 -0.4707  0.5322 -0.2196
 5316WAT      O21983   4.569   6.247   6.855 -0.0359  0.3012  0.1156
 5316WAT     H121984   4.576   6.328   6.826 -0.3816  1.1745  2.2741
 5316WAT     H221985   4.652   6.219   6.860  0.1254  0.7717  0.0451
 5316WAT    EPW21986   4.582   6.255   6.852 -0.0632  0.4997  0.4240
 5317WAT      O21987   6.379   0.751   3.341 -0.2280  0.3647 -0.6550
 5317WAT     H121988   6.450   0.798   3.323  0.3871  0.4686  1.6801
 5317WAT     H221989   6.351   0.785   3.416 -0.3267 -2.3301  0.6299
 5317WAT    EPW21990   6.385   0.763   3.349 -0.1517 -0.0181 -0.1202
 5318WAT      O21991   3.998   5.492   3.611  0.3494  0.0421  0.0565
 5318WAT     H121992   4.070   5.539   3.625 -2.0941  4.0889  0.5165
 5318WAT     H221993   3.942   5.548   3.575 -2.7459 -2.7309 -0.0279
 5318WAT    EPW21994   4.000   5.507   3.608 -0.4688  0.2302  0.1120
 5319WAT      O21995   6.865   3.968   3.633 -0.8354  0.3442 -0.1287
 5319WAT     H121996   6.780   3.951   3.626 -0.5149 -0.7138 -2.5912
 5319WAT     H221997   6.873   4.048   3.600 -0.9593  0.7790  0.8774
 5319WAT    EPW21998   6.854   3.977   3.627 -0.8063  0.2522 -0.3438
 5320WAT      O21999   1.978   3.336   4.669 -0.1517  0.4809 -0.2149
 5320WAT     H122000   1.982   3.414   4.630  0.4378  0.0128 -1.1257
 5320WAT     H222001   2.050   3.335   4.719 -0.6815  0.9071  0.5781
 5320WAT    EPW22002   1.989   3.347   4.671 -0.1429  0.4747 -0.2323
 5321WAT      O22003   2.542   2.583   0.487 -0.2861  0.2097  0.0285
 5321WAT     H122004   2.533   2.530   0.556 -0.2990  3.2336  2.5480
 5321WAT     H222005   2.460   2.599   0.463 -0.2923 -0.5396 -0.4849
 5321WAT    EPW22006   2.529   2.577   0.494 -0.2889  0.5457  0.3249
 5322WAT      O22007   1.026   6.488   4.630 -0.1728 -0.2052  0.0259
 5322WAT     H122008   1.082   6.553   4.646  0.6376 -1.0988  0.8953
 5322WAT     H222009   0.961   6.528   4.588  0.7285  1.0068 -0.2924
 5322WAT    EPW22010   1.025   6.503   4.626  0.0801 -0.1582  0.1073
 5323WAT      O22011   5.621   2.835   3.476 -0.5482  0.6145 -0.5529
 5323WAT     H122012   5.673   2.849   3.408  2.5424 -0.1648  1.4662
 5323WAT     H222013   5.542   2.861   3.447 -0.0203 -1.8754 -5.1699
 5323WAT    EPW22014   5.617   2.841   3.462 -0.0137  0.1316 -0.9367
 5324WAT      O22015   3.380   6.775   2.348 -0.3097  0.2689  0.3690
 5324WAT     H122016   3.303   6.759   2.387 -0.4152  0.6325  0.3147
 5324WAT     H222017   3.372   6.734   2.271 -0.5381  0.4863  0.2732
 5324WAT    EPW22018   3.367   6.766   2.342 -0.3590  0.3547  0.3468
 5325WAT      O22019   3.314   4.548   0.443  0.1025 -0.0243 -0.5292
 5325WAT     H122020   3.280   4.478   0.483  0.1454  0.4146  0.3146
 5325WAT     H222021   3.309   4.529   0.358 -0.4304 -0.7971 -0.3293
 5325WAT    EPW22022   3.308   4.535   0.437  0.0301 -0.0736 -0.3750
 5326WAT      O22023   6.426   6.643   0.024  0.2196 -0.1158  0.0956
 5326WAT     H122024   6.371   6.619  -0.039 -1.6409 -2.6625  2.4003
 5326WAT     H222025   6.471   6.570   0.040 -0.2945  0.0041  2.4861
 5326WAT    EPW22026   6.424   6.628   0.017 -0.1312 -0.4743  0.7892
 5327WAT      O22027   4.418   0.301   3.838 -0.5913 -0.0792 -0.3854
 5327WAT     H122028   4.409   0.245   3.772 -0.0768  0.8130 -1.2442
 5327WAT     H222029   4.337   0.309   3.870 -0.7079 -1.1224 -0.3944
 5327WAT    EPW22030   4.405   0.294   3.833 -0.5325 -0.1015 -0.5136
 5328WAT      O22031   4.863   6.467   0.119 -0.0737  0.3781 -0.2584
 5328WAT     H122032   4.785   6.454   0.157  0.2254 -2.4054 -0.4566
 5328WAT     H222033   4.906   6.516   0.177 -1.8781  1.9412 -0.1152
 5328WAT    EPW22034   4.858   6.472   0.133 -0.2960  0.1978 -0.2665
 5329WAT      O22035   3.556   6.075   1.980  0.0402 -0.0752  0.0628
 5329WAT     H122036   3.536   5.992   1.994  2.0161 -0.5012  0.6304
 5329WAT     H222037   3.512   6.118   2.042 -2.6357 -0.3992 -1.4737
 5329WAT    EPW22038   3.547   6.069   1.991 -0.0632 -0.1860 -0.0803
 5330WAT      O22039   4.589   0.256   5.654 -1.0559  0.2002  0.5432
 5330WAT     H122040   4.537   0.316   5.616 -0.1097 -0.0656 -1.2497
 5330WAT     H222041   4.631   0.220   5.587 -0.4677 -1.4210  1.7403
 5330WAT    EPW22042   4.587   0.260   5.638 -0.8292 -0.0786  0.4552
 5331WAT      O22043   2.758   3.682   6.856  0.6947  0.3542 -0.1763
 5331WAT     H122044   2.801   3.614   6.824  1.3529 -0.7589  2.7915
 5331WAT     H222045   2.683   3.648   6.884  0.3750  1.1596 -0.0188
 5331WAT    EPW22046   2.753   3.667   6.855  0.7447  0.3087  0.2854
 5332WAT      O22047   0.779   1.457   1.683  0.2095 -0.2261 -0.2500
 5332WAT     H122048   0.788   1.541   1.661 -1.1314 -0.5660 -2.4405
 5332WAT     H222049   0.693   1.450   1.699  0.0096 -1.4499 -1.6499
 5332WAT    EPW22050   0.768   1.468   1.682 -0.0181 -0.4571 -0.7804
 5333WAT      O22051   0.217   6.772   4.016  0.6465  0.9895  0.0460
 5333WAT     H122052   0.172   6.845   3.999  1.5762  1.4169 -0.7748
 5333WAT     H222053   0.236   6.778   4.101 -0.3405  1.0774  0.2652
 5333WAT    EPW22054   0.213   6.784   4.026  0.6380  1.0656 -0.0428
 5334WAT      O22055   6.903   6.978   3.996  0.2294  0.2492 -0.1261
 5334WAT     H122056   6.830   6.957   3.954  1.3038  0.3161 -2.2002
 5334WAT     H222057   6.876   7.009   4.072 -1.8281 -0.6165 -0.4457
 5334WAT    EPW22058   6.888   6.980   4.001  0.0842  0.1312 -0.4797
 5335WAT      O22059   6.385   6.794   4.890 -0.2636 -0.4280 -0.1465
 5335WAT     H122060   6.327   6.798   4.954 -1.1726 -0.2544 -0.9615
 5335WAT     H222061   6.419   6.714   4.897 -2.3341 -1.4595 -1.1107
 5335WAT    EPW22062   6.382   6.783   4.901 -0.7037 -0.5548 -0.4093
 5336WAT      O22063   5.825   3.408   3.209 -0.4948 -0.2811 -0.2605
 5336WAT     H122064   5.890   3.465   3.217 -1.6082  1.2166 -1.2743
 5336WAT     H222065   5.845   3.346   3.266  1.0315  0.8829  0.5466
 5336WAT    EPW22066   5.838   3.407   3.219 -0.4338  0.1121 -0.2910
 5337WAT      O22067   1.256   5.837   4.528  0.0810 -0.1391  0.5078
 5337WAT     H122068   1.308   5.847   4.598  0.9346 -0.5213 -0.0470
 5337WAT     H222069   1.262   5.914   4.487 -2.9362  1.2726  2.4368
 5337WAT    EPW22070   1.265   5.850   4.532 -0.2387  0.0130  0.7108
 5338WAT      O22071   5.712   0.345   3.234 -0.5400 -0.0826  0.3791
 5338WAT     H122072   5.635   0.360   3.273 -0.4277 -1.2558  1.1222
 5338WAT     H222073   5.770   0.354   3.299 -0.2427 -0.9481  0.2540
 5338WAT    EPW22074   5.709   0.348   3.249 -0.4795 -0.3838  0.4704
 5339WAT      O22075   6.112   3.428   4.539 -0.0320  0.0794 -0.0335
 5339WAT     H122076   6.127   3.508   4.571  0.1789 -0.6240  1.7694
 5339WAT     H222077   6.149   3.430   4.460  1.5752  1.2182  0.6876
 5339WAT    EPW22078   6.119   3.441   4.532  0.2366  0.1437  0.3394
 5340WAT      O22079   6.605   6.015   1.747  0.2350 -0.1338  0.0896
 5340WAT     H122080   6.536   6.060   1.773  0.6031  0.1532  0.5931
 5340WAT     H222081   6.600   6.016   1.660 -1.4348 -1.7592  0.1027
 5340WAT    EPW22082   6.594   6.022   1.738  0.0427 -0.3315  0.1659
 5341WAT      O22083   2.855   1.901   5.967  0.5246  0.0333 -0.5315
 5341WAT     H122084   2.815   1.832   5.932 -1.2559  1.4694 -1.5260
 5341WAT     H222085   2.868   1.877   6.050 -1.4482 -0.9656 -0.4273
 5341WAT    EPW22086   2.851   1.887   5.974 -0.0298  0.0979 -0.6630
 5342WAT      O22087   3.150   7.038   5.015  0.4676  0.4937 -0.0707
 5342WAT     H122088   3.138   7.114   4.973  0.2512  0.7171  0.3939
 5342WAT     H222089   3.234   7.021   5.002 -0.0823 -0.7308 -2.7563
 5342WAT    EPW22090   3.160   7.047   5.007  0.3544  0.3458 -0.3988
 5343WAT      O22091   5.787   2.278   2.280 -0.0461 -0.0325 -0.1290
 5343WAT     H122092   5.702   2.267   2.264 -0.5732 -0.5335  2.6150
 5343WAT     H222093   5.797   2.365   2.275 -0.4110 -0.0431 -1.5784
 5343WAT    EPW22094   5.776   2.289   2.277 -0.1779 -0.1081  0.0623
 5344WAT      O22095   3.869   3.235   1.575  0.3703  0.2073 -0.1677
 5344WAT     H122096   3.880   3.272   1.654 -0.6659  2.6242 -1.0412
 5344WAT     H222097   3.949   3.206   1.555  0.8279  0.2387  1.4438
 5344WAT    EPW22098   3.883   3.236   1.584  0.2848  0.5690 -0.0587
 5345WAT      O22099   6.837   2.520   2.033  0.3881 -0.7930  0.2709
 5345WAT     H122100   6.821   2.602   2.008  1.4288 -0.4135  0.8035
 5345WAT     H222101   6.904   2.528   2.088  1.0318 -2.0917 -0.2908
 5345WAT    EPW22102   6.845   2.533   2.038  0.6369 -0.9288  0.2666
 5346WAT      O22103   1.919   3.551   1.489  0.2671  0.2420  0.3436
 5346WAT     H122104   1.968   3.559   1.416  0.4161 -1.8205  0.1596
 5346WAT     H222105   1.840   3.533   1.458 -0.2967  1.9833  0.6849
 5346WAT    EPW22106   1.915   3.549   1.473  0.2058  0.1945  0.3669
 5347WAT      O22107   2.112   4.718   0.812  0.4139  0.3033  0.3022
 5347WAT     H122108   2.128   4.794   0.772 -1.1259  0.4991  0.0020
 5347WAT     H222109   2.103   4.740   0.896  1.9316  0.1379  0.5376
 5347WAT    EPW22110   2.113   4.732   0.818  0.4106  0.3078  0.2926
 5348WAT      O22111   0.250   6.019   3.230  0.1427  0.0887 -0.6950
 5348WAT     H122112   0.223   5.936   3.229 -0.3744  0.2650 -1.3176
 5348WAT     H222113   0.332   6.013   3.261  0.4486 -0.7588 -1.6097
 5348WAT    EPW22114   0.258   6.006   3.235  0.1115 -0.0105 -0.9221
 5349WAT      O22115   1.525   5.521   0.995 -0.6238  0.0283  0.1955
 5349WAT     H122116   1.596   5.546   0.950 -0.9148 -0.2757 -0.4485
 5349WAT     H222117   1.531   5.565   1.069  0.4879 -0.3290  0.3369
 5349WAT    EPW22118   1.537   5.531   0.999 -0.5025 -0.0694  0.1212
 5350WAT      O22119   5.144   3.193   2.205 -0.1494  0.2566  0.4475
 5350WAT     H122120   5.118   3.126   2.255 -0.9050  0.7637  0.7600
 5350WAT     H222121   5.124   3.263   2.254 -0.8497  0.7621 -0.5284
 5350WAT    EPW22122   5.137   3.193   2.220 -0.3645  0.4062  0.3495
 5351WAT      O22123   1.491   5.723   7.158 -0.0978  0.4829 -0.3134
 5351WAT     H122124   1.466   5.660   7.213  1.6464  1.7983  2.1791
 5351WAT     H222125   1.432   5.786   7.172  0.5306  0.9395  0.3140
 5351WAT    EPW22126   1.479   5.723   7.168  0.2527  0.7446  0.1474
 5352WAT      O22127   7.110   6.310   4.379 -0.4333 -0.1449 -0.2489
 5352WAT     H122128   7.108   6.235   4.335  0.6869 -0.6121  0.4528
 5352WAT     H222129   7.031   6.345   4.364 -0.5541 -0.9057 -1.5189
 5352WAT    EPW22130   7.098   6.304   4.370 -0.2857 -0.3263 -0.3328
 5353WAT      O22131   2.359   6.435   1.497 -0.4794 -0.0384 -0.1558
 5353WAT     H122132   2.314   6.362   1.481  1.0262 -1.1650  0.4945
 5353WAT     H222133   2.418   6.437   1.433  0.4119 -0.2068  0.6379
 5353WAT    EPW22134   2.361   6.425   1.485 -0.1253 -0.2297  0.0575
 5354WAT      O22135   1.824   4.172   6.021  0.1165  0.2940 -0.4402
 5354WAT     H122136   1.825   4.104   6.075 -0.7690 -0.0800 -0.8745
 5354WAT     H222137   1.778   4.144   5.952  1.9735  0.4425 -1.8349
 5354WAT    EPW22138   1.817   4.158   6.018  0.2600  0.2607 -0.7104
 5355WAT      O22139   3.456   2.600   0.273 -0.3922  0.2542 -0.0141
 5355WAT     H122140   3.431   2.677   0.304 -1.0171  0.3445 -0.6988
 5355WAT     H222141   3.539   2.612   0.250 -0.3411  0.5719  0.3357
 5355WAT    EPW22142   3.465   2.613   0.274 -0.4770  0.3145 -0.0636
 5356WAT      O22143   6.103   7.007   6.592 -0.0803  0.1464  0.3593
 5356WAT     H122144   6.071   6.934   6.628 -1.4483  0.8345  0.5986
 5356WAT     H222145   6.120   7.059   6.660  1.3737 -0.0936  0.2261
 5356WAT    EPW22146   6.101   7.004   6.607 -0.0676  0.2126  0.3750
 5357WAT      O22147   5.261   6.740   4.245  0.2424 -0.5858 -0.2976
 5357WAT     H122148   5.347   6.751   4.236  0.2618 -0.4537  0.0563
 5357WAT     H222149   5.253   6.653   4.256  0.4423 -0.4653  0.8885
 5357WAT    EPW22150   5.273   6.729   4.245  0.2748 -0.5485 -0.0701
 5358WAT      O22151   5.820   6.380   4.279 -0.7970 -0.0818 -0.0244
 5358WAT     H122152   5.785   6.427   4.344  0.5495 -1.2315  1.6015
 5358WAT     H222153   5.786   6.301   4.289 -0.3511 -0.3499 -0.5370
 5358WAT    EPW22154   5.810   6.376   4.290 -0.5322 -0.2912  0.1400
 5359WAT      O22155   4.569   3.632   4.546  0.0101 -0.1574  0.5301
 5359WAT     H122156   4.598   3.570   4.493  0.5317 -0.1515  0.8063
 5359WAT     H222157   4.537   3.587   4.614 -2.2548 -0.2689 -0.5061
 5359WAT    EPW22158   4.568   3.617   4.548 -0.2474 -0.1730  0.4178
 5360WAT      O22159   6.445   1.273   2.466  1.1294  0.1492 -0.4802
 5360WAT     H122160   6.502   1.329   2.433  1.7657 -0.3425 -0.2589
 5360WAT     H222161   6.413   1.315   2.536  1.7687  0.1623 -0.1811
 5360WAT    EPW22162   6.449   1.287   2.472  1.3178  0.0785 -0.4033
 5361WAT      O22163   1.493   6.948   6.309  0.4284  0.4627  0.0727
 5361WAT     H122164   1.433   6.899   6.349  1.5692 -0.6939  0.4106
 5361WAT     H222165   1.449   6.984   6.243 -1.0214  0.9159  1.2352
 5361WAT    EPW22166   1.477   6.946   6.305  0.3828  0.3588  0.2943
 5362WAT      O22167   4.258   2.380   5.620  0.4626 -0.0796 -0.2765
 5362WAT     H122168   4.340   2.350   5.612  0.0950 -1.1210 -0.2508
 5362WAT     H222169   4.262   2.458   5.582  0.9912 -0.9614 -2.1800
 5362WAT    EPW22170   4.271   2.387   5.613  0.4864 -0.3637 -0.5539
 5363WAT      O22171   1.109   4.119   4.762 -0.1260  0.1247  0.3393
 5363WAT     H122172   1.133   4.174   4.699 -0.8400  1.0905  0.8687
 5363WAT     H222173   1.179   4.115   4.814  1.2260 -2.2943 -1.5250
 5363WAT    EPW22174   1.123   4.127   4.761 -0.0317 -0.0900  0.1421
 5364WAT      O22175   1.505   2.949   1.655 -0.0535 -0.3164 -0.2937
 5364WAT     H122176   1.577   2.899   1.652  0.1022 -0.0832 -0.4549
 5364WAT     H222177   1.530   3.024   1.618  0.0392  0.3160  1.0021
 5364WAT    EPW22178   1.519   2.952   1.649 -0.0168 -0.1885 -0.1261
 5365WAT      O22179   0.725   3.091   1.695 -0.3546  0.3523 -0.1768
 5365WAT     H122180   0.728   3.019   1.743  1.4083  0.9305  0.6438
 5365WAT     H222181   0.796   3.087   1.644  0.4131  1.9787  0.6683
 5365WAT    EPW22182   0.736   3.080   1.694  0.0192  0.6779  0.0693
 5366WAT      O22183   5.805   0.629   0.358  0.1588  0.1839  0.6293
 5366WAT     H122184   5.865   0.692   0.355  0.2490  0.1034  0.7504
 5366WAT     H222185   5.731   0.672   0.374  0.1289  0.3190  0.1392
 5366WAT    EPW22186   5.803   0.644   0.360  0.1677  0.1920  0.5748
 5367WAT      O22187   1.253   6.269   3.165 -0.1487 -0.2507  0.1617
 5367WAT     H122188   1.246   6.348   3.200  0.3617  0.1571 -0.6385
 5367WAT     H222189   1.272   6.218   3.234  2.1849  0.7413  0.3296
 5367WAT    EPW22190   1.255   6.273   3.181  0.2714 -0.0439  0.0683
 5368WAT      O22191   3.809   4.002   2.187  0.4271 -0.4991  0.4335
 5368WAT     H122192   3.766   3.987   2.112 -1.5379  0.1661  1.3626
 5368WAT     H222193   3.887   4.031   2.160 -0.5064  0.5132 -1.4014
 5368WAT    EPW22194   3.814   4.004   2.172 -0.0011 -0.2513  0.2997
 5369WAT      O22195   5.024   0.356   0.197  0.0290 -0.8905  0.6328
 5369WAT     H122196   5.005   0.309   0.125  0.1274 -0.4846  0.3406
 5369WAT     H222197   5.106   0.333   0.216  0.0006 -1.0020  0.6209
 5369WAT    EPW22198   5.033   0.346   0.189  0.0393 -0.8470  0.5879
 5370WAT      O22199   6.032   1.981   6.232 -0.2202 -0.2400 -1.2733
 5370WAT     H122200   5.966   1.992   6.176  2.6427 -1.1268 -5.2861
 5370WAT     H222201   6.070   1.907   6.206  1.2066 -0.9546  2.2138
 5370WAT    EPW22202   6.028   1.972   6.220  0.4135 -0.4765 -1.3510
 5371WAT      O22203   5.411   4.913   0.371 -0.5158 -0.2091  0.2584
 5371WAT     H122204   5.392   4.998   0.367 -0.5534  0.0062  3.0398
 5371WAT     H222205   5.349   4.881   0.424 -1.1567 -2.2490 -1.5740
 5371WAT    EPW22206   5.399   4.921   0.378 -0.6161 -0.4786  0.3986
 5372WAT      O22207   1.014   5.943   0.135 -0.4741  0.3374 -0.5241
 5372WAT     H122208   1.003   6.016   0.181 -0.6599  0.2497 -0.4287
 5372WAT     H222209   1.063   5.893   0.186  2.6559  1.6806 -1.9402
 5372WAT    EPW22210   1.020   5.946   0.149 -0.0392  0.5229 -0.7192
 5373WAT      O22211   5.763   3.543   1.218  0.7081  0.4147 -0.0723
 5373WAT     H122212   5.785   3.580   1.294 -0.5562 -0.6296  0.8403
 5373WAT     H222213   5.815   3.473   1.214 -1.2001 -1.1955  1.3410
 5373WAT    EPW22214   5.774   3.538   1.228  0.2395  0.0226  0.2713
 5374WAT      O22215   6.760   7.176   2.324  0.1533 -0.5904  0.7332
 5374WAT     H122216   6.677   7.157   2.346  0.5854 -0.1205  3.0476
 5374WAT     H222217   6.761   7.264   2.323  0.3335 -0.5866 -0.6727
 5374WAT    EPW22218   6.748   7.186   2.327  0.2437 -0.5204  0.8674
 5375WAT      O22219   0.157   1.191   4.546 -0.4700  0.3895 -0.3241
 5375WAT     H122220   0.127   1.206   4.626 -0.1844  0.0997 -0.1603
 5375WAT     H222221   0.093   1.219   4.494 -0.7839  0.2991  0.0104
 5375WAT    EPW22222   0.143   1.197   4.550 -0.4742  0.3334 -0.2505
 5376WAT      O22223   0.786   0.852   2.950  0.3950 -0.7322  0.4290
 5376WAT     H122224   0.721   0.818   2.903 -0.0909 -0.0068  0.5547
 5376WAT     H222225   0.837   0.784   2.968 -0.1279 -1.2432 -0.0005
 5376WAT    EPW22226   0.784   0.837   2.946  0.2459 -0.7005  0.3841
 5377WAT      O22227   5.899   1.924   7.319  0.3138 -0.6257  0.6096
 5377WAT     H122228   5.960   1.968   7.276 -0.7565 -0.5372 -0.8986
 5377WAT     H222229   5.848   1.986   7.353  1.1652 -0.6946  2.0848
 5377WAT    EPW22230   5.900   1.939   7.317  0.2814 -0.6228  0.6047
 5378WAT      O22231   6.112   4.415   0.163  0.2313  0.1067 -0.5966
 5378WAT     H122232   6.190   4.453   0.172  0.6220 -0.4299 -1.5707
 5378WAT     H222233   6.126   4.355   0.101 -1.2779  0.9157 -1.7690
 5378WAT    EPW22234   6.126   4.411   0.155  0.0661  0.1469 -0.9137
 5379WAT      O22235   1.712   0.848   2.438  0.3127 -0.1479  0.0335
 5379WAT     H122236   1.696   0.903   2.504  0.2840 -0.2640  0.1238
 5379WAT     H222237   1.711   0.770   2.476  1.2368 -0.1537  0.0695
 5379WAT    EPW22238   1.710   0.845   2.453  0.4449 -0.1659  0.0522
 5380WAT      O22239   6.536   2.229   0.926 -0.1478  0.0766 -0.0392
 5380WAT     H122240   6.561   2.262   0.848  3.7080  2.9465  2.0507
 5380WAT     H222241   6.563   2.147   0.922  0.5817  0.3459 -1.5343
 5380WAT    EPW22242   6.544   2.222   0.914  0.5296  0.5403  0.0487
 5381WAT      O22243   1.756   3.049   1.943  0.2291 -0.0235  0.2577
 5381WAT     H122244   1.803   3.006   2.003  1.2936  1.5259  0.6049
 5381WAT     H222245   1.776   3.008   1.868  0.0394 -1.0454  0.7393
 5381WAT    EPW22246   1.766   3.036   1.941  0.3583  0.0544  0.3801
 5382WAT      O22247   0.784   2.788   5.013 -0.5806  0.0298 -0.1412
 5382WAT     H122248   0.808   2.708   5.037 -1.8018 -0.7329 -1.2872
 5382WAT     H222249   0.749   2.821   5.086  1.6342  0.2923  0.8848
 5382WAT    EPW22250   0.782   2.781   5.027 -0.4338 -0.0441 -0.1589
 5383WAT      O22251   3.555   0.034   2.354  0.6035 -0.4603  0.4117
 5383WAT     H122252   3.513  -0.020   2.300  1.4719 -0.3586 -0.3913
 5383WAT     H222253   3.541  -0.000   2.433  1.8969 -2.4197 -0.1520
 5383WAT    EPW22254   3.547   0.021   2.358  0.9228 -0.7347  0.2098
 5384WAT      O22255   4.683   1.662   2.736 -0.1055 -0.2894 -0.1104
 5384WAT     H122256   4.712   1.743   2.742  3.6456 -1.5255  0.9763
 5384WAT     H222257   4.663   1.652   2.652 -0.5371  1.6548 -0.2716
 5384WAT    EPW22258   4.684   1.672   2.725  0.3849 -0.1848  0.0264
 5385WAT      O22259   3.271   1.794   5.397  0.0788  0.0452  0.3130
 5385WAT     H122260   3.350   1.817   5.369  0.1691  0.3037  0.7656
 5385WAT     H222261   3.244   1.865   5.441 -1.2665  0.8052 -1.5613
 5385WAT    EPW22262   3.279   1.808   5.399 -0.1066  0.1957  0.1029
 5386WAT      O22263   4.161   0.757   0.491 -0.4861 -0.4132 -0.5351
 5386WAT     H122264   4.222   0.739   0.550 -1.8824 -0.3636  0.9840
 5386WAT     H222265   4.189   0.717   0.419  2.3852  1.3649 -0.5376
 5386WAT    EPW22266   4.174   0.749   0.489 -0.2682 -0.1432 -0.3111
 5387WAT      O22267   3.765   0.380   3.004 -0.4380  0.6388 -0.3807
 5387WAT     H122268   3.819   0.447   2.987 -0.8890  1.6184  1.7146
 5387WAT     H222269   3.791   0.352   3.082  0.6027 -2.6300 -1.7257
 5387WAT    EPW22270   3.777   0.386   3.013 -0.3509  0.3007 -0.2698
 5388WAT      O22271   3.243   0.779   0.284 -0.2775 -0.2479 -0.0913
 5388WAT     H122272   3.256   0.749   0.365 -0.5670 -0.2861 -0.0566
 5388WAT     H222273   3.315   0.826   0.268 -0.6569  0.5889  0.5734
 5388WAT    EPW22274   3.256   0.782   0.294 -0.3763 -0.1299  0.0120
 5389WAT      O22275   0.420   3.898   3.467  0.0215 -0.0298 -0.3583
 5389WAT     H122276   0.337   3.885   3.491 -0.0058 -0.3501 -0.6043
 5389WAT     H222277   0.440   3.824   3.426  0.3554  0.1407 -0.5032
 5389WAT    EPW22278   0.411   3.885   3.464  0.0668 -0.0519 -0.4160
 5390WAT      O22279   7.052   2.862   4.662  0.1558  0.4714  0.7922
 5390WAT     H122280   7.127   2.872   4.706  1.4584 -2.2958 -0.5433
 5390WAT     H222281   7.008   2.804   4.710 -0.1225  0.3790  0.4278
 5390WAT    EPW22282   7.056   2.855   4.676  0.3071  0.0490  0.5411
 5391WAT      O22283   4.534   5.556   6.655 -0.4418 -0.1879 -0.0381
 5391WAT     H122284   4.608   5.518   6.629 -0.9034 -0.2175 -1.3892
 5391WAT     H222285   4.500   5.499   6.712  0.2001 -0.5213  0.0198
 5391WAT    EPW22286   4.540   5.542   6.660 -0.4152 -0.2415 -0.2291
 5392WAT      O22287   3.089   2.725   5.126  0.1989  0.2979 -0.0689
 5392WAT     H122288   3.013   2.682   5.122  0.6072 -0.5891  1.2059
 5392WAT     H222289   3.074   2.788   5.184  0.2300  0.6048 -0.3866
 5392WAT    EPW22290   3.075   2.728   5.134  0.2638  0.2122  0.0725
 5393WAT      O22291   6.033   6.693   3.556 -0.1435 -0.3864 -0.1587
 5393WAT     H122292   5.985   6.740   3.500 -0.4384  1.1436  1.2988
 5393WAT     H222293   6.113   6.693   3.519  0.1142  2.1634  0.2295
 5393WAT    EPW22294   6.038   6.700   3.542 -0.1490  0.2163  0.1139
 5394WAT      O22295   4.310   5.733   2.908  0.1688  0.0298  0.3326
 5394WAT     H122296   4.290   5.750   2.991  2.0894  0.5201  0.7415
 5394WAT     H222297   4.264   5.661   2.890 -1.3028  0.6761  1.3792
 5394WAT    EPW22298   4.300   5.725   2.917  0.2351  0.1977  0.5476
 5395WAT      O22299   6.886   6.556   0.947 -0.2356  0.8118 -0.3442
 5395WAT     H122300   6.953   6.517   0.908 -0.8629 -1.7496  0.9325
 5395WAT     H222301   6.923   6.610   1.004  0.7406 -0.3886  0.1836
 5395WAT    EPW22302   6.901   6.558   0.949 -0.1841  0.2561 -0.0776
 5396WAT      O22303   6.560   6.166   6.754  0.2593 -0.2390  0.1079
 5396WAT     H122304   6.563   6.245   6.791 -1.0537  0.8828 -2.0053
 5396WAT     H222305   6.490   6.129   6.791  1.6042 -1.0011  2.0453
 5396WAT    EPW22306   6.550   6.173   6.765  0.2640 -0.1859  0.0820
 5397WAT      O22307   1.455   5.759   4.718  0.1913  0.6618  0.5966
 5397WAT     H122308   1.501   5.724   4.653 -0.9769  0.8971 -0.3916
 5397WAT     H222309   1.445   5.692   4.774  2.5168  0.8449  1.3441
 5397WAT    EPW22310   1.461   5.744   4.717  0.3622  0.7236  0.5611
 5398WAT      O22311   5.295   2.549   4.702 -0.3661  0.2963 -0.1822
 5398WAT     H122312   5.281   2.594   4.629  0.3802 -0.2211 -0.6661
 5398WAT     H222313   5.222   2.502   4.712 -1.3079  1.8390  0.5396
 5398WAT    EPW22314   5.282   2.548   4.693 -0.3949  0.4477 -0.1471
 5399WAT      O22315   6.471   2.831   6.394  0.4003  0.6028  0.4163
 5399WAT     H122316   6.467   2.868   6.315  0.6589  1.0213  0.5920
 5399WAT     H222317   6.389   2.805   6.409 -0.0417  2.0822  0.7370
 5399WAT    EPW22318   6.458   2.833   6.385  0.3732  0.8832  0.4896
 5400WAT      O22319   0.389   2.285   1.478  0.2025  0.0768  0.1313
 5400WAT     H122320   0.422   2.208   1.502 -1.1049 -0.8048 -0.7232
 5400WAT     H222321   0.458   2.337   1.474  1.1994 -1.1839  0.2525
 5400WAT    EPW22322   0.404   2.281   1.481  0.1566 -0.2396  0.0229
 5401WAT      O22323   2.200   4.247   1.750  0.2027  0.4284 -0.2214
 5401WAT     H122324   2.168   4.181   1.703 -1.2536  0.7242  0.2910
 5401WAT     H222325   2.198   4.217   1.831 -1.1023  1.2970  0.0980
 5401WAT    EPW22326   2.195   4.233   1.755 -0.2052  0.6004 -0.0985
 5402WAT      O22327   3.969   6.000   3.502  0.2898  0.8143  0.1201
 5402WAT     H122328   3.982   5.970   3.583 -2.7362 -0.6736  0.1781
 5402WAT     H222329   3.928   6.076   3.514 -1.6925 -0.1845  0.1011
 5402WAT    EPW22330   3.965   6.007   3.516 -0.4500  0.4469  0.1258
 5403WAT      O22331   5.308   3.904   2.586 -0.1490 -1.0535 -0.0586
 5403WAT     H122332   5.293   3.821   2.562 -3.3436 -0.6437  0.1056
 5403WAT     H222333   5.265   3.951   2.526  0.5304  0.4422  0.5844
 5403WAT    EPW22334   5.299   3.898   2.574 -0.5205 -0.7720  0.0606
 5404WAT      O22335   5.031   4.781   3.636 -0.7094  0.1336 -0.1105
 5404WAT     H122336   5.106   4.783   3.680  0.5027  2.9048 -1.9792
 5404WAT     H222337   5.045   4.722   3.574 -0.1375  0.4612 -0.2986
 5404WAT    EPW22338   5.044   4.773   3.633 -0.4459  0.5914 -0.4143
 5405WAT      O22339   5.445   6.313   0.047  0.5156  0.0090 -0.2842
 5405WAT     H122340   5.510   6.299  -0.009  1.1219  0.0252  0.4013
 5405WAT     H222341   5.484   6.352   0.115 -0.6519  2.6377 -0.9858
 5405WAT    EPW22342   5.461   6.317   0.049  0.4327  0.3997 -0.2866
 5406WAT      O22343   5.623   3.193   6.953  0.4268  0.2305 -0.1538
 5406WAT     H122344   5.627   3.254   7.016  1.6797 -0.0288  0.0303
 5406WAT     H222345   5.537   3.179   6.945  0.1852  1.0603  0.7309
 5406WAT    EPW22346   5.611   3.200   6.961  0.5762  0.3148  0.0041
 5407WAT      O22347   3.042   3.215   6.359 -0.8589 -0.6313  0.6031
 5407WAT     H122348   2.999   3.178   6.293  0.5822 -1.2637 -0.0356
 5407WAT     H222349   3.060   3.295   6.329  0.8632 -1.3098 -0.3595
 5407WAT    EPW22350   3.039   3.222   6.345 -0.3916 -0.8250  0.3666
 5408WAT      O22351   6.869   2.814   4.214 -0.6283 -0.1844 -0.5061
 5408WAT     H122352   6.844   2.894   4.240 -0.3059 -0.5563  1.0664
 5408WAT     H222353   6.794   2.771   4.207 -0.6834 -0.3313  0.7885
 5408WAT    EPW22354   6.854   2.820   4.217 -0.5888 -0.2610 -0.0826
 5409WAT      O22355   4.194   6.425   3.586  0.0589  0.1986  0.3210
 5409WAT     H122356   4.231   6.422   3.507 -1.7833  0.7277 -0.6060
 5409WAT     H222357   4.217   6.349   3.622  0.0095 -0.5536 -1.1651
 5409WAT    EPW22358   4.203   6.413   3.580 -0.2206  0.1656 -0.0355
 5410WAT      O22359   7.051   6.988   2.023  0.9169  0.4175 -0.8363
 5410WAT     H122360   7.049   6.966   1.938  0.9039 -0.1727 -0.6905
 5410WAT     H222361   6.976   7.030   2.034  0.4851 -0.3094 -0.9194
 5410WAT    EPW22362   7.040   6.991   2.012  0.8512  0.2229 -0.8270
 5411WAT      O22363   6.121   1.973   3.271 -0.3691 -0.2545 -0.1026
 5411WAT     H122364   6.204   1.989   3.248 -0.0564 -1.7943 -0.2056
 5411WAT     H222365   6.128   1.904   3.325 -1.5492 -0.1234  0.2523
 5411WAT    EPW22366   6.134   1.965   3.276 -0.4972 -0.4626 -0.0654
 5412WAT      O22367   1.314   0.247   4.777 -0.3993 -0.2926  0.1080
 5412WAT     H122368   1.265   0.256   4.706  0.6488  1.8379 -0.4438
 5412WAT     H222369   1.297   0.320   4.823 -0.6800 -1.3802  1.8368
 5412WAT    EPW22370   1.304   0.259   4.774 -0.2859 -0.1386  0.2819
 5413WAT      O22371   7.161   5.540   7.384 -0.6628  0.1524  0.1299
 5413WAT     H122372   7.093   5.571   7.430 -1.1268 -1.3835  0.5632
 5413WAT     H222373   7.203   5.489   7.441 -0.5507 -0.8381 -0.7977
 5413WAT    EPW22374   7.157   5.537   7.399 -0.7148 -0.2208  0.0569
 5414WAT      O22375   2.033   7.021   7.168 -0.2547  0.8252 -0.2138
 5414WAT     H122376   2.088   7.015   7.235  0.6729  0.1062 -1.0034
 5414WAT     H222377   2.014   6.938   7.149 -0.8544  1.0375 -0.5659
 5414WAT    EPW22378   2.038   7.008   7.175 -0.2063  0.7503 -0.3825
 5415WAT      O22379   7.068   0.031   1.158 -0.1578  0.1376  0.1678
 5415WAT     H122380   7.112   0.106   1.163  1.2464 -0.6851  0.6722
 5415WAT     H222381   7.017   0.033   1.229 -0.4295  0.7946 -0.0415
 5415WAT    EPW22382   7.067   0.043   1.169  0.0095  0.1131  0.2114
 5416WAT      O22383   2.482   0.303   6.113  0.1603 -0.0361 -0.5126
 5416WAT     H122384   2.414   0.286   6.165  0.0210  1.6259 -0.0856
 5416WAT     H222385   2.548   0.312   6.169 -0.0468  2.0747 -0.5088
 5416WAT    EPW22386   2.482   0.302   6.129  0.1091  0.5213 -0.4489
 5417WAT      O22387   0.313   3.861   5.932  0.3775 -0.1762 -0.4503
 5417WAT     H122388   0.245   3.806   5.928  0.8205 -0.7940  0.4514
 5417WAT     H222389   0.279   3.936   5.903 -0.5882 -0.5824 -0.4088
 5417WAT    EPW22390   0.298   3.864   5.927  0.3003 -0.3275 -0.3110
 5418WAT      O22391   5.686   0.114   6.429  0.0746  0.4876 -0.3723
 5418WAT     H122392   5.715   0.033   6.445  1.5662  1.1829  0.6814
 5418WAT     H222393   5.710   0.129   6.347  1.0529  0.3431 -0.1260
 5418WAT    EPW22394   5.694   0.104   6.419  0.4395  0.5689 -0.1803
 5419WAT      O22395   2.258   2.442   5.288  0.2547 -0.1142  0.3022
 5419WAT     H122396   2.213   2.470   5.356  0.6289  0.0473  0.4857
 5419WAT     H222397   2.340   2.469   5.305  0.4885 -0.7197  0.1575
 5419WAT    EPW22398   2.264   2.450   5.300  0.3445 -0.1798  0.3079
 5420WAT      O22399   6.855   4.800   1.956 -0.1366  0.1593 -0.3032
 5420WAT     H122400   6.793   4.803   2.017  0.5129 -1.6010  0.5167
 5420WAT     H222401   6.866   4.715   1.941  1.5339  0.4440 -0.9747
 5420WAT    EPW22402   6.848   4.788   1.963  0.2061 -0.0587 -0.2813
 5421WAT      O22403   0.873   2.727   3.040 -0.6397  0.4446  0.3918
 5421WAT     H122404   0.861   2.752   3.123 -0.3673 -1.2627  0.9797
 5421WAT     H222405   0.849   2.644   3.040 -1.6929  0.6844 -1.5170
 5421WAT    EPW22406   0.867   2.719   3.052 -0.7551  0.2278  0.1967
 5422WAT      O22407   4.151   2.423   3.324 -0.5070  0.3325  0.1186
 5422WAT     H122408   4.153   2.341   3.355  0.2017 -0.1203 -1.0667
 5422WAT     H222409   4.087   2.422   3.265 -0.2078  0.5103 -0.2134
 5422WAT    EPW22410   4.142   2.411   3.320 -0.3581  0.2918 -0.1056
 5423WAT      O22411   0.171   6.108   7.293 -0.3857 -0.0723 -0.1514
 5423WAT     H122412   0.105   6.102   7.236 -0.8331  3.4233 -0.2432
 5423WAT     H222413   0.241   6.113   7.241 -0.3498 -0.8059 -0.1841
 5423WAT    EPW22414   0.172   6.108   7.277 -0.4465  0.3357 -0.1698
 5424WAT      O22415   0.925   3.450   3.333 -0.2524  0.5174 -0.1942
 5424WAT     H122416   0.961   3.374   3.355  2.3137  2.1896  1.9089
 5424WAT     H222417   0.991   3.495   3.297 -1.0583  2.5566  0.7198
 5424WAT    EPW22418   0.940   3.446   3.331  0.0076  1.0657  0.2515
 5425WAT      O22419   4.761   0.453   3.230  0.3121 -0.9442  0.6728
 5425WAT     H122420   4.838   0.466   3.268  0.7803  1.4269 -0.8754
 5425WAT     H222421   4.774   0.384   3.179  1.6722 -0.1752 -0.0716
 5425WAT    EPW22422   4.774   0.445   3.228  0.5822 -0.4803  0.3341
 5426WAT      O22423   3.647   0.971   4.613  0.1819 -0.0389 -0.4506
 5426WAT     H122424   3.564   0.951   4.597 -0.0878  0.9913 -0.4379
 5426WAT     H222425   3.647   1.059   4.614  1.1112 -0.0274  0.3288
 5426WAT    EPW22426   3.635   0.981   4.611  0.2793  0.1150 -0.3336
 5427WAT      O22427   0.893   4.653   3.339  0.1801 -0.6807  0.0449
 5427WAT     H122428   0.977   4.676   3.350  0.3360 -0.7270 -0.9326
 5427WAT     H222429   0.897   4.596   3.273 -0.8001  0.6359 -1.2013
 5427WAT    EPW22430   0.906   4.648   3.331  0.0583 -0.4931 -0.2836
 5428WAT      O22431   2.246   4.965   1.416 -0.1457  0.5872 -0.2446
 5428WAT     H122432   2.276   4.972   1.335 -1.1216 -0.9454 -0.7865
 5428WAT     H222433   2.272   4.886   1.442 -1.5917  0.1849  0.1292
 5428WAT    EPW22434   2.254   4.954   1.408 -0.5034  0.3014 -0.2695
 5429WAT      O22435   1.852   2.060   6.966 -0.3219 -0.3270  0.2261
 5429WAT     H122436   1.773   2.022   6.969  0.1422 -1.5349 -1.3459
 5429WAT     H222437   1.876   2.063   7.050 -1.1965 -1.8378  0.5796
 5429WAT    EPW22438   1.844   2.055   6.979 -0.3826 -0.7286  0.0461
 5430WAT      O22439   1.760   0.843   3.209 -0.2925  0.2696 -0.2105
 5430WAT     H122440   1.764   0.899   3.143  0.2282 -1.9461 -2.1852
 5430WAT     H222441   1.807   0.882   3.272 -1.6550  2.8998 -0.6911
 5430WAT    EPW22442   1.768   0.857   3.209 -0.4168  0.3309 -0.5732
 5431WAT      O22443   5.564   7.218   3.430  0.3429 -0.0341 -0.8026
 5431WAT     H122444   5.553   7.200   3.515 -2.4903 -1.3287 -1.3327
 5431WAT     H222445   5.483   7.232   3.402  1.0694 -0.7777 -3.5555
 5431WAT    EPW22446   5.551   7.218   3.439  0.0317 -0.3352 -1.2876
 5432WAT      O22447   4.057   0.254   4.741 -0.9180 -0.6545 -0.3987
 5432WAT     H122448   4.009   0.327   4.734 -0.2006 -0.2552 -1.4265
 5432WAT     H222449   4.031   0.206   4.673 -0.0424 -0.5198 -0.8517
 5432WAT    EPW22450   4.046   0.258   4.730 -0.6827 -0.5756 -0.6174
 5433WAT      O22451   5.259   0.391   3.503  0.2283 -0.2660 -1.0932
 5433WAT     H122452   5.256   0.460   3.557 -0.0183  0.6167 -2.1830
 5433WAT     H222453   5.284   0.325   3.554 -1.3511  0.2225  0.3960
 5433WAT    EPW22454   5.263   0.392   3.518 -0.0415 -0.0635 -1.0342
 5434WAT      O22455   5.440   6.412   3.721  0.0702 -0.2699  0.4908
 5434WAT     H122456   5.361   6.403   3.685  0.0659  1.2557  0.0739
 5434WAT     H222457   5.489   6.353   3.678  0.3739  2.2552 -3.0113
 5434WAT    EPW22458   5.436   6.402   3.710  0.1144  0.3284 -0.0881
 5435WAT      O22459   0.161   3.951   6.619 -0.1804  0.1473  0.1795
 5435WAT     H122460   0.222   3.925   6.676 -1.7856 -1.7684  1.1647
 5435WAT     H222461   0.102   3.992   6.669 -0.0933  1.3216 -0.6360
 5435WAT    EPW22462   0.161   3.954   6.635 -0.4047  0.0378  0.2046
 5436WAT      O22463   7.079   6.405   0.808 -0.1638 -0.4164  0.1740
 5436WAT     H122464   7.148   6.455   0.822 -1.1896  0.5455  2.0738
 5436WAT     H222465   7.105   6.326   0.834  1.2227 -0.8309 -2.1790
 5436WAT    EPW22466   7.093   6.400   0.814 -0.1106 -0.3355  0.1071
 5437WAT      O22467   0.197   0.363   4.977  0.1489  0.3405 -0.4196
 5437WAT     H122468   0.126   0.412   4.990 -0.2335  0.4163 -2.5241
 5437WAT     H222469   0.224   0.386   4.898  1.2107 -1.3079 -0.5916
 5437WAT    EPW22470   0.190   0.373   4.967  0.2493  0.1082 -0.7559
 5438WAT      O22471   0.070   3.470   3.785  0.1638 -0.1875 -0.4356
 5438WAT     H122472   0.000   3.419   3.771  0.6466 -0.6969 -1.0913
 5438WAT     H222473   0.061   3.495   3.868 -0.7613 -0.2937 -0.4904
 5438WAT    EPW22474   0.058   3.466   3.795  0.0985 -0.2784 -0.5406
 5439WAT      O22475   3.209   5.347   3.893 -0.0979  0.0812 -0.1554
 5439WAT     H122476   3.265   5.281   3.885 -0.4609 -0.4298  1.3088
 5439WAT     H222477   3.213   5.387   3.815  0.6383 -1.2439 -0.8260
 5439WAT    EPW22478   3.218   5.343   3.880 -0.0428 -0.1901 -0.0381
 5440WAT      O22479   0.059   6.934   4.363  0.7284 -0.4451 -0.0009
 5440WAT     H122480   0.012   6.973   4.301  1.0341  0.0078  0.0387
 5440WAT     H222481   0.000   6.890   4.410  0.4674 -0.6045 -0.4754
 5440WAT    EPW22482   0.044   6.933   4.361  0.7350 -0.4018 -0.0651
 5441WAT      O22483   6.713   3.075   5.718 -0.6122  0.2306 -0.2463
 5441WAT     H122484   6.643   3.091   5.670  0.0050  2.4816 -0.4766
 5441WAT     H222485   6.755   3.151   5.721  2.8609 -1.3923 -1.7324
 5441WAT    EPW22486   6.709   3.088   5.711 -0.0080  0.3234 -0.4998
 5442WAT      O22487   1.135   4.496   5.830 -0.2275  0.2449  0.5757
 5442WAT     H122488   1.087   4.423   5.838  0.0019 -0.0485 -0.5182
 5442WAT     H222489   1.123   4.537   5.906 -2.1820  0.1565  0.3684
 5442WAT    EPW22490   1.126   4.491   5.842 -0.4823  0.1885  0.3835
 5443WAT      O22491   4.677   6.804   2.589 -0.0817  0.5046 -0.3550
 5443WAT     H122492   4.761   6.811   2.564 -0.3461 -0.3754 -1.6178
 5443WAT     H222493   4.633   6.813   2.514 -0.9900 -1.1383 -0.0703
 5443WAT    EPW22494   4.683   6.806   2.574 -0.2549  0.1319 -0.4995
 5444WAT      O22495   4.534   3.539   0.404 -0.3854  0.2293  0.1761
 5444WAT     H122496   4.449   3.530   0.421 -0.3638  1.0366  0.7596
 5444WAT     H222497   4.560   3.457   0.388 -1.3140 -0.0031 -0.2447
 5444WAT    EPW22498   4.525   3.526   0.404 -0.5194  0.3142  0.2002
 5445WAT      O22499   4.007   0.715   5.465  0.1272  0.2203 -0.2325
 5445WAT     H122500   3.985   0.715   5.380 -2.7092 -0.9838  0.4112
 5445WAT     H222501   3.993   0.798   5.489 -2.3379 -0.1094 -0.2747
 5445WAT    EPW22502   4.002   0.727   5.456 -0.6559 -0.0063 -0.1437
 5446WAT      O22503   5.934   2.944   4.931  0.0984 -0.2617  0.0435
 5446WAT     H122504   6.016   2.936   4.900  0.0005  0.3959 -0.4017
 5446WAT     H222505   5.896   3.000   4.875  0.4354  2.4376  2.2834
 5446WAT    EPW22506   5.941   2.951   4.918  0.1337  0.2342  0.3086
 5447WAT      O22507   3.070   2.594   6.218 -0.1837  0.0102  0.2019
 5447WAT     H122508   3.124   2.662   6.227  1.2174 -0.9954 -0.1766
 5447WAT     H222509   3.105   2.534   6.271 -1.0081 -0.6436  0.0242
 5447WAT    EPW22510   3.083   2.595   6.227 -0.0985 -0.2349  0.1197
 5448WAT      O22511   0.392   0.555   2.471 -0.4871 -0.3067 -0.7406
 5448WAT     H122512   0.453   0.528   2.528 -0.6258 -0.7467 -0.7988
 5448WAT     H222513   0.335   0.489   2.469 -1.9621  0.8223  0.6956
 5448WAT    EPW22514   0.393   0.541   2.479 -0.7255 -0.2049 -0.5370
 5449WAT      O22515   1.782   5.023   1.650 -0.1775  0.2251  0.3607
 5449WAT     H122516   1.833   5.007   1.581  0.7622  0.1446  1.0551
 5449WAT     H222517   1.753   4.944   1.672  3.0287 -0.5327  2.6832
 5449WAT    EPW22518   1.786   5.009   1.643  0.4349  0.1012  0.8064
 5450WAT      O22519   0.172   3.913   4.997  0.1506  0.9169 -0.2152
 5450WAT     H122520   0.140   3.878   4.923  0.0657 -0.3835  0.4097
 5450WAT     H222521   0.113   3.891   5.057  1.4008 -0.1761  0.6784
 5450WAT    EPW22522   0.158   3.904   4.995  0.3228  0.5634  0.0091
 5451WAT      O22523   2.530   6.210   6.308  0.3101 -0.0068  0.1267
 5451WAT     H122524   2.502   6.228   6.228  2.1185 -0.7313 -0.7096
 5451WAT     H222525   2.461   6.169   6.344  0.1385 -1.5663 -1.7744
 5451WAT    EPW22526   2.516   6.207   6.302  0.5519 -0.3442 -0.2777
 5452WAT      O22527   0.394   2.566   1.273  0.6743 -0.3260  0.2512
 5452WAT     H122528   0.318   2.523   1.275  0.1339  0.5712 -0.1742
 5452WAT     H222529   0.445   2.521   1.328 -0.1651 -0.9301  0.5523
 5452WAT    EPW22530   0.390   2.553   1.281  0.4704 -0.2827  0.2328
 5453WAT      O22531   2.899   3.641   6.397  0.2116 -0.2912 -0.2421
 5453WAT     H122532   2.922   3.583   6.337 -0.0331 -0.8487  0.1917
 5453WAT     H222533   2.830   3.604   6.436 -1.1208  1.0951 -1.1590
 5453WAT    EPW22534   2.892   3.627   6.394 -0.0214 -0.1688 -0.3135
 5454WAT      O22535   2.635   1.671   0.854  0.3037  0.1972  0.3715
 5454WAT     H122536   2.658   1.747   0.817  0.7244 -0.8408 -1.6884
 5454WAT     H222537   2.710   1.626   0.856 -0.0021 -0.2974  1.2541
 5454WAT    EPW22538   2.650   1.676   0.849  0.3207 -0.0292  0.1976
 5455WAT      O22539   2.564   1.525   6.827  0.1176 -0.5090 -0.1765
 5455WAT     H122540   2.579   1.609   6.810  0.8684 -1.1400 -3.2093
 5455WAT     H222541   2.639   1.497   6.861 -0.2457  0.0537  1.1664
 5455WAT    EPW22542   2.577   1.533   6.829  0.1749 -0.5191 -0.4261
 5456WAT      O22543   5.502   6.533   0.507  0.8672 -0.4927  0.4726
 5456WAT     H122544   5.506   6.449   0.482 -0.2365  0.2522 -2.6219
 5456WAT     H222545   5.439   6.534   0.567 -0.7628 -1.6161 -1.1217
 5456WAT    EPW22546   5.493   6.521   0.512  0.4634 -0.5486 -0.2200
 5457WAT      O22547   3.206   6.703   0.149  0.1438 -0.2802 -0.3175
 5457WAT     H122548   3.210   6.716   0.236 -1.0611  1.8353 -0.5167
 5457WAT     H222549   3.286   6.674   0.130  0.8731  0.4844  1.3309
 5457WAT    EPW22550   3.218   6.701   0.159  0.0736  0.1452 -0.1034
 5458WAT      O22551   3.221   0.661   0.879  0.1327  0.3097  0.1714
 5458WAT     H122552   3.259   0.730   0.841 -2.4648  1.0281 -1.3351
 5458WAT     H222553   3.269   0.594   0.853  1.2669  1.2988 -0.3728
 5458WAT    EPW22554   3.234   0.661   0.870 -0.0835  0.5619 -0.1315
 5459WAT      O22555   4.842   1.749   4.103 -0.1289  0.0651  0.0387
 5459WAT     H122556   4.838   1.805   4.036  0.6431 -1.4545 -1.3394
 5459WAT     H222557   4.921   1.713   4.096 -0.0679 -0.2189  1.7328
 5459WAT    EPW22558   4.853   1.752   4.092 -0.0059 -0.2013  0.0854
 5460WAT      O22559   0.500   3.575   3.693  0.1767 -0.0219  0.3485
 5460WAT     H122560   0.562   3.514   3.684  0.6468  0.3328  1.0625
 5460WAT     H222561   0.544   3.649   3.681 -0.1491  0.2247  0.6841
 5460WAT    EPW22562   0.516   3.577   3.690  0.1980  0.0669  0.5035
 5461WAT      O22563   3.167   0.431   5.080 -0.3015 -0.3131 -0.0240
 5461WAT     H122564   3.127   0.501   5.113 -0.2285 -0.4475  0.3506
 5461WAT     H222565   3.171   0.448   4.994  0.1813  0.3762  0.1337
 5461WAT    EPW22566   3.162   0.444   5.072 -0.2194 -0.2312  0.0546
 5462WAT      O22567   1.824   5.783   1.929 -0.4279  0.1429  0.7898
 5462WAT     H122568   1.908   5.767   1.947 -0.5869 -2.1909 -0.2835
 5462WAT     H222569   1.828   5.851   1.874  1.0416 -1.7141 -1.5727
 5462WAT    EPW22570   1.837   5.791   1.924 -0.2343 -0.4762  0.2823
 5463WAT      O22571   0.807   2.294   7.312 -0.2560 -0.3117 -0.5856
 5463WAT     H122572   0.772   2.231   7.264 -1.7338  0.2233 -0.2457
 5463WAT     H222573   0.870   2.253   7.357 -1.5536 -1.6723  0.0469
 5463WAT    EPW22574   0.811   2.279   7.312 -0.6660 -0.4337 -0.4419
 5464WAT      O22575   3.046   1.321   0.258  0.1042 -0.2760  0.6003
 5464WAT     H122576   3.027   1.330   0.174  1.3946  1.1700  0.4204
 5464WAT     H222577   3.053   1.234   0.268 -3.9238 -0.8406  0.2141
 5464WAT    EPW22578   3.044   1.309   0.247 -0.3002 -0.1458  0.5167
 5465WAT      O22579   6.864   6.897   4.431  0.0933 -0.1186  0.5531
 5465WAT     H122580   6.827   6.962   4.384 -0.3003 -0.1899  0.7587
 5465WAT     H222581   6.795   6.851   4.459  0.3717 -0.6223  0.4169
 5465WAT    EPW22582   6.848   6.900   4.428  0.0763 -0.2036  0.5634
 5466WAT      O22583   0.061   0.483   2.716 -1.0277 -0.0453 -0.1914
 5466WAT     H122584  -0.018   0.504   2.685 -0.0797  0.9761 -2.0667
 5466WAT     H222585   0.104   0.559   2.715 -0.1464 -0.4765  1.3464
 5466WAT    EPW22586   0.056   0.497   2.711 -0.7575  0.0419 -0.2412
 5467WAT      O22587   3.180   6.080   6.301  0.2414  0.2434  0.4998
 5467WAT     H122588   3.190   6.083   6.214  1.0488  2.0431  0.6122
 5467WAT     H222589   3.239   6.137   6.330  1.1916 -1.5502  2.3768
 5467WAT    EPW22590   3.190   6.089   6.292  0.5010  0.2443  0.7937
 5468WAT      O22591   5.360   6.007   1.119  0.0533  0.0939  0.2181
 5468WAT     H122592   5.399   5.959   1.057  1.1306  0.2989  0.7234
 5468WAT     H222593   5.405   6.081   1.118 -1.1505  0.8494 -0.0600
 5468WAT    EPW22594   5.372   6.011   1.110  0.0346  0.2358  0.2517
 5469WAT      O22595   4.906   5.192   2.160 -0.4763 -0.6820  0.3012
 5469WAT     H122596   4.937   5.246   2.099  0.8951  0.6870  2.1341
 5469WAT     H222597   4.944   5.116   2.140 -0.6160 -0.4425 -0.9564
 5469WAT    EPW22598   4.916   5.188   2.148 -0.2943 -0.4444  0.3862
 5470WAT      O22599   5.950   6.995   2.137  0.1852 -0.7948 -0.3524
 5470WAT     H122600   5.935   7.073   2.171  2.2417 -0.9629  1.1034
 5470WAT     H222601   6.021   7.007   2.087  0.3042 -1.6386 -0.4134
 5470WAT    EPW22602   5.958   7.008   2.134  0.5065 -0.9443 -0.1464
 5471WAT      O22603   4.848   4.171   0.350  0.3220  0.2328 -0.1862
 5471WAT     H122604   4.831   4.112   0.288 -0.2535  0.2674 -0.0641
 5471WAT     H222605   4.821   4.246   0.314  0.0919  0.2688  0.0603
 5471WAT    EPW22606   4.842   4.173   0.336  0.2030  0.2432 -0.1318
 5472WAT      O22607   5.347   2.190   3.820 -0.5027  0.1107  0.4688
 5472WAT     H122608   5.413   2.138   3.796 -0.9092  0.6273 -1.9977
 5472WAT     H222609   5.387   2.262   3.850  0.0997  0.4453 -1.0448
 5472WAT    EPW22610   5.363   2.193   3.821 -0.4738  0.2365 -0.1192
 5473WAT      O22611   4.259   6.988   3.189 -0.4546 -0.4320  0.1475
 5473WAT     H122612   4.246   6.978   3.104 -0.7338 -1.5639  0.3079
 5473WAT     H222613   4.290   6.910   3.214  1.5881  0.4854  0.7238
 5473WAT    EPW22614   4.262   6.975   3.180 -0.1941 -0.4637  0.2563
 5474WAT      O22615   3.385   3.857   2.819 -0.0548  0.1130 -0.2406
 5474WAT     H122616   3.312   3.887   2.782  1.3203  0.9158 -2.5487
 5474WAT     H222617   3.423   3.811   2.755  0.8908 -1.3657  1.2939
 5474WAT    EPW22618   3.380   3.855   2.804  0.2880  0.0132 -0.3549
 5475WAT      O22619   0.238   6.305   5.077  0.1982  0.2549 -0.1859
 5475WAT     H122620   0.271   6.226   5.061  0.1316  0.6115 -2.4909
 5475WAT     H222621   0.152   6.292   5.082 -0.0597  0.3655 -2.7974
 5475WAT    EPW22622   0.231   6.292   5.075  0.1503  0.3239 -0.9122
 5476WAT      O22623   3.595   2.394   2.775  0.5845  0.0824  0.1134
 5476WAT     H122624   3.520   2.351   2.788  1.0149 -0.5790  0.4631
 5476WAT     H222625   3.629   2.355   2.705  0.3342  0.7668 -0.3980
 5476WAT    EPW22626   3.589   2.381   2.767  0.6111  0.0858  0.0895
 5477WAT      O22627   3.850   0.204   0.157  0.1077  0.1247  0.2685
 5477WAT     H122628   3.835   0.288   0.178  1.3926  0.7386 -1.0793
 5477WAT     H222629   3.772   0.175   0.131 -0.8530  0.2178  2.7820
 5477WAT    EPW22630   3.837   0.212   0.157  0.1556  0.2292  0.4407
 5478WAT      O22631   1.758   0.962   4.039 -0.5118 -0.2994  0.0181
 5478WAT     H122632   1.718   0.952   4.115 -2.3565 -1.0772 -0.9762
 5478WAT     H222633   1.780   0.881   4.016 -1.8543 -0.3575 -1.1859
 5478WAT    EPW22634   1.755   0.949   4.047 -0.9826 -0.4229 -0.3066
 5479WAT      O22635   6.157   3.489   1.886 -0.0199  0.2850  0.1278
 5479WAT     H122636   6.222   3.515   1.835  1.3254 -1.1470  1.0388
 5479WAT     H222637   6.183   3.514   1.966  0.9442 -2.8335  0.9423
 5479WAT    EPW22638   6.170   3.497   1.891  0.3212 -0.3872  0.3827
 5480WAT      O22639   2.657   2.887   3.180 -0.3919 -0.6842  0.4590
 5480WAT     H122640   2.646   2.807   3.212 -1.5363 -0.6168  0.3010
 5480WAT     H222641   2.738   2.908   3.203 -0.1667 -1.7832  0.7253
 5480WAT    EPW22642   2.667   2.878   3.188 -0.5277 -0.8366  0.4750
 5481WAT      O22643   2.246   2.038   2.483 -0.3334  0.4241  0.1928
 5481WAT     H122644   2.234   2.022   2.568 -1.7348  0.6595  0.0546
 5481WAT     H222645   2.266   1.960   2.450  1.2147  0.5032  0.8825
 5481WAT    EPW22646   2.247   2.024   2.490 -0.3117  0.4706  0.2742
 5482WAT      O22647   5.930   1.235   3.662  0.0085 -0.2193 -0.3574
 5482WAT     H122648   5.913   1.193   3.736  0.6608  0.8140  0.4198
 5482WAT     H222649   5.940   1.318   3.688 -0.1949  0.2441 -1.6718
 5482WAT    EPW22650   5.929   1.241   3.677  0.0748  0.0018 -0.4368
 5483WAT      O22651   5.743   2.805   0.740  0.3835  0.5683  0.4987
 5483WAT     H122652   5.779   2.760   0.806 -1.1538  0.8137  1.5730
 5483WAT     H222653   5.783   2.882   0.743 -0.3669  0.9341  1.8461
 5483WAT    EPW22654   5.754   2.809   0.750  0.0456  0.6586  0.8564
 5484WAT      O22655   5.133   0.694   5.124  0.2369 -0.3392 -0.5968
 5484WAT     H122656   5.109   0.741   5.193 -0.6998 -0.1370 -1.0503
 5484WAT     H222657   5.058   0.678   5.083  0.3560 -3.0874  0.0448
 5484WAT    EPW22658   5.119   0.699   5.128  0.1161 -0.7153 -0.5690
 5485WAT      O22659   0.641   6.435   4.085 -0.3149  0.3070 -0.2791
 5485WAT     H122660   0.554   6.434   4.092 -0.3078  1.9672  0.4396
 5485WAT     H222661   0.655   6.474   4.008 -0.2363  2.6776  0.8562
 5485WAT    EPW22662   0.630   6.441   4.074 -0.3022  0.9024 -0.0052
 5486WAT      O22663   2.452   1.529   2.525  0.2596 -0.5878 -0.2286
 5486WAT     H122664   2.456   1.449   2.560  2.3299 -1.1848 -1.6362
 5486WAT     H222665   2.511   1.526   2.461 -0.6692  1.6295 -1.2857
 5486WAT    EPW22666   2.462   1.517   2.521  0.4282 -0.3485 -0.5927
 5487WAT      O22667   1.414   3.979   3.532  0.1702  0.1779  0.0711
 5487WAT     H122668   1.375   4.022   3.598 -0.3962  1.2922 -0.9343
 5487WAT     H222669   1.437   4.043   3.477  1.0215 -0.6867 -0.6181
 5487WAT    EPW22670   1.411   3.995   3.534  0.2123  0.2148 -0.1792
 5488WAT      O22671   3.200   2.316   0.377  0.1923 -0.4762 -0.0115
 5488WAT     H122672   3.196   2.232   0.356  0.1632 -0.5383  0.2323
 5488WAT     H222673   3.117   2.338   0.392  0.1195 -0.2132 -0.7912
 5488WAT    EPW22674   3.187   2.307   0.376  0.1772 -0.4465 -0.0907
 5489WAT      O22675   5.140   2.976   5.730  0.1650  0.1081 -0.2160
 5489WAT     H122676   5.215   2.981   5.684 -0.3053 -0.2118 -1.0426
 5489WAT     H222677   5.154   3.029   5.798  1.7267 -1.1230  0.4921
 5489WAT    EPW22678   5.153   2.985   5.733  0.3262 -0.1210 -0.2335
 5490WAT      O22679   6.403   2.166   6.535  0.0789 -0.1058 -0.1457
 5490WAT     H122680   6.317   2.171   6.523  0.1523  0.3260 -0.5331
 5490WAT     H222681   6.412   2.106   6.597 -0.4613 -0.6752 -0.6067
 5490WAT    EPW22682   6.392   2.158   6.542  0.0100 -0.1261 -0.2710
 5491WAT      O22683   3.001   6.009   3.543 -0.5017  0.4029 -0.0942
 5491WAT     H122684   3.040   6.004   3.465 -0.7803  1.0524 -0.2772
 5491WAT     H222685   2.959   5.932   3.549  1.9926 -1.0358  0.7965
 5491WAT    EPW22686   3.001   5.997   3.533 -0.1744  0.2863  0.0104
 5492WAT      O22687   4.502   6.131   5.038 -0.0855 -0.7118 -0.0068
 5492WAT     H122688   4.428   6.148   5.081  0.0428  0.4030 -0.1947
 5492WAT     H222689   4.487   6.162   4.958  0.6964 -0.1577  0.0495
 5492WAT    EPW22690   4.489   6.138   5.033  0.0489 -0.4653 -0.0262
 5493WAT      O22691   6.325   1.185   0.279 -0.0530 -0.3479  0.3286
 5493WAT     H122692   6.362   1.116   0.240  1.4579  1.1532 -1.0866
 5493WAT     H222693   6.369   1.253   0.246 -1.9619  1.3652  1.0811
 5493WAT    EPW22694   6.337   1.185   0.268 -0.1118  0.1269  0.2307
 5494WAT      O22695   3.176   3.329   0.020 -0.1359  0.4391 -0.2116
 5494WAT     H122696   3.126   3.355   0.086 -0.0153  1.9437 -0.6600
 5494WAT     H222697   3.202   3.404  -0.017  1.3916 -0.3076 -0.7745
 5494WAT    EPW22698   3.173   3.344   0.024  0.1075  0.5511 -0.3610
 5495WAT      O22699   5.466   4.602   0.209 -0.0246  0.5208  0.0464
 5495WAT     H122700   5.448   4.679   0.172 -0.1719  0.7003  0.4916
 5495WAT     H222701   5.409   4.548   0.171 -0.1246  0.6908 -0.0472
 5495WAT    EPW22702   5.455   4.605   0.198 -0.0611  0.5724  0.0984
 5496WAT      O22703   4.920   1.968   1.013  0.0809 -0.2553  0.2230
 5496WAT     H122704   4.918   2.053   0.990 -0.1674 -0.4039 -0.3272
 5496WAT     H222705   4.878   1.966   1.089  0.0568  0.1115  0.2200
 5496WAT    EPW22706   4.914   1.980   1.021  0.0407 -0.2231  0.1413
 5497WAT      O22707   6.064   2.288   6.370  0.0639 -0.7534  0.0509
 5497WAT     H122708   6.058   2.212   6.327 -0.2671  0.0383 -1.3712
 5497WAT     H222709   6.006   2.339   6.329  1.4859  0.7802 -0.1872
 5497WAT    EPW22710   6.055   2.285   6.357  0.2250 -0.4099 -0.1943
 5498WAT      O22711   4.736   2.628   5.039  0.9485  0.2370 -0.1405
 5498WAT     H122712   4.775   2.592   5.109  0.9458 -2.6040 -1.4376
 5498WAT     H222713   4.795   2.621   4.976 -0.9558 -3.0356 -1.8570
 5498WAT    EPW22714   4.750   2.621   5.040  0.6668 -0.6661 -0.5856
 5499WAT      O22715   6.536   1.127   5.566 -0.4571 -0.4458  0.3677
 5499WAT     H122716   6.526   1.157   5.485  0.4724 -1.0103  0.0309
 5499WAT     H222717   6.622   1.131   5.580 -0.7489  1.5032  2.0726
 5499WAT    EPW22718   6.547   1.132   5.556 -0.3629 -0.2413  0.5698
 5500WAT      O22719   4.439   7.181   7.293  0.0963 -0.0883 -0.0485
 5500WAT     H122720   4.446   7.266   7.274  0.4493 -0.0185  0.3713
 5500WAT     H222721   4.481   7.174   7.369 -0.1961 -0.5854  0.0695
 5500WAT    EPW22722   4.446   7.192   7.301  0.1052 -0.1514  0.0310
 5501WAT      O22723   6.223   7.114   3.896 -0.0133  0.4596  0.0961
 5501WAT     H122724   6.204   7.152   3.820 -0.4494 -0.5793 -0.3369
 5501WAT     H222725   6.275   7.048   3.872 -0.9897 -0.5072  0.5602
 5501WAT    EPW22726   6.228   7.110   3.881 -0.2219  0.1633  0.1007
 5502WAT      O22727   4.683   6.827   4.925 -0.1871  0.8796 -0.4147
 5502WAT     H122728   4.732   6.756   4.938 -0.6920  0.0308 -2.6901
 5502WAT     H222729   4.629   6.828   4.994 -0.2002 -0.9972 -0.3547
 5502WAT    EPW22730   4.682   6.817   4.937 -0.2636  0.4770 -0.7419
 5503WAT      O22731   0.788   7.185   0.296 -0.3128  0.5076 -0.4155
 5503WAT     H122732   0.709   7.166   0.327 -0.2467  3.4797  1.9208
 5503WAT     H222733   0.842   7.163   0.361  0.4990  1.2785 -0.8086
 5503WAT    EPW22734   0.785   7.179   0.310 -0.1831  1.0605 -0.1285
 5504WAT      O22735   5.056   0.203   5.172 -0.1614  0.7406  0.2678
 5504WAT     H122736   5.122   0.231   5.123 -0.8234  0.9021 -0.5660
 5504WAT     H222737   4.987   0.209   5.119 -0.3420 -2.7965 -0.1451
 5504WAT    EPW22738   5.055   0.208   5.157 -0.2859  0.2419  0.0836
 5505WAT      O22739   1.630   2.721   3.162 -0.0888  0.8720  0.1079
 5505WAT     H122740   1.560   2.756   3.124  0.1346  0.0559 -1.1412
 5505WAT     H222741   1.598   2.681   3.233 -0.6631  1.6936  0.3136
 5505WAT    EPW22742   1.615   2.720   3.167 -0.1406  0.8728 -0.0462
 5506WAT      O22743   0.954   3.597   1.670 -0.2602 -0.0629  0.0343
 5506WAT     H122744   0.900   3.623   1.733 -3.4773 -1.9040 -1.7217
 5506WAT     H222745   0.980   3.673   1.633 -3.7711  0.9874 -0.6080
 5506WAT    EPW22746   0.950   3.612   1.674 -1.2541 -0.1797 -0.3200
 5507WAT      O22747   6.578   2.476   2.136  0.4583 -0.3708 -0.1693
 5507WAT     H122748   6.532   2.514   2.072  0.9310 -1.2203 -1.0401
 5507WAT     H222749   6.660   2.500   2.120  0.3418  1.5513  1.6761
 5507WAT    EPW22750   6.583   2.485   2.124  0.5109 -0.2124 -0.0253
 5508WAT      O22751   6.261   2.121   0.588  0.0002 -0.4029 -0.4619
 5508WAT     H122752   6.286   2.052   0.542  0.2257 -1.6781  1.4571
 5508WAT     H222753   6.284   2.101   0.670 -2.9081  0.4673  0.6906
 5508WAT    EPW22754   6.268   2.108   0.594 -0.3961 -0.4627 -0.0081
 5509WAT      O22755   6.744   2.016   6.509 -0.0874  0.1475 -0.2355
 5509WAT     H122756   6.795   2.025   6.579  0.9000 -0.3547 -0.8538
 5509WAT     H222757   6.699   1.943   6.525 -0.1501  0.2477  0.0435
 5509WAT    EPW22758   6.745   2.006   6.522  0.0492  0.0881 -0.2856
 5510WAT      O22759   6.189   6.244   2.201 -0.6187 -0.5195  0.3277
 5510WAT     H122760   6.182   6.326   2.231  2.2779  0.2804 -0.8215
 5510WAT     H222761   6.152   6.196   2.264  0.0062  1.4787  2.3788
 5510WAT    EPW22762   6.182   6.249   2.215 -0.0985 -0.1062  0.4609
 5511WAT      O22763   2.968   0.751   0.959 -0.0559 -0.1157  0.5050
 5511WAT     H122764   2.973   0.729   1.044 -0.5766 -0.8587  0.3504
 5511WAT     H222765   3.030   0.702   0.922  0.5403  0.6064  0.5194
 5511WAT    EPW22766   2.978   0.741   0.966 -0.0448 -0.1188  0.4843
 5512WAT      O22767   5.650   5.717   1.598 -0.5886  0.3974 -0.2287
 5512WAT     H122768   5.636   5.694   1.681 -1.4796  0.9569 -0.2048
 5512WAT     H222769   5.586   5.678   1.554  0.8992 -1.3585 -0.9484
 5512WAT    EPW22770   5.639   5.708   1.603 -0.5004  0.2207 -0.3315
 5513WAT      O22771   7.106   0.516   2.603  0.1421 -0.3734  0.0726
 5513WAT     H122772   7.081   0.599   2.592  1.6186  0.1073  0.1142
 5513WAT     H222773   7.074   0.475   2.533  0.4067  0.4825 -0.5623
 5513WAT    EPW22774   7.097   0.522   2.591  0.3993 -0.1760 -0.0150
 5514WAT      O22775   0.840   4.974   2.648 -0.1234 -0.1625  0.6729
 5514WAT     H122776   0.849   5.037   2.589 -1.8006  0.3231  0.8836
 5514WAT     H222777   0.899   4.914   2.624 -0.0050  0.5150 -0.8058
 5514WAT    EPW22778   0.850   4.974   2.636 -0.3536  0.0093  0.4856
 5515WAT      O22779   7.085   2.294   5.873 -0.0556 -0.0298 -0.2705
 5515WAT     H122780   6.999   2.285   5.877 -0.1363 -0.3920 -2.1353
 5515WAT     H222781   7.109   2.238   5.811  1.5329  0.0082  0.2650
 5515WAT    EPW22782   7.076   2.285   5.864  0.1671 -0.0777 -0.4668
 5516WAT      O22783   2.477   1.740   5.736 -0.2159 -0.5635 -0.0611
 5516WAT     H122784   2.534   1.675   5.722 -1.2686 -1.3395 -0.9844
 5516WAT     H222785   2.437   1.716   5.809 -0.3191 -0.7438 -0.1761
 5516WAT    EPW22786   2.480   1.727   5.745 -0.3867 -0.7048 -0.2145
 5517WAT      O22787   2.226   3.360   3.173  0.1803 -0.0973 -0.5530
 5517WAT     H122788   2.274   3.299   3.132 -1.1410  0.4340 -3.1507
 5517WAT     H222789   2.157   3.370   3.120 -0.3163  2.6832  0.4489
 5517WAT    EPW22790   2.223   3.353   3.159 -0.0882  0.3920 -0.7887
 5518WAT      O22791   0.517   3.073   5.795  0.4658  0.2003 -0.2077
 5518WAT     H122792   0.547   3.004   5.840 -1.4897 -0.4522  0.1642
 5518WAT     H222793   0.563   3.140   5.828  0.0340 -0.4549  1.8573
 5518WAT    EPW22794   0.529   3.073   5.807  0.1131  0.0071  0.1523
 5519WAT      O22795   4.818   0.765   1.417  0.0823 -0.2324 -0.0452
 5519WAT     H122796   4.780   0.808   1.350  1.8904  0.2748 -0.7912
 5519WAT     H222797   4.867   0.826   1.455  0.4475 -0.9637  0.6857
 5519WAT    EPW22798   4.819   0.781   1.413  0.4033 -0.2655 -0.0474
 5520WAT      O22799   3.414   2.186   4.660 -0.0724 -0.0395  0.0171
 5520WAT     H122800   3.364   2.120   4.632 -1.5930  0.6895  0.9304
 5520WAT     H222801   3.393   2.195   4.744 -0.4889  2.1106 -0.2603
 5520WAT    EPW22802   3.404   2.178   4.668 -0.3586  0.3858  0.1110
 5521WAT      O22803   6.834   1.315   4.317 -0.1506 -0.3698 -0.1455
 5521WAT     H122804   6.820   1.336   4.400 -1.3992 -2.0693  0.1221
 5521WAT     H222805   6.757   1.333   4.279  0.3803  0.3048 -0.9377
 5521WAT    EPW22806   6.821   1.321   4.323 -0.2566 -0.5212 -0.2230
 5522WAT      O22807   2.329   7.209   1.656 -0.4406 -0.2101 -0.2350
 5522WAT     H122808   2.263   7.256   1.690  0.5013  0.4953  0.6717
 5522WAT     H222809   2.392   7.216   1.715  0.7996 -0.0787 -1.5199
 5522WAT    EPW22810   2.328   7.217   1.669 -0.1182 -0.0865 -0.2909
 5523WAT      O22811   6.607   6.476   4.012 -0.0300  0.1484  0.0233
 5523WAT     H122812   6.583   6.524   3.943  0.0559 -0.4657 -0.4502
 5523WAT     H222813   6.665   6.526   4.054  2.2342 -0.5734 -1.9864
 5523WAT    EPW22814   6.612   6.490   4.008  0.3172 -0.0490 -0.3435
 5524WAT      O22815   4.817   5.205   4.797 -0.1927  0.1345  0.4561
 5524WAT     H122816   4.770   5.210   4.723 -0.0816 -0.4159  0.3395
 5524WAT     H222817   4.779   5.139   4.840 -1.2945  1.4859  1.6570
 5524WAT    EPW22818   4.804   5.196   4.792 -0.3390  0.2528  0.6163
 5525WAT      O22819   2.597   3.924   0.753  0.2587  0.7391 -0.3980
 5525WAT     H122820   2.538   3.988   0.747 -0.5971 -0.0576 -0.7067
 5525WAT     H222821   2.664   3.962   0.794 -0.4207  1.6965 -0.1325
 5525WAT    EPW22822   2.598   3.939   0.758  0.0319  0.7629 -0.4044
 5526WAT      O22823   2.332   5.310   3.692  0.0324 -0.3597  0.2551
 5526WAT     H122824   2.253   5.309   3.655 -0.0834  1.8212  0.2984
 5526WAT     H222825   2.315   5.319   3.777  0.3102  0.2801  0.2494
 5526WAT    EPW22826   2.318   5.311   3.699  0.0563  0.0569  0.2606
 5527WAT      O22827   4.414   1.259   6.832  0.2839  0.3843  0.1996
 5527WAT     H122828   4.363   1.330   6.842  0.8238  0.7059  0.7754
 5527WAT     H222829   4.363   1.204   6.788  0.0627  1.3482 -0.8070
 5527WAT    EPW22830   4.399   1.262   6.827  0.3310  0.5742  0.1359
 5528WAT      O22831   5.902   6.735   3.276  0.0400  0.2572 -0.4667
 5528WAT     H122832   5.831   6.686   3.260  0.6698 -0.4470 -1.1859
 5528WAT     H222833   5.964   6.697   3.228  0.8651  0.9763  0.0083
 5528WAT    EPW22834   5.901   6.722   3.267  0.2549  0.2594 -0.5028
 5529WAT      O22835   1.634   4.530   1.150 -0.3586 -0.0605  0.3466
 5529WAT     H122836   1.719   4.513   1.148 -0.4921 -0.8422  0.6264
 5529WAT     H222837   1.613   4.546   1.067  0.6613  3.5226  0.6105
 5529WAT    EPW22838   1.643   4.530   1.138 -0.2277  0.3533  0.4269
 5530WAT      O22839   6.373   3.521   2.589  0.0916 -0.1275 -0.3295
 5530WAT     H122840   6.331   3.457   2.547  0.7798  0.4636 -1.9939
 5530WAT     H222841   6.425   3.478   2.645 -0.4494 -0.9609 -0.4514
 5530WAT    EPW22842   6.375   3.505   2.591  0.1134 -0.1633 -0.5933
 5531WAT      O22843   0.595   4.198   5.470  0.0677  0.4914 -0.0048
 5531WAT     H122844   0.592   4.169   5.388  1.2531  0.5194 -0.0725
 5531WAT     H222845   0.675   4.233   5.477 -0.2813  1.1435  0.9407
 5531WAT    EPW22846   0.607   4.199   5.459  0.1913  0.5919  0.1249
 5532WAT      O22847   4.928   3.657   3.876 -0.1832  0.0306 -0.0137
 5532WAT     H122848   4.891   3.682   3.801 -0.2446 -1.5122 -0.5302
 5532WAT     H222849   4.946   3.573   3.863  1.8513  0.2483  0.8856
 5532WAT    EPW22850   4.925   3.648   3.863  0.1083 -0.1652  0.0428
 5533WAT      O22851   1.440   1.064   3.397 -0.0158 -0.5573 -0.3211
 5533WAT     H122852   1.377   1.110   3.436 -0.7843 -0.1972 -1.9061
 5533WAT     H222853   1.403   0.988   3.379 -0.0058 -0.3618 -1.2194
 5533WAT    EPW22854   1.425   1.060   3.400 -0.1279 -0.4753 -0.6879
 5534WAT      O22855   3.931   1.241   5.833 -0.0744  0.3635 -0.0744
 5534WAT     H122856   3.990   1.181   5.854  0.6867  1.1990  0.2295
 5534WAT     H222857   3.911   1.278   5.909  0.6259  1.5298 -0.4323
 5534WAT    EPW22858   3.936   1.238   5.847  0.1415  0.6592 -0.0824
 5535WAT      O22859   5.619   2.563   1.023 -0.0607 -0.0660  0.3858
 5535WAT     H122860   5.574   2.515   1.080  0.0919  0.6338  1.1056
 5535WAT     H222861   5.558   2.617   0.990  0.1048  0.4092  0.8490
 5535WAT    EPW22862   5.603   2.564   1.026 -0.0137  0.1075  0.5605
 5536WAT      O22863   5.290   2.991   0.192 -0.0306 -0.1242 -0.8517
 5536WAT     H122864   5.358   3.019   0.145 -0.4371  0.4467 -1.1117
 5536WAT     H222865   5.257   3.065   0.226  0.6940 -0.5879  0.9432
 5536WAT    EPW22866   5.295   3.006   0.190  0.0164 -0.1083 -0.6249
 5537WAT      O22867   4.857   2.297   0.444 -0.6585 -0.1067  0.1553
 5537WAT     H122868   4.861   2.375   0.482  0.8574  0.0612 -0.2980
 5537WAT     H222869   4.937   2.286   0.411 -0.4637 -2.3626  1.2123
 5537WAT    EPW22870   4.869   2.307   0.445 -0.4058 -0.4151  0.2445
 5538WAT      O22871   4.126   3.467   2.402 -0.6315  0.6321 -0.2536
 5538WAT     H122872   4.086   3.390   2.411  1.9727 -0.7452  0.3255
 5538WAT     H222873   4.140   3.473   2.317  0.4511 -0.2840 -0.1607
 5538WAT    EPW22874   4.122   3.456   2.391 -0.0869  0.2933 -0.1543
 5539WAT      O22875   0.894   1.749   3.814 -0.0259 -0.2868  0.2277
 5539WAT     H122876   0.902   1.813   3.872 -0.1467 -0.1566  0.1018
 5539WAT     H222877   0.976   1.719   3.805 -0.2157 -1.2452  1.5135
 5539WAT    EPW22878   0.908   1.754   3.821 -0.0718 -0.4091  0.3991
 5540WAT      O22879   1.365   0.244   3.125  0.2934 -0.1011  0.0497
 5540WAT     H122880   1.314   0.306   3.159 -0.7186 -0.2811 -1.0533
 5540WAT     H222881   1.444   0.279   3.128 -0.0795  0.7316  0.6074
 5540WAT    EPW22882   1.369   0.259   3.130  0.0888 -0.0047 -0.0309
 5541WAT      O22883   3.502   2.455   1.427 -0.0151 -0.1883 -0.0780
 5541WAT     H122884   3.467   2.380   1.454 -0.0767 -0.2775 -0.3964
 5541WAT     H222885   3.466   2.467   1.348  0.7592 -0.3479 -0.4625
 5541WAT    EPW22886   3.492   2.446   1.419  0.0902 -0.2251 -0.1818
 5542WAT      O22887   1.958   1.848   1.983  0.0056  0.2709  0.8251
 5542WAT     H122888   2.033   1.887   2.004 -0.9000  1.3667  2.2819
 5542WAT     H222889   1.980   1.793   1.920  1.8348  1.3216  0.4699
 5542WAT    EPW22890   1.972   1.846   1.977  0.1420  0.5880  0.9878
 5543WAT      O22891   5.239   1.640   3.432 -0.0873 -0.1643 -0.0388
 5543WAT     H122892   5.245   1.711   3.484  0.1216 -0.9453  1.0408
 5543WAT     H222893   5.164   1.604   3.457  0.6771 -1.2899  0.7172
 5543WAT    EPW22894   5.229   1.645   3.444  0.0565 -0.4460  0.2323
 5544WAT      O22895   5.408   4.467   5.747  0.0439 -0.1092 -0.2891
 5544WAT     H122896   5.362   4.480   5.674  1.3955  1.2013 -0.9486
 5544WAT     H222897   5.469   4.409   5.723  1.9375  2.0205 -0.9291
 5544WAT    EPW22898   5.410   4.460   5.733  0.5233  0.3990 -0.4811
 5545WAT      O22899   0.116   5.519   3.849 -0.4847  0.0849 -0.2971
 5545WAT     H122900   0.073   5.463   3.900 -1.4088 -0.1291 -1.2569
 5545WAT     H222901   0.053   5.554   3.800  0.3790  0.1144 -1.4345
 5545WAT    EPW22902   0.101   5.516   3.849 -0.4936  0.0577 -0.6069
 5546WAT      O22903   4.019   6.292   7.293  0.0967  0.1265  0.6575
 5546WAT     H122904   3.971   6.282   7.221  1.3476  1.6653 -0.4706
 5546WAT     H222905   4.025   6.212   7.326 -0.7748 -0.5725 -0.7853
 5546WAT    EPW22906   4.013   6.279   7.287  0.1528  0.2506  0.2777
 5547WAT      O22907   0.030   1.547   2.359  0.2348  0.1199  0.4327
 5547WAT     H122908  -0.041   1.517   2.398  3.0071 -3.4891  3.5047
 5547WAT     H222909   0.052   1.617   2.407 -0.1084 -0.1247  0.9595
 5547WAT    EPW22910   0.023   1.553   2.372  0.5936 -0.4494  0.9643
 5548WAT      O22911   5.483   2.758   0.907  0.0046 -0.7695  0.3380
 5548WAT     H122912   5.541   2.799   0.857  0.7926 -2.7521 -0.4947
 5548WAT     H222913   5.436   2.712   0.849 -0.0544 -1.9214  1.2588
 5548WAT    EPW22914   5.485   2.757   0.891  0.1123 -1.2325  0.3510
 5549WAT      O22915   6.034   7.106   3.642  0.5912  0.4412  0.2414
 5549WAT     H122916   5.957   7.071   3.664  0.6233  0.5878  0.5858
 5549WAT     H222917   6.041   7.086   3.557 -0.0761  0.8692  0.0711
 5549WAT    EPW22918   6.023   7.098   3.632  0.4974  0.5261  0.2671
 5550WAT      O22919   4.894   4.524   4.145 -0.1395  0.2280  0.0988
 5550WAT     H122920   4.905   4.532   4.058  0.8093 -1.1247  0.0518
 5550WAT     H222921   4.888   4.437   4.156  0.3073  0.3492  1.4398
 5550WAT    EPW22922   4.895   4.512   4.134  0.0667  0.0461  0.2899
 5551WAT      O22923   4.598   0.156   1.943 -0.0314 -0.1857 -0.5051
 5551WAT     H122924   4.666   0.105   1.923 -0.2630 -0.8926  0.4666
 5551WAT     H222925   4.532   0.122   1.897  0.3534  0.8481 -1.9056
 5551WAT    EPW22926   4.598   0.144   1.933 -0.0088 -0.1374 -0.5684
 5552WAT      O22927   4.632   3.151   1.104  0.1439  0.4015 -0.2448
 5552WAT     H122928   4.668   3.226   1.080  0.7561 -0.0230 -0.6736
 5552WAT     H222929   4.549   3.173   1.121  0.3551  1.2010 -0.1800
 5552WAT    EPW22930   4.625   3.165   1.103  0.2655  0.4569 -0.2986
 5553WAT      O22931   5.423   3.762   2.100 -0.1337  0.0095 -0.4208
 5553WAT     H122932   5.400   3.836   2.138 -1.4126 -0.6164  0.0855
 5553WAT     H222933   5.363   3.751   2.037  0.2222 -0.4331 -0.6926
 5553WAT    EPW22934   5.411   3.771   2.096 -0.2701 -0.1483 -0.3862
 5554WAT      O22935   3.297   7.059   1.086  0.7069  0.3843  0.3206
 5554WAT     H122936   3.276   7.141   1.105  1.0570  0.2393  1.4029
 5554WAT     H222937   3.373   7.067   1.043  1.6425  0.5600  1.9196
 5554WAT    EPW22938   3.305   7.072   1.082  0.8968  0.3888  0.7167
 5555WAT      O22939   0.784   4.247   2.168  0.6276 -0.1382  0.5117
 5555WAT     H122940   0.741   4.171   2.160  0.2679  0.0748  0.3592
 5555WAT     H222941   0.726   4.306   2.138  1.2397  0.0924 -0.2440
 5555WAT    EPW22942   0.769   4.245   2.162  0.6649 -0.0726  0.3775
 5556WAT      O22943   1.140   3.398   0.866  0.6788  0.1378 -0.3782
 5556WAT     H122944   1.071   3.451   0.874  0.9849  0.8667 -2.1436
 5556WAT     H222945   1.138   3.351   0.940 -2.8540 -1.2666 -1.1453
 5556WAT    EPW22946   1.129   3.399   0.878  0.2022  0.0380 -0.7523
 5557WAT      O22947   5.946   3.016   3.638  0.0190 -0.1234 -0.7374
 5557WAT     H122948   5.905   3.041   3.565  0.6978 -0.5299 -1.2660
 5557WAT     H222949   6.028   3.004   3.612  0.1030 -1.0531 -0.0834
 5557WAT    EPW22950   5.952   3.018   3.623  0.1317 -0.3208 -0.7189
 5558WAT      O22951   5.578   1.733   3.792 -0.1716  0.3228 -0.0374
 5558WAT     H122952   5.649   1.732   3.842  1.0271  2.2256 -1.5628
 5558WAT     H222953   5.535   1.661   3.816  2.1598 -0.8064  1.0815
 5558WAT    EPW22954   5.582   1.722   3.803  0.3499  0.4371 -0.0974
 5559WAT      O22955   0.030   2.561   6.556 -0.0163  0.0878 -0.2060
 5559WAT     H122956   0.030   2.642   6.590  1.2409  0.3374 -0.7785
 5559WAT     H222957  -0.027   2.567   6.490  1.9855  1.2769 -1.9468
 5559WAT    EPW22958   0.021   2.574   6.551  0.4651  0.3004 -0.5477
 5560WAT      O22959   3.910   5.828   2.672  0.7192 -0.7056 -0.6858
 5560WAT     H122960   3.892   5.898   2.722  1.7004 -1.0249  0.1487
 5560WAT     H222961   3.832   5.804   2.641  0.0913 -0.4112  0.6060
 5560WAT    EPW22962   3.895   5.835   2.675  0.7714 -0.7093 -0.3717
 5561WAT      O22963   5.890   4.685   1.897 -0.1137  0.3295 -0.9027
 5561WAT     H122964   5.943   4.659   1.962 -1.8701 -0.7260  0.1825
 5561WAT     H222965   5.899   4.622   1.837 -2.4771 -1.6790  0.6671
 5561WAT    EPW22966   5.899   4.672   1.898 -0.7223 -0.1231 -0.5105
 5562WAT      O22967   2.057   5.639   4.468 -0.1431  0.1765 -0.1055
 5562WAT     H122968   1.985   5.628   4.517 -0.2245  3.0135  0.5780
 5562WAT     H222969   2.083   5.557   4.452 -3.7885 -1.0262 -0.8766
 5562WAT    EPW22970   2.050   5.625   4.473 -0.6936  0.4179 -0.1184
 5563WAT      O22971   4.393   1.616   6.883 -0.1484 -0.2458  0.2371
 5563WAT     H122972   4.387   1.703   6.883  0.2941 -0.1838 -1.0673
 5563WAT     H222973   4.311   1.590   6.864 -0.0742 -0.0700 -0.3436
 5563WAT    EPW22974   4.380   1.625   6.880 -0.0721 -0.2106 -0.0414
 5564WAT      O22975   4.651   6.260   5.451 -0.0527 -0.2041  0.0272
 5564WAT     H122976   4.730   6.239   5.480  0.0685  1.8963  1.3991
 5564WAT     H222977   4.597   6.223   5.508  0.0782  0.8359  0.8616
 5564WAT    EPW22978   4.654   6.252   5.464 -0.0154  0.2598  0.3531
 5565WAT      O22979   4.097   1.964   1.845 -0.1559  0.1727  0.1084
 5565WAT     H122980   4.036   1.969   1.783 -0.5591 -0.6099  0.4218
 5565WAT     H222981   4.155   2.025   1.822 -1.0179  0.8956 -0.2381
 5565WAT    EPW22982   4.096   1.974   1.833 -0.3428  0.1639  0.1035
 5566WAT      O22983   3.607   2.871   4.891 -0.1705  0.0230  0.0868
 5566WAT     H122984   3.547   2.926   4.861  0.1529  0.0112 -0.6077
 5566WAT     H222985   3.668   2.870   4.828  1.3235  1.2127  1.4180
 5566WAT    EPW22986   3.607   2.879   4.877  0.0980  0.1970  0.1808
 5567WAT      O22987   0.170   0.217   1.419 -0.1208  0.2558 -0.0678
 5567WAT     H122988   0.257   0.210   1.422 -0.1002  0.7568  1.2404
 5567WAT     H222989   0.143   0.157   1.476 -0.3261  3.5655  3.8058
 5567WAT    EPW22990   0.179   0.207   1.428 -0.1481  0.8187  0.6977
 5568WAT      O22991   6.139   1.580   0.160 -0.1926  0.5802 -0.0359
 5568WAT     H122992   6.162   1.536   0.088  2.4177  0.7503  0.6260
 5568WAT     H222993   6.081   1.528   0.198 -0.3461 -0.2885 -1.3955
 5568WAT    EPW22994   6.134   1.566   0.155  0.1703  0.4770 -0.1390
 5569WAT      O22995   2.555   1.197   1.043 -0.2035  0.2613  0.3463
 5569WAT     H122996   2.501   1.166   0.982  2.4364 -1.3271 -1.3727
 5569WAT     H222997   2.602   1.128   1.068 -0.6426  0.9775  3.7893
 5569WAT    EPW22998   2.554   1.183   1.038  0.1216  0.1325  0.6010
 5570WAT      O22999   0.348   5.659   4.270 -0.0693 -0.0565 -0.1837
 5570WAT     H123000   0.373   5.674   4.188  0.0975 -1.6319 -0.4497
 5570WAT     H223001   0.309   5.581   4.266 -1.0640  0.3396  1.0358
 5570WAT    EPW23002   0.346   5.650   4.257 -0.1916 -0.2307 -0.0428
 5571WAT      O23003   4.384   5.978   3.361 -0.0387  0.2722  0.5222
 5571WAT     H123004   4.423   5.992   3.284  0.0058  2.0880  0.8438
 5571WAT     H223005   4.313   6.028   3.359 -0.9821 -0.9812  1.0065
 5571WAT    EPW23006   4.379   5.987   3.350 -0.1715  0.3553  0.6412
 5572WAT      O23007   5.555   0.951   3.462 -0.5755 -0.5105  0.7582
 5572WAT     H123008   5.571   1.003   3.530  0.4402 -1.5424  1.3384
 5572WAT     H223009   5.550   1.006   3.394  1.0989  0.3021  1.2436
 5572WAT    EPW23010   5.556   0.967   3.462 -0.1781 -0.5429  0.9156
 5573WAT      O23011   5.182   4.337   5.886  0.1111  0.0474 -0.3298
 5573WAT     H123012   5.146   4.312   5.811 -0.6900  0.6323 -0.1592
 5573WAT     H223013   5.256   4.376   5.861  0.6642 -1.1849 -0.6876
 5573WAT    EPW23014   5.187   4.339   5.871  0.0745 -0.0482 -0.3575
 5574WAT      O23015   6.515   2.004   7.186  0.0083  0.2099 -0.4136
 5574WAT     H123016   6.456   2.068   7.182 -0.9672 -0.6905 -0.8069
 5574WAT     H223017   6.540   1.994   7.103 -0.2714 -0.2981 -0.4420
 5574WAT    EPW23018   6.510   2.012   7.173 -0.1771  0.0018 -0.4759
 5575WAT      O23019   1.826   3.661   4.079  0.8174 -0.3685  0.4274
 5575WAT     H123020   1.751   3.693   4.048  0.0845  0.0028  2.4328
 5575WAT     H223021   1.806   3.578   4.097  0.1380  0.2744  3.0129
 5575WAT    EPW23022   1.812   3.653   4.077  0.6088 -0.2187  1.1056
 5576WAT      O23023   0.519   2.029   7.370 -0.4136  0.3040  0.2475
 5576WAT     H123024   0.452   1.983   7.402 -0.4738  0.4474  0.3239
 5576WAT     H223025   0.572   2.039   7.439 -0.9706  1.4044  0.5300
 5576WAT    EPW23026   0.517   2.023   7.385 -0.5048  0.4878  0.3005
 5577WAT      O23027   0.516   2.787   1.002  1.0171  0.0040 -0.6373
 5577WAT     H123028   0.549   2.733   0.943  0.3770  1.2673 -2.2239
 5577WAT     H223029   0.483   2.852   0.954 -2.1708 -0.2952  0.8547
 5577WAT    EPW23030   0.516   2.789   0.986  0.4516  0.1464 -0.6513
 5578WAT      O23031   3.615   4.784   2.661  0.2149 -0.5727  0.1834
 5578WAT     H123032   3.637   4.794   2.745  0.2426 -0.6134  0.1814
 5578WAT     H223033   3.543   4.734   2.665 -0.7104  0.7102  0.2611
 5578WAT    EPW23034   3.607   4.778   2.674  0.0823 -0.3892  0.1946
 5579WAT      O23035   0.268   2.554   2.225  0.0059 -0.0493  0.4067
 5579WAT     H123036   0.333   2.496   2.221  0.2602  0.0701  2.1325
 5579WAT     H223037   0.296   2.619   2.173  0.0916 -1.0683 -0.8763
 5579WAT    EPW23038   0.282   2.555   2.217  0.0561 -0.1822  0.4721
 5580WAT      O23039   6.187   3.383   2.162  0.0271  0.0201 -0.0677
 5580WAT     H123040   6.202   3.315   2.214 -1.6471  1.2771  2.2675
 5580WAT     H223041   6.118   3.359   2.115 -0.4938  0.0271  0.6731
 5580WAT    EPW23042   6.179   3.370   2.163 -0.2972  0.2068  0.3867
 5581WAT      O23043   0.832   2.017   4.778  0.3116 -0.1915 -0.1962
 5581WAT     H123044   0.869   1.988   4.851  0.0651 -1.8055 -0.6653
 5581WAT     H223045   0.836   1.948   4.724 -2.5788 -0.2132 -0.5572
 5581WAT    EPW23046   0.838   2.003   4.781 -0.1518 -0.4331 -0.3188
 5582WAT      O23047   1.876   0.734   3.924 -0.6630 -0.6978  0.2575
 5582WAT     H123048   1.885   0.648   3.931  0.6951 -0.6681 -0.8312
 5582WAT     H223049   1.930   0.756   3.860  0.2907  1.1929  1.6095
 5582WAT    EPW23050   1.885   0.725   3.915 -0.3215 -0.4141  0.2964
 5583WAT      O23051   3.856   0.344   3.272 -0.0872  0.2229  0.2923
 5583WAT     H123052   3.871   0.305   3.349 -0.2772 -0.0636  0.1864
 5583WAT     H223053   3.799   0.407   3.291  0.4429  0.6493  0.5161
 5583WAT    EPW23054   3.850   0.348   3.286 -0.0370  0.2436  0.3097
 5584WAT      O23055   6.613   6.553   0.910 -0.0484 -0.7657 -0.1360
 5584WAT     H123056   6.609   6.624   0.860  0.1556 -0.2421  0.5666
 5584WAT     H223057   6.695   6.554   0.940 -0.6189 -0.0802  1.5577
 5584WAT    EPW23058   6.624   6.564   0.907 -0.1025 -0.5871  0.2180
 5585WAT      O23059   1.640   0.032   2.237  0.1855  0.1217  0.5851
 5585WAT     H123060   1.671  -0.047   2.258  0.8829  0.1945 -0.1171
 5585WAT     H223061   1.658   0.039   2.152 -0.6680  0.6823  0.4380
 5585WAT    EPW23062   1.647   0.021   2.227  0.1625  0.2152  0.4596
 5586WAT      O23063   7.041   0.100   5.136  0.6667  0.4459  0.1290
 5586WAT     H123064   7.084   0.152   5.081 -0.2959  1.0786 -0.0511
 5586WAT     H223065   7.103   0.046   5.166  0.9161 -1.4489 -3.2156
 5586WAT    EPW23066   7.057   0.100   5.132  0.5613  0.2595 -0.3917
 5587WAT      O23067   4.465   6.316   2.141  0.2148  0.4553  0.4752
 5587WAT     H123068   4.465   6.306   2.227  1.6236 -0.4504  0.4043
 5587WAT     H223069   4.397   6.368   2.126  0.5932  1.5198  2.2253
 5587WAT    EPW23070   4.455   6.322   2.151  0.4788  0.4787  0.7232
 5588WAT      O23071   6.508   3.234   2.313  0.2831 -0.0906  0.4341
 5588WAT     H123072   6.518   3.192   2.389  0.7562  0.6360  0.7783
 5588WAT     H223073   6.586   3.271   2.300  0.6307 -1.2366 -1.0344
 5588WAT    EPW23074   6.521   3.233   2.322  0.4043 -0.1526  0.2680
 5589WAT      O23075   6.469   2.949   7.232 -0.8018  0.2703 -0.2110
 5589WAT     H123076   6.452   2.864   7.241  0.8801  0.0296  1.3653
 5589WAT     H223077   6.408   2.988   7.281 -0.4059 -0.1628  0.6328
 5589WAT    EPW23078   6.457   2.943   7.240 -0.4949  0.1708  0.1465
 5590WAT      O23079   1.955   4.855   3.157 -0.6673  0.7942 -0.0681
 5590WAT     H123080   1.967   4.783   3.110 -0.9978  1.2652 -0.8947
 5590WAT     H223081   2.030   4.899   3.146 -0.1763  0.2599  1.0290
 5590WAT    EPW23082   1.968   4.851   3.148 -0.6436  0.7849 -0.0281
 5591WAT      O23083   1.757   6.554   7.207 -0.5334 -0.2431  0.2634
 5591WAT     H123084   1.797   6.596   7.271 -0.0059  0.9805 -0.8294
 5591WAT     H223085   1.806   6.483   7.194 -0.1067 -0.0041  0.5702
 5591WAT    EPW23086   1.770   6.550   7.214 -0.3925 -0.0270  0.1473
 5592WAT      O23087   3.067   6.231   1.020 -0.5751 -0.1813 -0.2894
 5592WAT     H123088   3.127   6.229   1.084  2.3227 -0.5002 -2.7739
 5592WAT     H223089   3.010   6.170   1.043  0.5277 -0.5240  1.7850
 5592WAT    EPW23090   3.068   6.222   1.033  0.0159 -0.2790 -0.3500
 5593WAT      O23091   2.920   5.091   0.006 -0.5368 -0.0792  0.1466
 5593WAT     H123092   2.901   5.025  -0.048 -3.1049  0.4404  0.3225
 5593WAT     H223093   2.907   5.057   0.085  1.6693 -0.3535  0.4686
 5593WAT    EPW23094   2.915   5.076   0.009 -0.5903 -0.0430  0.2202
 5594WAT      O23095   2.843   2.607   5.165 -0.3732 -0.2960 -0.0790
 5594WAT     H123096   2.758   2.622   5.171 -0.5368 -1.3994  1.1317
 5594WAT     H223097   2.866   2.588   5.248  0.8029 -1.1225 -0.5576
 5594WAT    EPW23098   2.834   2.606   5.178 -0.2237 -0.5811  0.0292
 5595WAT      O23099   5.239   3.310   2.716  0.4008 -0.7961 -0.1361
 5595WAT     H123100   5.214   3.367   2.777  1.9800 -0.0538 -0.1182
 5595WAT     H223101   5.244   3.234   2.759 -1.3150 -0.8881 -0.0574
 5595WAT    EPW23102   5.236   3.307   2.732  0.3806 -0.7000 -0.1218
 5596WAT      O23103   0.279   7.115   0.178  0.5179 -0.2240 -0.6625
 5596WAT     H123104   0.280   7.202   0.166  1.7225  0.1515  1.7398
 5596WAT     H223105   0.318   7.085   0.106 -0.5991  1.1045 -1.9178
 5596WAT    EPW23106   0.285   7.124   0.165  0.5309  0.0277 -0.4930
 5597WAT      O23107   1.928   4.990   5.873 -0.0567  0.5666  0.0784
 5597WAT     H123108   1.880   5.025   5.809  1.4083  1.4491 -0.5799
 5597WAT     H223109   1.922   5.048   5.938 -1.2814 -0.1769  0.6734
 5597WAT    EPW23110   1.920   5.004   5.873 -0.0212  0.5871  0.0691
 5598WAT      O23111   2.798   1.027   0.399 -1.0195  0.1142  0.1722
 5598WAT     H123112   2.791   0.947   0.431 -4.6179 -0.1126 -0.8441
 5598WAT     H223113   2.775   1.019   0.315 -0.8289  2.1012 -0.1361
 5598WAT    EPW23114   2.794   1.014   0.391 -1.5229  0.3743 -0.0235
 5599WAT      O23115   2.918   5.035   1.857  0.1568  0.1174  0.3634
 5599WAT     H123116   2.915   5.117   1.886  0.2479 -0.1880  1.2603
 5599WAT     H223117   3.002   5.016   1.860  0.0841 -0.1683  0.6294
 5599WAT    EPW23118   2.930   5.044   1.862  0.1595  0.0301  0.5352
 5600WAT      O23119   5.162   1.265   5.327 -0.3526  0.3500 -0.5296
 5600WAT     H123120   5.189   1.192   5.287  0.2550  0.2980 -0.0547
 5600WAT     H223121   5.144   1.320   5.262  0.8745  0.3602 -0.8795
 5600WAT    EPW23122   5.164   1.262   5.312 -0.0816  0.3438 -0.5111
 5601WAT      O23123   0.338   0.977   2.291  0.1029  0.4298 -1.1105
 5601WAT     H123124   0.268   0.955   2.340  0.5676  1.6115  0.1540
 5601WAT     H223125   0.366   1.051   2.328  0.9800  0.9318 -2.7059
 5601WAT    EPW23126   0.332   0.985   2.304  0.3011  0.6785 -1.1594
 5602WAT      O23127   6.863   2.958   2.943  0.1445 -0.2894 -0.4654
 5602WAT     H123128   6.858   3.034   2.899  1.8587 -0.8694 -1.7790
 5602WAT     H223129   6.792   2.959   2.993 -0.1025  2.0019 -0.7424
 5602WAT    EPW23130   6.852   2.970   2.944  0.3613 -0.0366 -0.7004
 5603WAT      O23131   0.399   5.754   4.572  0.0346 -0.2251 -0.5399
 5603WAT     H123132   0.445   5.827   4.566  1.4576 -1.0323  0.1306
 5603WAT     H223133   0.411   5.715   4.495  0.0020 -0.1761 -0.5698
 5603WAT    EPW23134   0.407   5.759   4.560  0.2400 -0.3371 -0.4453
 5604WAT      O23135   5.965   0.380   1.718  0.4193  0.0539  0.3105
 5604WAT     H123136   5.956   0.296   1.737  0.0473  0.3407  1.4850
 5604WAT     H223137   5.923   0.421   1.783 -0.4934  1.1194 -0.8742
 5604WAT    EPW23138   5.957   0.374   1.731  0.2295  0.2536  0.3090
 5605WAT      O23139   3.111   3.661   4.640  0.0400 -0.2425 -0.9174
 5605WAT     H123140   3.190   3.698   4.646 -0.1202  0.4317  6.0097
 5605WAT     H223141   3.129   3.576   4.633  1.4217 -0.0168 -0.4982
 5605WAT    EPW23142   3.125   3.654   4.640  0.2204 -0.1096  0.1678
 5606WAT      O23143   4.793   1.909   1.228  0.6451  0.4180 -0.0477
 5606WAT     H123144   4.779   1.915   1.314 -1.4794 -0.8137 -0.2507
 5606WAT     H223145   4.825   1.828   1.218  0.6479  0.4672 -0.4581
 5606WAT    EPW23146   4.796   1.898   1.239  0.3317  0.2434 -0.1383
 5607WAT      O23147   6.608   7.162   5.131 -0.1078  0.0634 -0.4438
 5607WAT     H123148   6.556   7.132   5.194  1.6425 -0.5962  0.7727
 5607WAT     H223149   6.629   7.091   5.086  2.9195 -0.5526  1.5959
 5607WAT    EPW23150   6.604   7.147   5.134  0.5980 -0.1251  0.0373
 5608WAT      O23151   5.200   2.661   4.449 -0.9919  0.0337 -0.1386
 5608WAT     H123152   5.271   2.693   4.409  0.2683 -1.1641  1.0276
 5608WAT     H223153   5.150   2.732   4.461  0.9253  1.3220  0.8424
 5608WAT    EPW23154   5.203   2.676   4.445 -0.5225  0.0471  0.1786
 5609WAT      O23155   2.942   4.464   2.101 -0.1393  0.5602  0.4418
 5609WAT     H123156   3.027   4.456   2.118 -0.3156 -0.1615  1.0791
 5609WAT     H223157   2.912   4.510   2.169 -0.2062  1.0795  0.0603
 5609WAT    EPW23158   2.950   4.469   2.114 -0.1752  0.5303  0.4795
 5610WAT      O23159   3.781   2.669   2.528 -0.1377 -0.0534 -0.4186
 5610WAT     H123160   3.704   2.662   2.568  0.4859 -0.6606  0.7602
 5610WAT     H223161   3.781   2.750   2.496 -0.9632  0.2089  0.2134
 5610WAT    EPW23162   3.770   2.680   2.529 -0.1675 -0.1043 -0.1511
 5611WAT      O23163   4.045   3.992   4.391  0.0807 -0.1833  0.1811
 5611WAT     H123164   4.023   4.004   4.474 -0.5144  0.2458 -0.0323
 5611WAT     H223165   4.131   4.010   4.390 -0.5404  3.7513  0.0403
 5611WAT    EPW23166   4.055   3.996   4.403 -0.0990  0.4613  0.1288
 5612WAT      O23167   6.770   2.580   5.121  0.2531  0.4410 -0.7105
 5612WAT     H123168   6.724   2.511   5.149  1.3727  0.0982  0.3656
 5612WAT     H223169   6.725   2.648   5.151  0.2142  0.1232 -0.0327
 5612WAT    EPW23170   6.757   2.580   5.129  0.4128  0.3434 -0.4514
 5613WAT      O23171   7.284   0.253   2.451 -0.6088  0.8495  0.1385
 5613WAT     H123172   7.233   0.306   2.404 -0.9355 -0.0713 -0.5593
 5613WAT     H223173   7.283   0.289   2.531 -3.0416  0.4025  0.3606
 5613WAT    EPW23174   7.277   0.266   2.456 -1.0165  0.6474  0.0682
 5614WAT      O23175   4.155   5.502   2.861 -0.6056 -0.1662  0.2628
 5614WAT     H123176   4.169   5.469   2.782  0.1717 -0.7145  0.6186
 5614WAT     H223177   4.179   5.438   2.915  2.7041  1.4830  1.0295
 5614WAT    EPW23178   4.161   5.488   2.857 -0.0019 -0.0036  0.4286
 5615WAT      O23179   3.402   5.212   3.647 -0.1460 -0.2576 -0.4652
 5615WAT     H123180   3.403   5.294   3.616  0.6517 -0.3570 -0.7315
 5615WAT     H223181   3.450   5.218   3.720  0.0091 -0.5125 -0.5478
 5615WAT    EPW23182   3.409   5.225   3.653 -0.0052 -0.3100 -0.5167
 5616WAT      O23183   1.261   1.819   4.731 -0.3075 -0.1774 -0.4248
 5616WAT     H123184   1.316   1.798   4.666 -0.2718 -0.1861 -0.3914
 5616WAT     H223185   1.209   1.878   4.694  0.8642  1.2168  0.0715
 5616WAT    EPW23186   1.262   1.824   4.716 -0.1292  0.0273 -0.3466
 5617WAT      O23187   3.327   4.683   3.065 -0.4707  0.6680 -0.3597
 5617WAT     H123188   3.393   4.626   3.062 -0.9879 -0.1128  1.7487
 5617WAT     H223189   3.256   4.632   3.072 -0.9994  1.5469  0.9033
 5617WAT    EPW23190   3.326   4.667   3.065 -0.6252  0.6825  0.1383
 5618WAT      O23191   1.959   4.270   1.461  0.1688 -0.8327 -0.7156
 5618WAT     H123192   1.983   4.207   1.517 -0.6839 -0.8638 -0.3801
 5618WAT     H223193   1.971   4.343   1.507 -0.5786 -0.8611 -0.4699
 5618WAT    EPW23194   1.965   4.272   1.476 -0.0676 -0.8415 -0.6297
 5619WAT      O23195   2.071   5.678   5.224  0.8307 -0.2934  0.2148
 5619WAT     H123196   2.009   5.637   5.178  0.2545 -0.9362  1.4869
 5619WAT     H223197   2.132   5.616   5.235  0.1994 -0.7238  1.6879
 5619WAT    EPW23198   2.071   5.663   5.219  0.6523 -0.4519  0.6203
 5620WAT      O23199   3.762   1.873   4.067 -0.4410 -0.4168 -0.3769
 5620WAT     H123200   3.739   1.849   4.147  2.8549 -2.0945  0.2616
 5620WAT     H223201   3.747   1.802   4.018 -2.5204  0.6208 -1.3734
 5620WAT    EPW23202   3.756   1.859   4.071 -0.2613 -0.5114 -0.4298
 5621WAT      O23203   0.360   2.996   1.476  0.2172  0.6322 -0.1058
 5621WAT     H123204   0.339   2.971   1.394 -0.8431  3.7444 -0.9359
 5621WAT     H223205   0.299   3.055   1.495  0.8110  0.4564  2.7584
 5621WAT    EPW23206   0.348   3.001   1.466  0.1483  1.0660  0.1947
 5622WAT      O23207   3.183   5.986   2.815 -0.4271 -0.4781  0.3492
 5622WAT     H123208   3.240   5.939   2.770  0.6142  1.6830 -0.7689
 5622WAT     H223209   3.205   5.970   2.899  0.7883 -0.9013 -0.0255
 5622WAT    EPW23210   3.195   5.977   2.821 -0.0937 -0.2214  0.1287
 5623WAT      O23211   4.421   3.684   4.104  0.0359  0.0692  0.2227
 5623WAT     H123212   4.403   3.704   4.187 -2.0560 -0.7206  0.0185
 5623WAT     H223213   4.495   3.727   4.088  0.1257  0.7800  2.2887
 5623WAT    EPW23214   4.429   3.694   4.114 -0.2599  0.0575  0.4978
 5624WAT      O23215   3.888   7.227   5.627  0.8511 -0.4332  0.0816
 5624WAT     H123216   3.964   7.265   5.648  1.0905 -1.4204  1.0781
 5624WAT     H223217   3.903   7.195   5.547  2.2331 -2.4547  1.0893
 5624WAT    EPW23218   3.901   7.228   5.618  1.0906 -0.8776  0.3777
 5625WAT      O23219   1.490   5.226   0.229  0.1979  1.0235 -0.0921
 5625WAT     H123220   1.487   5.215   0.142  0.4706 -0.4446  0.0614
 5625WAT     H223221   1.575   5.218   0.247 -0.1602 -2.2979  0.6789
 5625WAT    EPW23222   1.502   5.223   0.219  0.1853  0.3160  0.0445
 5626WAT      O23223   5.608   5.137   2.590 -0.5769  0.0801 -0.2469
 5626WAT     H123224   5.554   5.147   2.657  0.0367  0.5071  0.1945
 5626WAT     H223225   5.601   5.052   2.571  0.1459 -0.3168  1.1558
 5626WAT    EPW23226   5.599   5.126   2.597 -0.3795  0.0845  0.0255
 5627WAT      O23227   3.217   5.037   6.799  0.4877  0.4274  0.0736
 5627WAT     H123228   3.293   5.034   6.841 -0.4022 -0.4976  1.6821
 5627WAT     H223229   3.228   5.103   6.742  2.0290  1.1625  1.1557
 5627WAT    EPW23230   3.230   5.047   6.796  0.5840  0.3993  0.4710
 5628WAT      O23231   6.670   1.687   1.210  0.2828 -0.0298  0.2514
 5628WAT     H123232   6.694   1.618   1.258 -1.7353 -0.4293  0.7890
 5628WAT     H223233   6.696   1.666   1.129 -1.0298 -1.8571  0.2410
 5628WAT    EPW23234   6.677   1.674   1.205 -0.2092 -0.3588  0.3293
 5629WAT      O23235   5.619   6.580   4.713 -0.0344  0.1034  0.7301
 5629WAT     H123236   5.675   6.536   4.763 -0.1427 -0.3356  0.4736
 5629WAT     H223237   5.568   6.621   4.770 -0.1677 -0.4043  0.9826
 5629WAT    EPW23238   5.620   6.579   4.729 -0.0701 -0.0365  0.7295
 5630WAT      O23239   4.691   5.968   2.033  0.2993  0.5004  0.0991
 5630WAT     H123240   4.612   5.974   1.998  0.4796  0.0032 -0.3929
 5630WAT     H223241   4.676   5.973   2.119 -0.2894  0.0948  0.0193
 5630WAT    EPW23242   4.677   5.970   2.041  0.2389  0.3670  0.0147
 5631WAT      O23243   4.730   0.941   7.335  0.1003 -0.5929 -0.3405
 5631WAT     H123244   4.666   0.941   7.394 -1.0774 -2.7227 -1.4888
 5631WAT     H223245   4.756   0.857   7.333  1.3017 -0.2329 -1.5713
 5631WAT    EPW23246   4.724   0.928   7.343  0.1038 -0.8543 -0.6919
 5632WAT      O23247   0.875   1.139   2.043  0.1449 -0.3237  0.0143
 5632WAT     H123248   0.913   1.208   2.005  1.6369 -1.0405  0.1474
 5632WAT     H223249   0.825   1.175   2.105 -0.8699  0.7472 -1.3735
 5632WAT    EPW23250   0.873   1.155   2.047  0.2154 -0.2714 -0.1711
 5633WAT      O23251   1.665   4.152   5.795 -0.6811  0.0512 -0.6200
 5633WAT     H123252   1.591   4.192   5.773 -1.1399 -0.0138  0.7461
 5633WAT     H223253   1.639   4.078   5.833  0.1254 -0.6149 -1.2961
 5633WAT    EPW23254   1.650   4.147   5.797 -0.6297 -0.0568 -0.5181
 5634WAT      O23255   1.758   1.329   2.402 -0.0196 -0.3661 -0.1378
 5634WAT     H123256   1.686   1.328   2.452 -0.3198  1.4575 -0.4750
 5634WAT     H223257   1.822   1.345   2.459 -0.4826  2.8692 -0.3220
 5634WAT    EPW23258   1.757   1.331   2.418 -0.1323  0.3812 -0.2148
 5635WAT      O23259   3.680   6.625   1.196  0.6561  0.3488 -0.7865
 5635WAT     H123260   3.719   6.669   1.261  0.4626  0.3104 -0.6416
 5635WAT     H223261   3.738   6.562   1.177 -0.1198 -0.9119  0.7454
 5635WAT    EPW23262   3.695   6.622   1.203  0.5129  0.1569 -0.5388
 5636WAT      O23263   0.129   5.801   4.365 -0.1342  0.8647 -0.1512
 5636WAT     H123264   0.207   5.766   4.347 -1.0844 -0.9991 -1.0075
 5636WAT     H223265   0.098   5.749   4.429 -1.4020  0.3613 -1.1190
 5636WAT    EPW23266   0.136   5.788   4.372 -0.4618  0.5151 -0.4207
 5637WAT      O23267   4.568   5.669   2.541 -0.5159 -0.1870 -0.1928
 5637WAT     H123268   4.649   5.643   2.561 -0.3982  0.3142  0.0068
 5637WAT     H223269   4.565   5.661   2.454  0.4021  1.5533 -0.4283
 5637WAT    EPW23270   4.579   5.664   2.531 -0.3629  0.1441 -0.1981
 5638WAT      O23271   2.651   5.585   0.649  0.3945 -0.0694 -0.0677
 5638WAT     H123272   2.629   5.577   0.565 -2.0587 -0.5884  0.5338
 5638WAT     H223273   2.705   5.654   0.649  1.5408 -0.8719 -2.1980
 5638WAT    EPW23274   2.656   5.594   0.637  0.2015 -0.2646 -0.2936
 5639WAT      O23275   4.024   4.297   1.872 -0.5412  0.4592  0.2989
 5639WAT     H123276   3.985   4.256   1.805 -1.0409 -0.1214  0.9317
 5639WAT     H223277   3.976   4.369   1.883  0.2242  1.1538 -0.6914
 5639WAT    EPW23278   4.012   4.302   1.863 -0.5020  0.4760  0.2461
 5640WAT      O23279   0.071   2.810   4.414  0.2434 -0.5899 -0.0694
 5640WAT     H123280   0.070   2.887   4.373  0.3916 -0.6178 -0.1244
 5640WAT     H223281   0.077   2.752   4.349  2.7276 -0.5632  0.0751
 5640WAT    EPW23282   0.071   2.813   4.399  0.6322 -0.5901 -0.0562
 5641WAT      O23283   5.360   2.219   3.374  0.1153 -0.3480 -0.2490
 5641WAT     H123284   5.326   2.280   3.426  1.0367  0.5300 -0.6397
 5641WAT     H223285   5.398   2.163   3.429 -0.0622 -0.1461  0.0765
 5641WAT    EPW23286   5.360   2.220   3.390  0.2252 -0.1885 -0.2587
 5642WAT      O23287   0.196   2.181   0.407 -0.3886 -0.0443  0.2085
 5642WAT     H123288   0.172   2.258   0.441 -3.2736 -0.6644 -0.1462
 5642WAT     H223289   0.198   2.196   0.321  0.2331 -0.1038  0.2069
 5642WAT    EPW23290   0.193   2.194   0.399 -0.7229 -0.1447  0.1558
 5643WAT      O23291   1.846   0.578   1.893  0.3339 -0.5571 -0.3305
 5643WAT     H123292   1.844   0.545   1.974  0.3611  1.0019  0.3359
 5643WAT     H223293   1.873   0.660   1.905 -2.1707  0.5533 -1.6083
 5643WAT    EPW23294   1.850   0.585   1.907 -0.0321 -0.1628 -0.4208
 5644WAT      O23295   5.885   0.187   2.013 -0.3447 -0.4462  0.1670
 5644WAT     H123296   5.871   0.268   2.041  1.3914 -0.2016  0.4234
 5644WAT     H223297   5.870   0.138   2.084  0.4489 -0.1604  0.5427
 5644WAT    EPW23298   5.881   0.192   2.028  0.0290 -0.3679  0.2604
 5645WAT      O23299   2.441   0.629   3.627  0.4788 -0.2738 -0.0276
 5645WAT     H123300   2.437   0.702   3.674 -2.3274  0.0301 -0.5756
 5645WAT     H223301   2.389   0.645   3.559  0.6626 -2.4024 -0.7429
 5645WAT    EPW23302   2.433   0.642   3.624  0.0914 -0.5434 -0.2142
 5646WAT      O23303   5.716   2.768   6.544 -0.2481  0.0877  0.0288
 5646WAT     H123304   5.801   2.771   6.525 -0.2538  0.6911  0.0740
 5646WAT     H223305   5.715   2.753   6.630 -0.2063 -0.9974 -0.1427
 5646WAT    EPW23306   5.729   2.766   6.554 -0.2428  0.0165  0.0102
 5647WAT      O23307   3.227   4.907   4.565 -0.4127 -0.1065  0.1169
 5647WAT     H123308   3.311   4.885   4.556 -0.5019 -1.7830  2.3439
 5647WAT     H223309   3.186   4.846   4.518 -0.4189  0.6877 -0.9367
 5647WAT    EPW23310   3.234   4.895   4.557 -0.4268 -0.2368  0.2902
 5648WAT      O23311   7.154   6.910   4.753 -0.5979  0.2363 -0.3138
 5648WAT     H123312   7.122   6.987   4.725 -0.0412  0.4292 -0.4273
 5648WAT     H223313   7.150   6.860   4.682  1.7434  1.0131 -1.0733
 5648WAT    EPW23314   7.148   6.914   4.738 -0.1698  0.3796 -0.4428
 5649WAT      O23315   5.242   6.633   3.427  0.0955  0.4751  0.3176
 5649WAT     H123316   5.161   6.604   3.414  0.8121 -1.0575 -1.0315
 5649WAT     H223317   5.247   6.642   3.514 -1.1020 -0.6452  0.5268
 5649WAT    EPW23318   5.231   6.630   3.438  0.0245  0.0832  0.1492
 5650WAT      O23319   1.719   6.569   6.829 -0.2467  0.0041 -0.4511
 5650WAT     H123320   1.780   6.545   6.771 -0.4994  1.4912 -1.3663
 5650WAT     H223321   1.645   6.571   6.782 -1.0732 -1.7930  0.6435
 5650WAT    EPW23322   1.717   6.566   6.814 -0.4061 -0.0417 -0.4246
 5651WAT      O23323   4.285   3.670   5.232 -0.1968 -0.4880 -0.9366
 5651WAT     H123324   4.298   3.718   5.160 -0.1293  1.4551  0.2942
 5651WAT     H223325   4.208   3.631   5.217 -0.9705  1.1376 -1.4546
 5651WAT    EPW23326   4.276   3.671   5.219 -0.3011  0.0392 -0.8313
 5652WAT      O23327   1.015   4.629   4.418  0.8139  0.0939 -0.1714
 5652WAT     H123328   1.010   4.570   4.482 -2.0047  1.1430  0.7517
 5652WAT     H223329   0.946   4.610   4.367  0.8341  1.5330 -0.7834
 5652WAT    EPW23330   1.004   4.618   4.420  0.4005  0.4615 -0.1254
 5653WAT      O23331   5.975   1.146   5.947 -0.0372  0.4244  0.0428
 5653WAT     H123332   5.964   1.141   6.033 -0.3530 -0.2698 -0.0340
 5653WAT     H223333   5.904   1.108   5.914  1.3888 -2.0424 -0.4722
 5653WAT    EPW23334   5.963   1.139   5.955  0.1268 -0.0425 -0.0446
 5654WAT      O23335   2.869   0.266   2.535 -0.1617  0.0814  0.2031
 5654WAT     H123336   2.871   0.193   2.488 -0.1511 -0.5746  1.2026
 5654WAT     H223337   2.854   0.328   2.475 -0.3115 -0.7425 -0.6398
 5654WAT    EPW23338   2.867   0.265   2.519 -0.1823 -0.1372  0.2262
 5655WAT      O23339   3.662   1.780   0.282  0.0699 -0.1885 -0.1685
 5655WAT     H123340   3.683   1.826   0.211 -0.7876 -1.4070 -1.2513
 5655WAT     H223341   3.731   1.729   0.295  0.7817  0.9378  0.6967
 5655WAT    EPW23342   3.675   1.780   0.273  0.0484 -0.2021 -0.2006
 5656WAT      O23343   3.336   6.933   1.594 -0.3168 -0.2734  0.3137
 5656WAT     H123344   3.310   6.911   1.514  1.6364 -2.6990  0.2048
 5656WAT     H223345   3.400   6.990   1.580  0.0034 -0.6739  0.0939
 5656WAT    EPW23346   3.341   6.938   1.580  0.0191 -0.6909  0.2652
 5657WAT      O23347   2.620   3.773   6.613  0.1655 -0.3393  0.2074
 5657WAT     H123348   2.534   3.780   6.628  0.2038  0.4092  0.0976
 5657WAT     H223349   2.655   3.771   6.692  0.1488  0.7459  0.2487
 5657WAT    EPW23350   2.612   3.774   6.627  0.1687 -0.0684  0.1973
 5658WAT      O23351   0.861   5.145   2.876  0.3266  0.2500  0.3115
 5658WAT     H123352   0.914   5.204   2.841  0.8703 -0.1830  0.3980
 5658WAT     H223353   0.862   5.079   2.819 -0.7615  0.5643 -0.0899
 5658WAT    EPW23354   0.869   5.144   2.863  0.2462  0.2325  0.2650
 5659WAT      O23355   4.226   2.875   5.005 -0.0061  0.2375 -0.0180
 5659WAT     H123356   4.298   2.825   5.001 -0.2877 -0.2362  0.5918
 5659WAT     H223357   4.180   2.851   4.935 -0.0394 -0.2110  0.1543
 5659WAT    EPW23358   4.230   2.864   4.994 -0.0526  0.1012  0.0976
 5660WAT      O23359   3.537   2.404   2.348 -0.2131 -0.0646 -0.0702
 5660WAT     H123360   3.578   2.442   2.281 -1.7309 -0.2174 -1.1092
 5660WAT     H223361   3.496   2.470   2.387 -1.5377 -0.3554 -0.9242
 5660WAT    EPW23362   3.537   2.419   2.344 -0.6330 -0.1302 -0.3498
 5661WAT      O23363   5.045   3.511   3.527 -0.4473 -0.2625 -0.1181
 5661WAT     H123364   5.129   3.536   3.533 -0.2005 -1.0705 -0.0840
 5661WAT     H223365   5.003   3.584   3.505  0.8127 -0.5283 -4.4278
 5661WAT    EPW23366   5.051   3.525   3.525 -0.2247 -0.4211 -0.7497
 5662WAT      O23367   4.382   1.938   4.853  0.2670  0.3450 -0.3768
 5662WAT     H123368   4.426   1.897   4.789  1.5784 -0.0547  0.7461
 5662WAT     H223369   4.299   1.934   4.826  0.4878 -1.9971 -0.9136
 5662WAT    EPW23370   4.376   1.931   4.839  0.4933 -0.0600 -0.2902
 5663WAT      O23371   1.886   2.696   1.416  0.2812 -0.3756 -0.3917
 5663WAT     H123372   1.801   2.680   1.412 -0.1331  1.4477  0.0678
 5663WAT     H223373   1.909   2.670   1.496 -0.4944  1.6159  0.5559
 5663WAT    EPW23374   1.877   2.690   1.427  0.1055  0.1879 -0.1839
 5664WAT      O23375   4.175   1.119   6.976  0.3430  0.4806 -0.2799
 5664WAT     H123376   4.247   1.136   6.929  0.4949 -1.2693 -0.7611
 5664WAT     H223377   4.134   1.058   6.928 -1.4096  1.3497  0.0563
 5664WAT    EPW23378   4.180   1.112   6.962  0.1065  0.3505 -0.3013
 5665WAT      O23379   1.434   0.543   5.406 -0.3047  0.2910 -0.1251
 5665WAT     H123380   1.414   0.500   5.332 -0.1401  1.4529 -0.8772
 5665WAT     H223381   1.481   0.486   5.451  1.5187  0.2612 -1.9177
 5665WAT    EPW23382   1.438   0.528   5.401 -0.0110  0.4582 -0.5010
 5666WAT      O23383   6.072   5.563   5.146  0.0887 -0.1059 -0.1157
 5666WAT     H123384   6.139   5.577   5.200 -1.5583 -1.2637  2.4049
 5666WAT     H223385   6.044   5.644   5.127  0.4577  0.3226  1.0866
 5666WAT    EPW23386   6.078   5.577   5.151 -0.1001 -0.2136  0.4343
 5667WAT      O23387   3.828   3.577   3.201 -0.4984 -0.0071 -0.2072
 5667WAT     H123388   3.787   3.630   3.145 -2.4424 -1.8177 -0.6162
 5667WAT     H223389   3.770   3.514   3.216  1.9844 -2.5456 -0.4648
 5667WAT    EPW23390   3.814   3.576   3.195 -0.4188 -0.6496 -0.3056
 5668WAT      O23391   4.586   3.706   3.235  0.5089 -0.8238  0.1440
 5668WAT     H123392   4.534   3.639   3.215  1.9044 -1.6021 -1.0644
 5668WAT     H223393   4.590   3.752   3.161 -2.8131  2.4436  1.6687
 5668WAT    EPW23394   4.579   3.703   3.221  0.2243 -0.4561  0.1907
 5669WAT      O23395   6.856   1.890   4.809 -0.1823  0.2170  0.2871
 5669WAT     H123396   6.778   1.872   4.775 -0.5681  1.4024  0.4885
 5669WAT     H223397   6.895   1.937   4.747 -0.2702  1.0103  0.8183
 5669WAT    EPW23398   6.850   1.894   4.795 -0.2523  0.5093  0.3953
 5670WAT      O23399   6.292   6.681   0.920  0.2064  0.3197 -0.3570
 5670WAT     H123400   6.238   6.727   0.870 -0.4823  0.6030  0.6153
 5670WAT     H223401   6.356   6.738   0.939  0.1937  0.3746 -0.4773
 5670WAT    EPW23402   6.294   6.696   0.916  0.1028  0.3696 -0.2311
 5671WAT      O23403   4.595   3.546   2.916 -0.2286  0.4075 -0.2214
 5671WAT     H123404   4.525   3.538   2.864 -1.5554  0.9852  1.3929
 5671WAT     H223405   4.610   3.631   2.917  1.9937  0.1491 -2.3289
 5671WAT    EPW23406   4.587   3.557   2.909 -0.0963  0.4546 -0.2943
 5672WAT      O23407   0.378   6.261   6.866  0.4952  0.4055  0.2665
 5672WAT     H123408   0.442   6.209   6.895  1.8663 -0.8282 -4.1816
 5672WAT     H223409   0.315   6.205   6.843  0.1152  1.0914 -0.4025
 5672WAT    EPW23410   0.378   6.245   6.867  0.6416  0.3246 -0.4894
 5673WAT      O23411   2.320   3.724   0.854  0.3578 -0.5670 -0.1107
 5673WAT     H123412   2.392   3.696   0.813 -0.2212 -0.8037 -0.9895
 5673WAT     H223413   2.269   3.653   0.856  0.0013 -0.3063  0.1851
 5673WAT    EPW23414   2.323   3.709   0.848  0.2196 -0.5634 -0.1968
 5674WAT      O23415   1.495   4.863   3.246  0.1664 -0.3605  0.0606
 5674WAT     H123416   1.454   4.939   3.257 -2.2740 -0.9540 -3.4587
 5674WAT     H223417   1.455   4.810   3.304 -0.4475  0.2818  0.2347
 5674WAT    EPW23418   1.483   4.866   3.256 -0.2848 -0.3533 -0.4335
 5675WAT      O23419   3.644   1.008   7.300 -0.5532 -0.4140  0.1598
 5675WAT     H123420   3.682   1.082   7.274 -1.4075  0.7248  1.9384
 5675WAT     H223421   3.711   0.958   7.324 -0.0216  1.1591  2.2700
 5675WAT    EPW23422   3.659   1.011   7.300 -0.6009 -0.0134  0.7342
 5676WAT      O23423   2.942   0.542   4.208 -0.4084 -0.6577  0.6022
 5676WAT     H123424   2.905   0.467   4.232 -1.2667 -1.0736 -1.7088
 5676WAT     H223425   3.022   0.538   4.243 -0.4657 -2.6086  0.6415
 5676WAT    EPW23426   2.948   0.530   4.216 -0.5436 -1.0073  0.2666
 5677WAT      O23427   2.160   4.204   2.034 -0.1795 -0.7049  0.4694
 5677WAT     H123428   2.075   4.190   2.050 -0.2328 -0.3410  0.4944
 5677WAT     H223429   2.181   4.269   2.088  0.0636 -0.6454  0.3036
 5677WAT    EPW23430   2.151   4.211   2.044 -0.1515 -0.6423  0.4486
 5678WAT      O23431   4.435   2.691   0.275 -0.1161  0.6653 -0.4988
 5678WAT     H123432   4.407   2.678   0.193  1.7263 -2.0903 -0.8052
 5678WAT     H223433   4.467   2.772   0.273  0.2865  0.5155 -2.6449
 5678WAT    EPW23434   4.435   2.701   0.262  0.2155  0.2361 -0.8611
 5679WAT      O23435   4.453   6.920   0.790 -0.2519  0.1619 -0.6839
 5679WAT     H123436   4.411   6.988   0.755 -0.0886  0.0567 -1.0917
 5679WAT     H223437   4.411   6.851   0.759  0.5719  0.0400 -1.5707
 5679WAT    EPW23438   4.441   6.920   0.780 -0.1061  0.1283 -0.8751
 5680WAT      O23439   5.448   7.134   4.069  0.3976 -0.4595  0.0075
 5680WAT     H123440   5.496   7.204   4.049  0.8424  0.0297  2.5333
 5680WAT     H223441   5.500   7.067   4.049  1.1950  0.0078  0.4670
 5680WAT    EPW23442   5.463   7.134   4.063  0.5811 -0.3182  0.4485
 5681WAT      O23443   7.142   3.946   5.475  0.6982  0.0552  0.4375
 5681WAT     H123444   7.114   4.015   5.430  0.0479  0.2714  1.1495
 5681WAT     H223445   7.214   3.922   5.432 -0.5936 -0.5660 -1.4915
 5681WAT    EPW23446   7.148   3.953   5.462  0.4113 -0.0046  0.2577
 5682WAT      O23447   1.065   6.431   2.564  0.4975 -0.0028  0.0633
 5682WAT     H123448   1.126   6.402   2.620 -0.2725 -0.7884  0.5107
 5682WAT     H223449   1.076   6.380   2.494  0.3983 -0.0967  0.1164
 5682WAT    EPW23450   1.076   6.419   2.562  0.3691 -0.1327  0.1373
 5683WAT      O23451   4.266   2.150   0.873 -0.1649  0.1345  0.2382
 5683WAT     H123452   4.241   2.073   0.841 -0.4522 -0.1053  1.0260
 5683WAT     H223453   4.206   2.205   0.842  0.5132  0.1998 -1.0209
 5683WAT    EPW23454   4.253   2.147   0.864 -0.1072  0.1087  0.1686
 5684WAT      O23455   5.641   0.580   6.564  0.3606  0.0164  0.4863
 5684WAT     H123456   5.580   0.524   6.590  0.1030 -0.0873 -0.3200
 5684WAT     H223457   5.639   0.643   6.624  0.4177 -0.6628  1.2147
 5684WAT    EPW23458   5.632   0.581   6.577  0.3310 -0.0992  0.4748
 5685WAT      O23459   6.481   6.377   5.191 -0.0908 -0.5221 -0.3690
 5685WAT     H123460   6.396   6.371   5.174 -0.0194  0.7189 -1.2385
 5685WAT     H223461   6.490   6.330   5.264 -1.4046 -1.1713 -0.5888
 5685WAT    EPW23462   6.470   6.369   5.199 -0.2743 -0.4347 -0.5299
 5686WAT      O23463   5.815   1.004   0.423 -0.2835  0.2637  0.6833
 5686WAT     H123464   5.900   1.025   0.421  0.0567 -0.7695  2.1450
 5686WAT     H223465   5.777   1.075   0.455  0.3115  0.1177  1.7919
 5686WAT    EPW23466   5.822   1.017   0.428 -0.1454  0.0895  1.0630
 5687WAT      O23467   0.105   2.700   5.557 -0.0326 -0.0250  0.1262
 5687WAT     H123468   0.134   2.629   5.514 -0.9456  0.4360 -1.3105
 5687WAT     H223469   0.023   2.679   5.577  0.0920  0.1435  0.8277
 5687WAT    EPW23470   0.098   2.686   5.554 -0.1490  0.0680  0.0176
 5688WAT      O23471   0.034   0.093   4.208  0.2346  0.1567 -0.1461
 5688WAT     H123472   0.038   0.159   4.264 -1.8106  1.2274 -1.1697
 5688WAT     H223473   0.116   0.084   4.181  1.0052  0.5781  1.8624
 5688WAT    EPW23474   0.047   0.101   4.212  0.0463  0.3772 -0.0006
 5689WAT      O23475   5.070   6.968   4.648 -0.8503  0.2600  0.0759
 5689WAT     H123476   5.020   6.897   4.656  1.2990 -1.2850  0.5295
 5689WAT     H223477   5.129   6.944   4.588  1.6398  0.5515  2.2525
 5689WAT    EPW23478   5.072   6.954   4.640 -0.1650  0.0749  0.4644
 5690WAT      O23479   1.986   0.643   5.560 -0.8600 -0.7155 -0.6622
 5690WAT     H123480   2.046   0.703   5.541 -2.7487  0.9535 -1.7004
 5690WAT     H223481   2.015   0.608   5.634 -0.0583  2.0387  0.4349
 5690WAT    EPW23482   1.999   0.647   5.568 -1.0206 -0.0621 -0.6535
 5691WAT      O23483   4.913   1.174   0.596  0.0977 -0.3522  0.1826
 5691WAT     H123484   4.897   1.258   0.613 -1.0057 -0.4373 -0.3512
 5691WAT     H223485   4.846   1.151   0.545 -0.7794 -2.1344  2.0346
 5691WAT    EPW23486   4.901   1.183   0.591 -0.1948 -0.6280  0.3774
 5692WAT      O23487   6.486   5.294   0.292 -0.3787  0.1847  0.0459
 5692WAT     H123488   6.452   5.223   0.256 -1.2379  1.2170 -1.2816
 5692WAT     H223489   6.460   5.359   0.239 -1.2282  1.7334  2.1992
 5692WAT    EPW23490   6.478   5.293   0.279 -0.6311  0.5660  0.1679
 5693WAT      O23491   5.231   6.666   3.089  0.3490 -0.1052  0.0733
 5693WAT     H123492   5.279   6.738   3.092 -0.6420  0.5724  2.0186
 5693WAT     H223493   5.150   6.695   3.105 -0.1823 -1.5476  0.1507
 5693WAT    EPW23494   5.226   6.681   3.092  0.1241 -0.2182  0.3721
 5694WAT      O23495   0.940   2.948   0.291 -0.1730  0.0381 -0.0836
 5694WAT     H123496   1.005   2.935   0.234 -0.8642  1.0246 -1.1399
 5694WAT     H223497   0.953   3.030   0.318  0.2405 -0.4678  1.3510
 5694WAT    EPW23498   0.952   2.959   0.287 -0.2140  0.1091 -0.0277
 5695WAT      O23499   6.030   4.947   0.058  0.0036  0.2322  0.5026
 5695WAT     H123500   6.002   4.937  -0.024  0.1694 -0.9361  0.5667
 5695WAT     H223501   6.076   5.021   0.055  0.5591 -0.1314 -0.6240
 5695WAT    EPW23502   6.033   4.956   0.045  0.1102  0.0059  0.3457
 5696WAT      O23503   7.027   6.372   0.329  0.4659  0.1014  0.0866
 5696WAT     H123504   7.050   6.323   0.261  2.6167 -1.4224  1.7590
 5696WAT     H223505   7.062   6.450   0.312  4.1710 -1.1701  0.8524
 5696WAT    EPW23506   7.035   6.376   0.317  1.3310 -0.3115  0.4468
 5697WAT      O23507   0.254   2.803   0.109  0.0974  0.2663  0.7689
 5697WAT     H123508   0.339   2.801   0.089 -0.1600  0.7539 -0.4578
 5697WAT     H223509   0.232   2.887   0.102 -0.2588  0.3254  2.1920
 5697WAT    EPW23510   0.263   2.815   0.105  0.0068  0.3470  0.7979
 5698WAT      O23511   5.704   3.014   1.255  0.1275 -0.1505  0.4487
 5698WAT     H123512   5.672   2.934   1.268  0.0397 -0.0846  0.6436
 5698WAT     H223513   5.701   3.023   1.169 -1.0804  0.1321  0.5051
 5698WAT    EPW23514   5.699   3.004   1.244 -0.0639 -0.0990  0.4859
 5699WAT      O23515   4.602   2.647   1.213  0.6772 -0.2483 -0.5439
 5699WAT     H123516   4.641   2.723   1.196  0.5022 -0.0868 -0.2369
 5699WAT     H223517   4.585   2.614   1.134  0.7204  0.0471 -0.6773
 5699WAT    EPW23518   4.605   2.653   1.199  0.6577 -0.1808 -0.5183
 5700WAT      O23519   3.703   3.766   2.702 -0.3167  0.1279  0.0749
 5700WAT     H123520   3.757   3.700   2.720 -0.0229 -0.1109 -1.5241
 5700WAT     H223521   3.742   3.806   2.634 -2.6217 -0.6708 -1.8416
 5700WAT    EPW23522   3.717   3.762   2.695 -0.6138 -0.0253 -0.4444
 5701WAT      O23523   6.160   2.996   1.949  0.3264 -0.2666  0.1320
 5701WAT     H123524   6.186   2.919   1.916 -0.6791 -0.2605 -0.7552
 5701WAT     H223525   6.188   3.054   1.890 -0.7788 -0.1782 -0.3472
 5701WAT    EPW23526   6.168   2.993   1.935  0.0146 -0.2526 -0.0699
 5702WAT      O23527   5.401   4.775   3.651  0.5012  0.1756  0.0142
 5702WAT     H123528   5.450   4.727   3.597  0.6600  0.9721 -0.5642
 5702WAT     H223529   5.355   4.716   3.694  2.6770 -0.7023  1.3202
 5702WAT    EPW23530   5.402   4.759   3.649  0.8460  0.1636  0.1217
 5703WAT      O23531   5.038   3.836   6.481  0.5029 -0.6075  0.0622
 5703WAT     H123532   4.987   3.768   6.462  0.9213 -0.7047 -0.7930
 5703WAT     H223533   5.062   3.866   6.402  0.2046  0.6221  0.4261
 5703WAT    EPW23534   5.034   3.830   6.467  0.5206 -0.4402 -0.0104
 5704WAT      O23535   3.567   6.603   5.756 -0.2756  0.1330 -0.1927
 5704WAT     H123536   3.629   6.594   5.695 -0.3237 -0.2209 -0.1934
 5704WAT     H223537   3.600   6.663   5.810  1.3869 -2.0208  1.3926
 5704WAT    EPW23538   3.581   6.611   5.755 -0.0371 -0.2374  0.0414
 5705WAT      O23539   2.385   3.137   3.476  0.0064  0.1601  0.8758
 5705WAT     H123540   2.428   3.180   3.539  0.1055 -0.6036  1.3412
 5705WAT     H223541   2.312   3.185   3.465  0.6525  1.0882  0.5525
 5705WAT    EPW23542   2.380   3.151   3.484  0.1165  0.1844  0.8968
 5706WAT      O23543   3.132   2.374   2.157 -0.3113 -0.2273  0.1230
 5706WAT     H123544   3.101   2.453   2.178 -1.1110 -0.3961 -0.3734
 5706WAT     H223545   3.061   2.324   2.154  0.1743 -0.9571  0.3383
 5706WAT    EPW23546   3.117   2.378   2.160 -0.3577 -0.3601  0.0815
 5707WAT      O23547   2.553   6.136   2.710 -0.4753  0.0876  0.6936
 5707WAT     H123548   2.597   6.206   2.681  0.5178 -0.1544  1.5652
 5707WAT     H223549   2.555   6.145   2.797 -1.0634 -0.5945  0.7823
 5707WAT    EPW23550   2.560   6.148   2.718 -0.4155 -0.0489  0.8355
 5708WAT      O23551   1.962   7.057   1.067 -0.3007 -0.5968 -0.3706
 5708WAT     H123552   1.922   6.995   1.115 -1.3616  0.0328 -0.4086
 5708WAT     H223553   2.042   7.025   1.056  0.2569 -0.4386  2.4564
 5708WAT    EPW23554   1.968   7.043   1.073 -0.3750 -0.4804  0.0414
 5709WAT      O23555   0.524   6.068   6.022  0.1934  0.4042 -0.2016
 5709WAT     H123556   0.484   6.065   6.099  1.3284  2.1194  0.5042
 5709WAT     H223557   0.572   5.995   6.022 -0.4974 -0.0704  0.2890
 5709WAT    EPW23558   0.525   6.057   6.033  0.2591  0.5875 -0.0248
 5710WAT      O23559   6.059   3.122   2.236 -0.1521 -0.4467 -0.3462
 5710WAT     H123560   6.004   3.054   2.240 -0.4005 -0.3695 -1.8582
 5710WAT     H223561   6.063   3.140   2.151 -0.2010  1.5379  0.0310
 5710WAT    EPW23562   6.051   3.115   2.224 -0.1960 -0.1422 -0.5138
 5711WAT      O23563   4.467   6.436   0.007  0.1533 -0.0926 -0.4438
 5711WAT     H123564   4.409   6.373   0.018  0.1340  0.0570  0.4441
 5711WAT     H223565   4.472   6.446  -0.079 -1.4535  0.1899 -0.5327
 5711WAT    EPW23566   4.459   6.428  -0.004 -0.0869 -0.0288 -0.3257
 5712WAT      O23567   4.200   0.334   2.382  0.2496 -0.3495  0.2223
 5712WAT     H123568   4.208   0.263   2.431 -0.9114 -0.3899  0.3745
 5712WAT     H223569   4.280   0.345   2.349  0.9236 -0.6287  1.6840
 5712WAT    EPW23570   4.213   0.325   2.384  0.1777 -0.3967  0.4607
 5713WAT      O23571   1.897   5.421   0.790 -0.3879 -0.0953  0.5794
 5713WAT     H123572   1.842   5.488   0.779 -0.8686 -0.8471 -2.4405
 5713WAT     H223573   1.853   5.353   0.757  2.5324 -0.5710 -2.9269
 5713WAT    EPW23574   1.882   5.421   0.783 -0.0275 -0.2766 -0.3846
 5714WAT      O23575   3.667   3.944   1.970 -0.5595  0.0264  0.3480
 5714WAT     H123576   3.659   3.870   1.923  1.3262 -0.7068  1.0573
 5714WAT     H223577   3.590   3.952   2.009  0.2997 -4.0526  3.6486
 5714WAT    EPW23578   3.655   3.934   1.968 -0.1540 -0.6845  0.9404
 5715WAT      O23579   2.609   0.769   0.689  0.1836  0.6444 -0.0067
 5715WAT     H123580   2.583   0.751   0.770 -1.4619 -1.3889 -0.8710
 5715WAT     H223581   2.534   0.784   0.646  0.7237 -1.0497 -1.6923
 5715WAT    EPW23582   2.594   0.769   0.695  0.0203  0.0938 -0.3834
 5716WAT      O23583   1.519   0.539   2.379  0.7079 -0.5873 -0.0806
 5716WAT     H123584   1.461   0.593   2.416 -0.7213 -1.9024 -0.2829
 5716WAT     H223585   1.476   0.462   2.377  1.8942 -1.2491 -1.6553
 5716WAT    EPW23586   1.504   0.535   2.384  0.6720 -0.8793 -0.3431
 5717WAT      O23587   3.771   2.565   4.238 -0.2619  0.0154 -0.5219
 5717WAT     H123588   3.704   2.619   4.251 -0.5525 -0.4586 -0.0189
 5717WAT     H223589   3.772   2.555   4.151 -0.8175  0.0568 -0.5360
 5717WAT    EPW23590   3.761   2.572   4.227 -0.3869 -0.0485 -0.4497
 5718WAT      O23591   4.702   6.097   1.537 -0.2557  0.3432 -0.1118
 5718WAT     H123592   4.679   6.163   1.589 -0.2999  1.3015 -1.2954
 5718WAT     H223593   4.784   6.118   1.513 -0.5592  0.4130 -1.1374
 5718WAT    EPW23594   4.711   6.110   1.541 -0.3071  0.4951 -0.4382
 5719WAT      O23595   0.238   1.858   5.704  0.1400  0.0877 -0.6424
 5719WAT     H123596   0.301   1.810   5.741  0.2255 -1.1999 -2.3389
 5719WAT     H223597   0.178   1.866   5.767  0.9106 -0.7977  0.2245
 5719WAT    EPW23598   0.238   1.852   5.719  0.2665 -0.2333 -0.7649
 5720WAT      O23599   1.845   5.017   2.109  0.5708  0.1740 -0.3193
 5720WAT     H123600   1.802   4.955   2.153 -1.4934  2.2730  0.7991
 5720WAT     H223601   1.873   4.975   2.038 -3.2336 -1.4644 -1.1178
 5720WAT    EPW23602   1.843   5.002   2.105 -0.2961  0.2420 -0.2720
 5721WAT      O23603   6.511   5.858   1.427 -0.1282  0.3600 -0.2099
 5721WAT     H123604   6.507   5.773   1.446  1.5326  0.6059  1.5078
 5721WAT     H223605   6.430   5.886   1.445 -0.6090 -0.7818 -0.4834
 5721WAT    EPW23606   6.498   5.850   1.433  0.0461  0.2277  0.0035
 5722WAT      O23607   3.460   6.601   6.803 -0.2496 -0.0203 -0.8563
 5722WAT     H123608   3.392   6.563   6.764 -1.0909  0.5876 -0.0269
 5722WAT     H223609   3.516   6.535   6.817 -0.9650 -0.6510 -0.9256
 5722WAT    EPW23610   3.459   6.586   6.799 -0.4795 -0.0236 -0.7440
 5723WAT      O23611   5.955   0.597   4.999 -0.1460  0.1681  0.8013
 5723WAT     H123612   5.900   0.612   5.065 -0.6791 -2.2343  1.0154
 5723WAT     H223613   6.006   0.533   5.029  0.8763  0.3681 -0.4329
 5723WAT    EPW23614   5.954   0.590   5.013 -0.0737 -0.1572  0.6506
 5724WAT      O23615   3.446   0.551   5.900  0.4411 -0.7109 -0.2906
 5724WAT     H123616   3.417   0.610   5.957  1.2580  1.1359 -1.6945
 5724WAT     H223617   3.525   0.581   5.876  0.8845 -2.3495 -1.1011
 5724WAT    EPW23618   3.454   0.564   5.905  0.6272 -0.6802 -0.6177
 5725WAT      O23619   4.880   6.466   2.794 -0.1050 -0.4191 -0.2340
 5725WAT     H123620   4.812   6.505   2.756  0.5121 -0.5453 -1.5213
 5725WAT     H223621   4.870   6.381   2.774 -0.8251 -0.8014  1.5830
 5725WAT    EPW23622   4.869   6.459   2.785 -0.1202 -0.4942 -0.1558
 5726WAT      O23623   4.811   7.078   6.147  0.4677  0.1858  0.4071
 5726WAT     H123624   4.832   6.994   6.160 -0.9812 -0.2921 -0.1430
 5726WAT     H223625   4.882   7.112   6.111  0.8688 -0.9518  0.0989
 5726WAT    EPW23626   4.824   7.070   6.144  0.3129 -0.0528  0.2803
 5727WAT      O23627   5.246   1.952   5.591 -0.0273  0.3656 -0.3771
 5727WAT     H123628   5.316   1.976   5.636  1.4550 -0.6974 -2.0015
 5727WAT     H223629   5.219   2.026   5.554  1.1071  0.5469 -0.8731
 5727WAT    EPW23630   5.252   1.966   5.592  0.3592  0.2353 -0.6903
 5728WAT      O23631   0.912   3.809   1.179 -0.4473 -0.1195  0.4429
 5728WAT     H123632   0.994   3.778   1.175 -0.3393  0.2375 -0.2242
 5728WAT     H223633   0.871   3.751   1.229  0.5803  0.4960  2.0942
 5728WAT    EPW23634   0.918   3.796   1.186 -0.2795  0.0242  0.5883
 5729WAT      O23635   3.834   5.187   4.351  0.0102 -0.0801 -0.5045
 5729WAT     H123636   3.863   5.226   4.423  0.0903  0.3763 -0.7797
 5729WAT     H223637   3.763   5.144   4.377  0.1461 -0.0659 -0.1150
 5729WAT    EPW23638   3.828   5.186   4.365  0.0421 -0.0106 -0.4876
 5730WAT      O23639   2.777   6.723   4.038  0.1711 -0.4623 -0.1927
 5730WAT     H123640   2.775   6.664   3.974 -0.0033 -1.9054  1.0654
 5730WAT     H223641   2.697   6.719   4.073 -1.1430  3.2500 -2.2965
 5730WAT    EPW23642   2.765   6.714   4.034 -0.0488 -0.1271 -0.3177
 5731WAT      O23643   0.247   2.778   1.612 -0.4093  0.8321 -0.1999
 5731WAT     H123644   0.302   2.716   1.636 -0.4174 -0.1854 -2.5347
 5731WAT     H223645   0.298   2.838   1.574 -0.7918 -0.1346 -2.4115
 5731WAT    EPW23646   0.263   2.778   1.610 -0.4670  0.5390 -0.8715
 5732WAT      O23647   0.463   4.242   4.981 -0.2292  0.3841  0.1635
 5732WAT     H123648   0.518   4.294   5.025  0.7937  0.5790 -1.2546
 5732WAT     H223649   0.445   4.288   4.909 -0.1970 -0.7509 -0.5901
 5732WAT    EPW23650   0.469   4.256   4.976 -0.0733  0.2452 -0.1573
 5733WAT      O23651   2.648   0.069   1.696 -0.2092  0.4834  0.2778
 5733WAT     H123652   2.668   0.106   1.772 -0.2922 -0.0292  0.5518
 5733WAT     H223653   2.666  -0.015   1.709  0.4887  0.5029 -0.5103
 5733WAT    EPW23654   2.653   0.062   1.709 -0.1184  0.4105  0.2018
 5734WAT      O23655   4.133   3.487   5.793  0.1204 -0.2063  0.0350
 5734WAT     H123656   4.117   3.415   5.747 -2.6089 -0.0911  0.6459
 5734WAT     H223657   4.117   3.464   5.875  1.5349  0.5057  0.5460
 5734WAT    EPW23658   4.128   3.473   5.798 -0.0738 -0.0841  0.2007
 5735WAT      O23659   3.751   0.589   7.370  0.5745  0.2407  0.5160
 5735WAT     H123660   3.758   0.675   7.380  1.0258  0.2674  0.0350
 5735WAT     H223661   3.779   0.576   7.288  0.8445 -0.4014  0.7080
 5735WAT    EPW23662   3.756   0.600   7.359  0.6810  0.1498  0.4733
 5736WAT      O23663   5.504   5.479   2.996 -0.7737 -0.2514  0.8665
 5736WAT     H123664   5.557   5.543   3.024 -0.2690  0.1150 -0.8354
 5736WAT     H223665   5.452   5.465   3.065 -0.9446  2.0283  1.3092
 5736WAT    EPW23666   5.504   5.487   3.010 -0.7244  0.1395  0.6804
 5737WAT      O23667   7.009   4.512   6.301  0.5143  0.0103  0.0712
 5737WAT     H123668   7.084   4.557   6.295  1.3283 -1.1843  0.8220
 5737WAT     H223669   6.989   4.494   6.218 -0.0220  1.9938 -0.2844
 5737WAT    EPW23670   7.017   4.516   6.288  0.5553  0.1269  0.1296
 5738WAT      O23671   1.191   6.130   0.564 -0.3060  0.1444  0.3443
 5738WAT     H123672   1.245   6.135   0.495 -0.8044 -0.3899 -0.0942
 5738WAT     H223673   1.169   6.046   0.566  0.7552 -0.1495  1.9795
 5738WAT    EPW23674   1.196   6.118   0.554 -0.2229  0.0220  0.5211
 5739WAT      O23675   0.619   3.406   2.219 -0.2127 -0.0014  0.0375
 5739WAT     H123676   0.561   3.365   2.168 -2.5411  2.2275  0.6942
 5739WAT     H223677   0.696   3.382   2.186 -1.5529 -0.9371 -2.6737
 5739WAT    EPW23678   0.622   3.396   2.207 -0.7546  0.1896 -0.2660
 5740WAT      O23679   5.953   0.824   5.579  0.0763  0.3171 -0.0482
 5740WAT     H123680   5.914   0.747   5.595  1.0617 -0.1369  0.2284
 5740WAT     H223681   6.019   0.826   5.636  0.3873  1.1285 -0.4221
 5740WAT    EPW23682   5.957   0.813   5.590  0.2678  0.3699 -0.0626
 5741WAT      O23683   5.977   4.959   3.340 -0.0838 -0.6854 -0.6315
 5741WAT     H123684   5.993   4.918   3.265  0.6870  1.0613 -1.4684
 5741WAT     H223685   5.900   4.927   3.365 -0.7791 -0.6835 -2.6216
 5741WAT    EPW23686   5.968   4.948   3.333 -0.0726 -0.4271 -1.0491
 5742WAT      O23687   7.161   3.032   3.215  0.4196  0.3590  0.3861
 5742WAT     H123688   7.214   2.981   3.167  1.3392  0.5864  1.1254
 5742WAT     H223689   7.129   2.978   3.275  0.8094  0.4765  0.7081
 5742WAT    EPW23690   7.164   3.017   3.217  0.6130  0.4099  0.5429
 5743WAT      O23691   3.350   3.684   0.470  0.1652 -0.1668  0.4464
 5743WAT     H123692   3.437   3.688   0.467  0.1731  0.5887  1.2408
 5743WAT     H223693   3.326   3.764   0.444 -0.3307 -0.6976 -0.7652
 5743WAT    EPW23694   3.360   3.697   0.466  0.0931 -0.1336  0.3848
 5744WAT      O23695   4.199   5.358   1.865 -0.0877  0.6707  0.3564
 5744WAT     H123696   4.181   5.346   1.949  0.0169  1.6745  0.5279
 5744WAT     H223697   4.209   5.277   1.835 -1.5971  0.2199  0.9721
 5744WAT    EPW23698   4.198   5.344   1.873 -0.2952  0.7524  0.4727
 5745WAT      O23699   2.835   2.840   1.165 -0.2036  0.1696 -0.1516
 5745WAT     H123700   2.767   2.829   1.113 -1.1118 -1.2505  1.2424
 5745WAT     H223701   2.903   2.813   1.117 -0.6293  1.3027 -1.4389
 5745WAT    EPW23702   2.835   2.834   1.150 -0.4007  0.1272 -0.1359
 5746WAT      O23703   4.517   2.798   4.743  0.4279  0.1907 -0.0658
 5746WAT     H123704   4.568   2.858   4.705  1.3787 -0.0963  0.7226
 5746WAT     H223705   4.504   2.831   4.823  0.7168 -0.5056  0.2725
 5746WAT    EPW23706   4.523   2.812   4.749  0.6110  0.0455  0.1007
 5747WAT      O23707   0.859   2.876   6.690 -0.0091  0.3789 -0.1255
 5747WAT     H123708   0.920   2.821   6.720  1.0530  2.3788  1.6000
 5747WAT     H223709   0.784   2.836   6.710  0.7046 -0.6624  0.5895
 5747WAT    EPW23710   0.857   2.862   6.697  0.2532  0.5205  0.2350
 5748WAT      O23711   6.471   1.079   7.281  0.2309  0.5038  0.0267
 5748WAT     H123712   6.504   1.007   7.244 -2.2309 -0.1656 -1.0155
 5748WAT     H223713   6.417   1.111   7.221 -1.2267  1.3653  1.6967
 5748WAT    EPW23714   6.468   1.073   7.267 -0.3481  0.5322  0.1194
 5749WAT      O23715   5.150   1.428   5.718 -0.3005  0.4049 -0.2133
 5749WAT     H123716   5.213   1.456   5.664  0.5685 -0.8314  0.1075
 5749WAT     H223717   5.093   1.389   5.665 -1.4453  2.5626 -0.6451
 5749WAT    EPW23718   5.151   1.426   5.702 -0.3412  0.5410 -0.2297
 5750WAT      O23719   4.983   5.954   1.679 -0.3061  0.2426  0.1713
 5750WAT     H123720   4.943   5.893   1.631  2.0269 -0.2586 -1.3085
 5750WAT     H223721   5.054   5.913   1.709  1.6109  2.2539 -1.2970
 5750WAT    EPW23722   4.987   5.939   1.676  0.3217  0.4656 -0.2642
 5751WAT      O23723   0.781   6.385   2.971 -0.2978  0.1676 -0.5044
 5751WAT     H123724   0.698   6.380   2.994 -0.5281 -1.1491 -1.4821
 5751WAT     H223725   0.814   6.308   2.995  0.4691  0.3992 -0.7559
 5751WAT    EPW23726   0.774   6.373   2.978 -0.2185  0.0073 -0.6860
 5752WAT      O23727   1.279   2.860   1.031 -0.2968  0.5249 -0.5028
 5752WAT     H123728   1.321   2.788   1.005  1.0719  1.0235  0.1945
 5752WAT     H223729   1.306   2.921   0.974 -0.0094  0.8628 -0.0161
 5752WAT    EPW23730   1.289   2.859   1.019 -0.0522  0.6485 -0.3279
 5753WAT      O23731   4.174   1.126   1.635 -1.1161 -0.4344 -0.1756
 5753WAT     H123732   4.130   1.187   1.589 -0.0442  0.1822 -0.4097
 5753WAT     H223733   4.207   1.074   1.574  0.0806  0.2277 -0.1321
 5753WAT    EPW23734   4.172   1.127   1.619 -0.7810 -0.2455 -0.2038
 5754WAT      O23735   2.159   5.982   4.043  0.2947  0.2178 -1.0590
 5754WAT     H123736   2.120   5.914   4.082  0.2343  1.4891  1.2562
 5754WAT     H223737   2.107   5.997   3.974 -2.7421  1.0030  1.1580
 5754WAT    EPW23738   2.145   5.974   4.038 -0.1628  0.5216 -0.3895
 5755WAT      O23739   2.001   2.996   3.315 -0.1402  0.0579  0.3648
 5755WAT     H123740   1.940   2.977   3.374 -0.8169  0.7288 -0.0814
 5755WAT     H223741   1.960   2.982   3.239  0.5302 -0.2642  0.0612
 5755WAT    EPW23742   1.986   2.991   3.312 -0.1411  0.1094  0.2541
 5756WAT      O23743   3.571   3.659   2.091 -0.7348  0.1162 -0.1268
 5756WAT     H123744   3.541   3.737   2.114 -2.5905 -0.0819 -1.6395
 5756WAT     H223745   3.613   3.631   2.163 -0.6301  2.1677  0.6752
 5756WAT    EPW23746   3.573   3.666   2.105 -0.9934  0.3900 -0.2318
 5757WAT      O23747   0.250   5.252   5.477 -0.3922 -0.3652 -0.3871
 5757WAT     H123748   0.169   5.255   5.509 -0.9348 -0.7084 -1.6738
 5757WAT     H223749   0.264   5.167   5.465 -0.9877 -0.1574 -2.9164
 5757WAT    EPW23750   0.240   5.240   5.480 -0.5603 -0.3852 -0.9508
 5758WAT      O23751   1.796   0.849   0.695 -0.2379  0.1132  0.3031
 5758WAT     H123752   1.735   0.828   0.636  0.4092 -0.6606 -0.1031
 5758WAT     H223753   1.822   0.772   0.726 -0.7147  0.5072  1.7794
 5758WAT    EPW23754   1.791   0.835   0.691 -0.2127  0.0571  0.4612
 5759WAT      O23755   2.581   0.850   3.469  0.0398  0.2034  0.3276
 5759WAT     H123756   2.667   0.836   3.465 -0.1720 -1.0698 -0.3445
 5759WAT     H223757   2.547   0.770   3.465 -1.2363  0.7564 -1.2565
 5759WAT    EPW23758   2.588   0.836   3.468 -0.1800  0.0970 -0.0057
 5760WAT      O23759   1.049   6.574   6.117  0.3745  0.6692 -0.5043
 5760WAT     H123760   1.032   6.594   6.034  1.8066 -0.6957 -1.2014
 5760WAT     H223761   1.136   6.583   6.122  0.1760  2.0205  1.2584
 5760WAT    EPW23762   1.059   6.578   6.105  0.5567  0.6672 -0.3469
 5761WAT      O23763   3.809   1.158   1.659 -0.6415  0.5893  0.1711
 5761WAT     H123764   3.856   1.219   1.617 -1.8254  0.4218 -1.5027
 5761WAT     H223765   3.735   1.200   1.679 -0.5778  0.3083  1.0452
 5761WAT    EPW23766   3.805   1.173   1.656 -0.8070  0.5231  0.0529
 5762WAT      O23767   1.360   4.035   5.547 -0.0112  0.1759 -0.4421
 5762WAT     H123768   1.383   4.118   5.530 -0.4310  0.8843  2.0184
 5762WAT     H223769   1.433   4.000   5.577 -0.6241  0.8266  2.0812
 5762WAT    EPW23770   1.374   4.042   5.549 -0.1637  0.3767  0.2941
 5763WAT      O23771   0.100   6.524   4.680 -0.2567  0.7212  0.2279
 5763WAT     H123772   0.144   6.593   4.709 -1.6385  1.8265 -0.1841
 5763WAT     H223773   0.031   6.519   4.733 -0.3783 -0.1087  0.0109
 5763WAT    EPW23774   0.096   6.533   4.692 -0.4787  0.7619  0.1350
 5764WAT      O23775   3.310   4.574   5.705 -0.2343 -0.0042  0.1840
 5764WAT     H123776   3.334   4.584   5.622  2.8210 -0.9296  0.8087
 5764WAT     H223777   3.293   4.489   5.711 -1.1641  0.1888  0.3656
 5764WAT    EPW23778   3.311   4.563   5.694  0.0797 -0.1124  0.3031
 5765WAT      O23779   5.307   4.562   4.748  0.2248  0.0271 -0.3123
 5765WAT     H123780   5.297   4.583   4.664 -0.2316  2.7076  0.3268
 5765WAT     H223781   5.235   4.515   4.766 -1.4599  2.3352 -0.6303
 5765WAT    EPW23782   5.295   4.558   4.738 -0.0915  0.7640 -0.2649
 5766WAT      O23783   0.724   6.303   5.295 -0.1179 -0.0433  0.2308
 5766WAT     H123784   0.744   6.332   5.215  0.7498  0.1999  0.5243
 5766WAT     H223785   0.642   6.274   5.286 -0.1214  0.2052 -0.6839
 5766WAT    EPW23786   0.715   6.303   5.282  0.0098  0.0293  0.1390
 5767WAT      O23787   2.851   0.493   0.129  0.0988 -0.5083 -0.5723
 5767WAT     H123788   2.776   0.468   0.093 -1.4523  3.1583 -0.3408
 5767WAT     H223789   2.894   0.531   0.064  0.1033  0.5694  0.0303
 5767WAT    EPW23790   2.846   0.495   0.114 -0.1296  0.1925 -0.4491
 5768WAT      O23791   5.219   4.357   1.543  0.2174 -0.2005 -0.0198
 5768WAT     H123792   5.202   4.276   1.570 -0.0670 -0.2764 -0.4122
 5768WAT     H223793   5.194   4.407   1.610  0.6073 -0.4436  0.3175
 5768WAT    EPW23794   5.213   4.352   1.557  0.2330 -0.2476 -0.0279
 5769WAT      O23795   3.834   1.448   2.240 -0.1591  0.1352  0.1603
 5769WAT     H123796   3.879   1.424   2.169  0.8379 -1.4118  1.2370
 5769WAT     H223797   3.846   1.534   2.245 -1.2958  0.5221 -2.1973
 5769WAT    EPW23798   3.842   1.457   2.231 -0.1798 -0.0362 -0.0289
 5770WAT      O23799   5.432   3.621   5.647 -0.5045 -0.2724 -0.9983
 5770WAT     H123800   5.476   3.696   5.644  0.2835 -0.6733  0.0049
 5770WAT     H223801   5.349   3.646   5.649 -0.2457  0.5819 -0.5675
 5770WAT    EPW23802   5.426   3.636   5.647 -0.3499 -0.2054 -0.7864
 5771WAT      O23803   0.101   0.500   1.470 -0.4790  0.1952 -0.3355
 5771WAT     H123804   0.109   0.419   1.438  2.3494  0.7205 -1.3377
 5771WAT     H223805   0.159   0.501   1.535 -2.9909  0.4784  2.0458
 5771WAT    EPW23806   0.111   0.488   1.475 -0.4323  0.3147 -0.1318
 5772WAT      O23807   2.605   0.326   3.547  0.1977  0.0493 -0.3963
 5772WAT     H123808   2.542   0.383   3.524 -0.9615 -0.7970  0.5378
 5772WAT     H223809   2.678   0.364   3.518 -0.7725  0.8228 -2.0497
 5772WAT    EPW23810   2.606   0.340   3.539 -0.1168  0.0385 -0.5025
 5773WAT      O23811   3.444   1.966   6.263  0.1485 -0.1298 -0.1023
 5773WAT     H123812   3.486   2.026   6.311  1.4347 -1.3671  0.3936
 5773WAT     H223813   3.465   1.986   6.181 -0.8963  1.1405 -0.0890
 5773WAT    EPW23814   3.453   1.978   6.258  0.1842 -0.1250 -0.0270
 5774WAT      O23815   3.795   1.200   4.940  0.3253 -0.0726 -0.1474
 5774WAT     H123816   3.847   1.207   4.871  1.6722  0.6116  0.8948
 5774WAT     H223817   3.737   1.265   4.929 -2.2216 -2.4826 -2.7400
 5774WAT    EPW23818   3.794   1.210   4.928  0.1480 -0.3275 -0.3764
 5775WAT      O23819   2.692   2.825   0.504  0.1092 -0.2532 -0.4164
 5775WAT     H123820   2.769   2.819   0.464  0.2824 -0.6272 -0.0266
 5775WAT     H223821   2.660   2.744   0.499  0.4027 -0.4546  0.7372
 5775WAT    EPW23822   2.699   2.812   0.497  0.1781 -0.3382 -0.1884
 5776WAT      O23823   5.378   3.608   3.726  0.6157  0.2747  0.1624
 5776WAT     H123824   5.342   3.582   3.651 -1.0394 -0.2160  1.0803
 5776WAT     H223825   5.325   3.672   3.753  0.3237 -0.5223  1.5965
 5776WAT    EPW23826   5.365   3.614   3.719  0.3280  0.0845  0.5099
 5777WAT      O23827   5.354   4.276   0.777  0.6429  0.0385  0.1607
 5777WAT     H123828   5.353   4.317   0.700  0.4372  1.3358  0.8239
 5777WAT     H223829   5.435   4.290   0.807  0.5334  0.0683  0.4455
 5777WAT    EPW23830   5.366   4.284   0.770  0.5963  0.2346  0.3007
 5778WAT      O23831   0.199   5.229   2.797  0.1663 -0.1246 -0.7461
 5778WAT     H123832   0.132   5.179   2.771 -0.3169 -0.1462  0.4936
 5778WAT     H223833   0.165   5.277   2.861  1.7259 -1.2110  0.9724
 5778WAT    EPW23834   0.184   5.229   2.803  0.3253 -0.2883 -0.3091
 5779WAT      O23835   2.477   0.548   4.667 -0.2348  0.1533  0.5063
 5779WAT     H123836   2.401   0.582   4.640  0.1756 -0.7203 -1.9794
 5779WAT     H223837   2.456   0.466   4.689 -0.2226  0.2733  0.9611
 5779WAT    EPW23838   2.462   0.541   4.666 -0.1724  0.0420  0.2063
 5780WAT      O23839   6.583   5.373   6.438 -0.4907  0.8333 -0.3577
 5780WAT     H123840   6.525   5.318   6.474  0.2146 -0.0295 -0.5110
 5780WAT     H223841   6.598   5.431   6.501 -0.6058  0.3579  0.1160
 5780WAT    EPW23842   6.577   5.373   6.453 -0.4035  0.6357 -0.3104
 5781WAT      O23843   2.763   7.038   3.951  0.2895 -0.5704 -1.1245
 5781WAT     H123844   2.690   7.075   3.981  0.0343 -0.4895 -1.8267
 5781WAT     H223845   2.770   6.965   3.998  0.9198  0.4472  0.4386
 5781WAT    EPW23846   2.753   7.033   3.963  0.3449 -0.4082 -0.9973
 5782WAT      O23847   2.956   1.746   4.385 -0.3907 -0.0204  0.3682
 5782WAT     H123848   2.925   1.746   4.303 -0.6230  0.9842  0.4466
 5782WAT     H223849   2.885   1.740   4.434 -0.2341 -0.8861  0.5071
 5782WAT    EPW23850   2.941   1.745   4.380 -0.4019  0.0001  0.4003
 5783WAT      O23851   5.256   0.804   4.880  0.2300 -0.2286  0.1257
 5783WAT     H123852   5.322   0.854   4.907 -0.4093  0.7980 -0.1678
 5783WAT     H223853   5.262   0.733   4.931  1.2849  0.0487  0.3971
 5783WAT    EPW23854   5.266   0.801   4.892  0.2914 -0.0360  0.1225
 5784WAT      O23855   0.511   0.632   6.686  0.3816 -0.3469 -0.3671
 5784WAT     H123856   0.441   0.667   6.646  0.4377 -0.2732 -0.4028
 5784WAT     H223857   0.559   0.602   6.620  0.1959 -0.7592 -0.3195
 5784WAT    EPW23858   0.507   0.633   6.670  0.3625 -0.3969 -0.3654
 5785WAT      O23859   4.640   3.707   1.124  0.3532  1.0484  0.5556
 5785WAT     H123860   4.609   3.644   1.175  1.0200  2.1875  2.4476
 5785WAT     H223861   4.657   3.665   1.049 -1.7420 -0.4347  0.8217
 5785WAT    EPW23862   4.638   3.691   1.120  0.1422  0.9976  0.8744
 5786WAT      O23863   7.093   7.102   3.616 -0.3155  0.0608 -0.6225
 5786WAT     H123864   7.100   7.020   3.645  1.4188  0.3132 -0.2118
 5786WAT     H223865   7.164   7.141   3.647 -0.6070  1.4796 -1.6308
 5786WAT    EPW23866   7.104   7.096   3.625 -0.1024  0.3077 -0.7108
 5787WAT      O23867   3.184   1.904   6.251 -0.0961  0.4398  0.2116
 5787WAT     H123868   3.182   1.855   6.179  1.5328  0.1491  0.3200
 5787WAT     H223869   3.268   1.927   6.258 -0.1657  0.2830  2.1157
 5787WAT    EPW23870   3.196   1.900   6.241  0.1343  0.3737  0.5089
 5788WAT      O23871   1.854   7.202   4.986 -0.3509 -0.3521  0.0307
 5788WAT     H123872   1.803   7.159   4.930  0.3185  0.6075 -1.3685
 5788WAT     H223873   1.857   7.150   5.056 -1.1323 -1.6241 -0.8509
 5788WAT    EPW23874   1.847   7.188   4.988 -0.3674 -0.3982 -0.3062
 5789WAT      O23875   1.045   0.844   2.381 -0.6543 -0.1291  0.3620
 5789WAT     H123876   0.960   0.852   2.363 -0.4498  2.3682  0.1470
 5789WAT     H223877   1.064   0.763   2.354 -2.5062  0.0019 -1.6043
 5789WAT    EPW23878   1.036   0.834   2.374 -0.8977  0.2592  0.0397
 5790WAT      O23879   0.537   6.629   1.809 -0.4772  0.4928 -1.1028
 5790WAT     H123880   0.590   6.562   1.825  1.3927  1.4780 -2.7097
 5790WAT     H223881   0.457   6.596   1.821  0.4266 -1.0640  1.4215
 5790WAT    EPW23882   0.533   6.615   1.813 -0.0675  0.4084 -0.9673
 5791WAT      O23883   2.797   1.387   0.390  0.1558 -0.6237 -0.1892
 5791WAT     H123884   2.830   1.384   0.471 -0.1219 -0.0220 -0.0494
 5791WAT     H223885   2.868   1.377   0.339  0.2683 -1.4956  0.1252
 5791WAT    EPW23886   2.812   1.385   0.395  0.1314 -0.6636 -0.1221
 5792WAT      O23887   7.150   0.009   2.384 -0.5648 -0.4527 -0.0935
 5792WAT     H123888   7.204   0.076   2.396 -0.0907 -0.9935  0.8512
 5792WAT     H223889   7.202  -0.054   2.354 -1.1361 -0.2044 -1.7308
 5792WAT    EPW23890   7.166   0.010   2.381 -0.5791 -0.4959 -0.1958
 5793WAT      O23891   1.016   4.177   2.316 -0.0814  0.4420  0.2997
 5793WAT     H123892   1.059   4.247   2.344  0.7485  0.8016 -1.6893
 5793WAT     H223893   0.961   4.210   2.256  1.2228 -0.6804 -1.6256
 5793WAT    EPW23894   1.014   4.192   2.311  0.2339  0.3293 -0.2785
 5794WAT      O23895   1.205   4.965   3.445 -0.0239  0.2153 -0.1882
 5794WAT     H123896   1.264   4.951   3.508 -1.2544 -0.9993  0.7581
 5794WAT     H223897   1.134   4.989   3.488 -0.4663  0.8988 -1.2581
 5794WAT    EPW23898   1.203   4.966   3.461 -0.2710  0.1369 -0.2065
 5795WAT      O23899   4.260   6.578   0.129 -0.4943 -0.4050 -0.1103
 5795WAT     H123900   4.327   6.536   0.094 -0.2757  0.8165 -1.2121
 5795WAT     H223901   4.297   6.646   0.170 -1.0314  0.2918 -0.7484
 5795WAT    EPW23902   4.275   6.582   0.130 -0.5413 -0.1216 -0.3673
 5796WAT      O23903   2.662   3.723   2.039 -0.3417  0.0042 -0.0153
 5796WAT     H123904   2.599   3.778   2.016 -1.3709 -1.5448 -1.1162
 5796WAT     H223905   2.631   3.683   2.109  0.3162  0.6462  0.6611
 5796WAT    EPW23906   2.648   3.725   2.046 -0.3965 -0.1298 -0.0780
 5797WAT      O23907   6.313   2.641   5.957 -0.6293  0.0093 -0.0990
 5797WAT     H123908   6.260   2.655   6.025  0.6755 -0.9709  1.1625
 5797WAT     H223909   6.320   2.721   5.920 -2.0318  0.3757  0.3730
 5797WAT    EPW23910   6.306   2.655   5.961 -0.6437 -0.0814  0.1571
 5798WAT      O23911   6.652   7.087   5.749  0.2474  0.6927  0.2270
 5798WAT     H123912   6.573   7.053   5.737 -0.0464  2.1360 -2.6941
 5798WAT     H223913   6.671   7.066   5.831 -2.9698 -0.0692  0.8995
 5798WAT    EPW23914   6.643   7.079   5.759 -0.2712  0.7933 -0.1052
 5799WAT      O23915   2.254   3.289   6.290  0.4052 -0.1686  0.4321
 5799WAT     H123916   2.186   3.290   6.345  0.0803 -1.3918  0.0829
 5799WAT     H223917   2.272   3.374   6.278 -1.2454  0.1912  0.2901
 5799WAT    EPW23918   2.247   3.302   6.296  0.1134 -0.2961  0.3596
 5800WAT      O23919   2.739   7.084   0.360  0.2983  0.0487 -0.0203
 5800WAT     H123920   2.707   7.078   0.441  0.8409  1.7876  0.3843
 5800WAT     H223921   2.696   7.023   0.316 -0.5915 -0.4093  1.4085
 5800WAT    EPW23922   2.728   7.074   0.365  0.2471  0.2379  0.2505
 5801WAT      O23923   2.316   0.451   4.996  0.0672  0.3998  0.3554
 5801WAT     H123924   2.308   0.399   5.066 -1.0693 -0.2801 -0.2447
 5801WAT     H223925   2.368   0.405   4.943  0.6082  0.7418  0.5767
 5801WAT    EPW23926   2.322   0.436   4.999 -0.0207  0.3499  0.2994
 5802WAT      O23927   3.927   0.546   5.658 -0.1276 -0.2066 -0.2831
 5802WAT     H123928   3.927   0.600   5.589 -0.6746 -0.7797 -0.7397
 5802WAT     H223929   3.987   0.486   5.636 -1.4613 -1.3106 -1.0068
 5802WAT    EPW23930   3.936   0.545   5.644 -0.4054 -0.4543 -0.4575
 5803WAT      O23931   1.274   5.058   1.253 -0.2216 -0.2528 -0.2588
 5803WAT     H123932   1.336   5.104   1.294  0.5091 -0.4691 -1.0835
 5803WAT     H223933   1.319   4.996   1.212 -1.1001 -1.0831  0.0072
 5803WAT    EPW23934   1.290   5.056   1.253 -0.2434 -0.4074 -0.3413
 5804WAT      O23935   1.986   0.727   2.285 -0.2104  0.5059 -0.3424
 5804WAT     H123936   2.044   0.747   2.347 -0.3624 -1.7951  0.6303
 5804WAT     H223937   1.938   0.664   2.321 -2.7340  1.6373 -1.4740
 5804WAT    EPW23938   1.987   0.721   2.300 -0.6057  0.3331 -0.3659
 5805WAT      O23939   5.351   0.355   4.571  0.2864  0.2993  0.0506
 5805WAT     H123940   5.267   0.375   4.585 -0.0173 -1.0309  0.2786
 5805WAT     H223941   5.358   0.359   4.484 -0.6577 -1.7674 -0.1949
 5805WAT    EPW23942   5.340   0.358   4.560  0.1021 -0.2025  0.0480
 5806WAT      O23943   3.189   6.692   2.537 -0.0311 -0.5285  0.1753
 5806WAT     H123944   3.124   6.748   2.551 -0.5965 -0.0623 -3.3559
 5806WAT     H223945   3.148   6.614   2.534 -0.1297 -0.4675 -0.1188
 5806WAT    EPW23946   3.173   6.689   2.538 -0.1292 -0.4506 -0.3898
 5807WAT      O23947   5.629   5.724   7.031 -0.0468  0.0373  0.2825
 5807WAT     H123948   5.583   5.790   7.065 -0.0233 -0.9956  2.5277
 5807WAT     H223949   5.602   5.720   6.949 -1.3401  1.7144  0.5730
 5807WAT    EPW23950   5.618   5.733   7.024 -0.2344  0.1325  0.6571
 5808WAT      O23951   1.410   2.202   0.226  0.7706  0.2959  0.2717
 5808WAT     H123952   1.347   2.243   0.182 -0.6978  0.9434  2.7771
 5808WAT     H223953   1.442   2.145   0.168 -0.5455  1.5094 -1.7863
 5808WAT    EPW23954   1.406   2.200   0.211  0.3593  0.5708  0.3378
 5809WAT      O23955   1.652   6.953   3.262  0.0466 -0.2320 -0.7167
 5809WAT     H123956   1.610   7.026   3.284 -1.8775 -0.5409 -2.9780
 5809WAT     H223957   1.604   6.890   3.298  0.4918 -0.4767 -0.5443
 5809WAT    EPW23958   1.639   6.955   3.271 -0.1719 -0.3138 -1.0253
 5810WAT      O23959   4.272   0.649   2.304  0.3100 -0.4306 -0.5895
 5810WAT     H123960   4.316   0.575   2.312  0.4463 -0.3820 -0.8644
 5810WAT     H223961   4.313   0.690   2.239  1.3935  0.7160  0.7526
 5810WAT    EPW23962   4.285   0.644   2.295  0.4902 -0.2540 -0.4318
 5811WAT      O23963   4.082   0.958   7.386  0.6473  0.6771  0.3564
 5811WAT     H123964   4.086   1.034   7.344  0.7751  1.3649  1.5413
 5811WAT     H223965   4.085   0.982   7.470 -0.0151 -0.5978  0.7656
 5811WAT    EPW23966   4.083   0.973   7.392  0.5683  0.5904  0.5919
 5812WAT      O23967   6.940   2.009   1.369 -0.1738 -0.3373  0.2532
 5812WAT     H123968   6.870   2.011   1.318 -0.0664  1.2202  0.1217
 5812WAT     H223969   6.966   2.092   1.373 -0.0336 -0.4118  2.6621
 5812WAT    EPW23970   6.934   2.021   1.362 -0.1372 -0.1182  0.5896
 5813WAT      O23971   2.345   5.839   6.663 -0.2116  0.0597  0.6303
 5813WAT     H123972   2.357   5.841   6.577 -1.2027  0.6834  0.4987
 5813WAT     H223973   2.395   5.904   6.693 -0.3392  0.2314  0.4685
 5813WAT    EPW23974   2.354   5.849   6.655 -0.3769  0.1772  0.5870
 5814WAT      O23975   2.144   0.061   7.341 -0.3201 -0.0101  0.4307
 5814WAT     H123976   2.120   0.141   7.367 -1.1459  0.0844 -0.5782
 5814WAT     H223977   2.152   0.017   7.416  1.0403  1.2335  1.0778
 5814WAT    EPW23978   2.141   0.066   7.356 -0.2411  0.1875  0.3772
 5815WAT      O23979   4.179   5.900   0.376 -0.2034 -0.0535  0.9893
 5815WAT     H123980   4.131   5.829   0.392 -1.0087 -0.0104 -0.9245
 5815WAT     H223981   4.201   5.892   0.292  1.1699  1.1174  1.1850
 5815WAT    EPW23982   4.175   5.889   0.366 -0.1195  0.1258  0.7355
 5816WAT      O23983   6.561   5.551   3.366  0.7609 -0.5205 -0.0136
 5816WAT     H123984   6.482   5.520   3.347  1.4095 -1.1989 -1.8959
 5816WAT     H223985   6.610   5.480   3.372  1.9741 -0.0714 -2.8918
 5816WAT    EPW23986   6.557   5.536   3.364  1.0359 -0.5544 -0.7168
 5817WAT      O23987   3.369   1.882   0.826 -0.4420 -0.4836 -0.0780
 5817WAT     H123988   3.381   1.968   0.840 -0.9692 -0.4524  0.1900
 5817WAT     H223989   3.305   1.879   0.768  0.1328 -0.6845 -0.7161
 5817WAT    EPW23990   3.362   1.894   0.820 -0.4350 -0.5086 -0.1327
 5818WAT      O23991   1.871   6.293   5.592  0.0454  0.4057 -0.1609
 5818WAT     H123992   1.840   6.259   5.666  3.2375  1.0858  1.7312
 5818WAT     H223993   1.860   6.379   5.603 -1.3112  0.4269 -1.4809
 5818WAT    EPW23994   1.865   6.301   5.605  0.3166  0.5093 -0.0764
 5819WAT      O23995   3.053   0.188   0.438 -0.2976  0.0002  0.0177
 5819WAT     H123996   3.078   0.183   0.522  0.6366 -1.6364 -0.3194
 5819WAT     H223997   3.019   0.109   0.422 -2.2627  0.9361 -0.6263
 5819WAT    EPW23998   3.052   0.176   0.448 -0.4499 -0.1033 -0.1272
 5820WAT      O23999   4.338   5.431   1.357  0.3389  0.7021 -0.5114
 5820WAT     H124000   4.286   5.493   1.391  0.1036 -0.5780  1.6565
 5820WAT     H224001   4.418   5.462   1.369  0.2091  0.8180  0.0622
 5820WAT    EPW24002   4.342   5.444   1.364  0.2850  0.5301 -0.1065
 5821WAT      O24003   7.152   7.091   0.736 -0.3402  0.0418 -0.4687
 5821WAT     H124004   7.086   7.122   0.687  0.7127  0.2815 -1.8022
 5821WAT     H224005   7.126   7.010   0.757 -1.4434  0.4532 -0.1937
 5821WAT    EPW24006   7.138   7.084   0.732 -0.3477  0.1380 -0.6251
 5822WAT      O24007   4.605   1.586   5.701  0.5295  0.0852 -0.5176
 5822WAT     H124008   4.533   1.539   5.716  0.1007  0.9276  0.1342
 5822WAT     H224009   4.653   1.534   5.650 -0.3110 -0.6994 -0.5328
 5822WAT    EPW24010   4.601   1.571   5.695  0.3420  0.0937 -0.4236
 5823WAT      O24011   5.873   7.022   4.450  0.1403 -0.1151  0.9333
 5823WAT     H124012   5.881   7.107   4.466 -1.2886  0.0939  0.6744
 5823WAT     H224013   5.865   6.987   4.529 -1.7031  0.2969  0.9554
 5823WAT    EPW24014   5.873   7.029   4.464 -0.3431 -0.0234  0.8983
 5824WAT      O24015   7.271   5.273   1.370 -0.1000 -0.6087 -0.0830
 5824WAT     H124016   7.303   5.340   1.325  0.6986 -0.9870 -0.0951
 5824WAT     H224017   7.337   5.215   1.370  0.0213 -0.5242  1.7803
 5824WAT    EPW24018   7.285   5.274   1.364  0.0359 -0.6521  0.1905
 5825WAT      O24019   3.227   2.942   0.698  0.1809  0.0200  0.1716
 5825WAT     H124020   3.177   2.960   0.768 -0.5083  1.9659 -0.7333
 5825WAT     H224021   3.292   3.000   0.704 -0.4905  0.9782 -1.3418
 5825WAT    EPW24022   3.229   2.953   0.709 -0.0200  0.4490 -0.1856
 5826WAT      O24023   7.084   4.695   4.693 -0.3458 -0.1072 -0.1727
 5826WAT     H124024   7.035   4.767   4.700 -1.4780 -0.7711 -0.8915
 5826WAT     H224025   7.025   4.631   4.691  0.5940 -0.9847 -0.4207
 5826WAT    EPW24026   7.068   4.696   4.693 -0.3742 -0.3349 -0.3156
 5827WAT      O24027   7.018   0.310   2.850  0.0711  0.1100  0.4696
 5827WAT     H124028   7.099   0.319   2.880  1.7627 -0.9767 -3.2505
 5827WAT     H224029   7.020   0.346   2.771 -2.7910 -0.8980 -0.2041
 5827WAT    EPW24030   7.030   0.316   2.843 -0.1018 -0.1994 -0.1794
 5828WAT      O24031   2.749   0.895   4.521  1.0057  0.2386 -0.8271
 5828WAT     H124032   2.783   0.972   4.546 -0.2123 -0.0187  1.9139
 5828WAT     H224033   2.704   0.915   4.448  0.8096  2.1051 -0.2422
 5828WAT    EPW24034   2.748   0.910   4.514  0.7968  0.4763 -0.3358
 5829WAT      O24035   3.685   5.349   1.970  0.3742  0.1735 -0.0592
 5829WAT     H124036   3.718   5.285   2.018  1.2174  0.4170 -0.2919
 5829WAT     H224037   3.678   5.416   2.026  1.2013  0.4082 -0.2303
 5829WAT    EPW24038   3.688   5.350   1.985  0.6209  0.2441 -0.1189
 5830WAT      O24039   4.316   2.671   4.328 -0.0953  0.1925 -0.0447
 5830WAT     H124040   4.319   2.680   4.242  0.2453 -0.8388 -0.1567
 5830WAT     H224041   4.382   2.617   4.346 -0.2232  0.3118  0.8458
 5830WAT    EPW24042   4.326   2.664   4.318 -0.0639  0.0578  0.0703
 5831WAT      O24043   2.427   6.413   3.190  0.5952  0.2838  0.4801
 5831WAT     H124044   2.439   6.343   3.241 -1.9950 -1.1177 -0.5971
 5831WAT     H224045   2.380   6.381   3.123  1.3676  2.6128 -1.2931
 5831WAT    EPW24046   2.422   6.398   3.188  0.3267  0.4208  0.0591
 5832WAT      O24047   4.879   1.115   6.233 -0.4627  0.0829  0.6436
 5832WAT     H124048   4.832   1.060   6.186  0.6969  0.7313 -1.4139
 5832WAT     H224049   4.866   1.192   6.194 -0.8127  1.0134  2.4750
 5832WAT    EPW24050   4.870   1.118   6.220 -0.3431  0.3161  0.6102
 5833WAT      O24051   6.786   1.273   7.122 -1.0407  0.4642 -0.7119
 5833WAT     H124052   6.812   1.353   7.143 -0.0942  0.1121 -0.5109
 5833WAT     H224053   6.736   1.285   7.051 -1.7467  1.3303 -0.1014
 5833WAT    EPW24054   6.782   1.287   7.115 -1.0052  0.5401 -0.5921
 5834WAT      O24055   0.797   6.506   6.528  0.2535  0.5849 -0.8547
 5834WAT     H124056   0.825   6.482   6.607 -2.9809  0.4302  0.3852
 5834WAT     H224057   0.838   6.451   6.474  0.0234 -1.6120  1.0552
 5834WAT    EPW24058   0.807   6.495   6.532 -0.2583  0.2375 -0.3894
 5835WAT      O24059   1.917   2.071   4.045 -0.2577  0.7713  0.0627
 5835WAT     H124060   1.854   2.117   4.084  1.2123  0.3306  3.3528
 5835WAT     H224061   1.899   1.989   4.066  2.8292  0.7803  4.0163
 5835WAT    EPW24062   1.905   2.066   4.054  0.4155  0.7075  1.1328
 5836WAT      O24063   3.389   2.760   4.561 -0.5612  0.1743  0.3532
 5836WAT     H124064   3.433   2.704   4.612 -0.4927 -0.1537 -0.0639
 5836WAT     H224065   3.353   2.709   4.500 -1.5325  0.4354  0.6843
 5836WAT    EPW24066   3.390   2.744   4.560 -0.6945  0.1644  0.3405
 5837WAT      O24067   3.719   6.660   2.894 -0.1998 -0.1662  0.3683
 5837WAT     H124068   3.642   6.681   2.858 -0.3034  0.6586  1.0468
 5837WAT     H224069   3.745   6.591   2.847 -1.6830 -0.9108  0.5506
 5837WAT    EPW24070   3.711   6.653   2.882 -0.4342 -0.1543  0.4954
 5838WAT      O24071   6.248   3.736   0.762  0.6869 -0.3750  0.1892
 5838WAT     H124072   6.186   3.794   0.741  1.4444  0.3117 -0.2316
 5838WAT     H224073   6.262   3.692   0.688  0.5279 -0.6951  0.3490
 5838WAT    EPW24074   6.241   3.738   0.748  0.7753 -0.3208  0.1506
 5839WAT      O24075   3.074   1.843   3.652  0.2877  0.3978 -0.3027
 5839WAT     H124076   3.032   1.788   3.706 -0.8593  1.5346 -0.0151
 5839WAT     H224077   3.062   1.921   3.689  0.8517  1.0058 -1.3686
 5839WAT    EPW24078   3.066   1.846   3.666  0.2016  0.6556 -0.4177
 5840WAT      O24079   0.189   4.700   3.313  0.7006 -0.5371 -0.4185
 5840WAT     H124080   0.228   4.762   3.264 -0.1842  0.9787  0.6940
 5840WAT     H224081   0.132   4.663   3.259  0.1495  0.7194 -0.7430
 5840WAT    EPW24082   0.186   4.704   3.298  0.4885 -0.1275 -0.3021
 5841WAT      O24083   4.341   3.121   4.045 -0.2177 -0.2617 -0.6097
 5841WAT     H124084   4.390   3.160   4.107 -0.5480 -0.7154 -0.0542
 5841WAT     H224085   4.392   3.055   4.018  0.0438  0.1113 -1.0254
 5841WAT    EPW24086   4.356   3.117   4.050 -0.2278 -0.2736 -0.5890
 5842WAT      O24087   4.678   6.565   3.993  0.0903 -0.2204 -0.1334
 5842WAT     H124088   4.631   6.634   4.019  1.7257  0.9498 -0.1082
 5842WAT     H224089   4.721   6.595   3.923  0.2486 -1.4722 -0.5941
 5842WAT    EPW24090   4.677   6.580   3.987  0.3553 -0.2325 -0.1978
 5843WAT      O24091   3.326   0.165   5.052 -0.2233  0.4763 -0.1050
 5843WAT     H124092   3.256   0.118   5.075 -0.4660  1.4520  1.2317
 5843WAT     H224093   3.304   0.246   5.074  1.1608  0.8591 -0.0805
 5843WAT    EPW24094   3.312   0.170   5.059 -0.0547  0.6770  0.0961
 5844WAT      O24095   4.596   0.457   1.003  0.1823  0.4030 -0.2042
 5844WAT     H124096   4.553   0.388   1.034 -0.4462  0.7642 -0.2528
 5844WAT     H224097   4.679   0.439   1.021 -0.0461 -0.0150  0.4662
 5844WAT    EPW24098   4.602   0.444   1.010  0.0557  0.3946 -0.1123
 5845WAT      O24099   2.594   3.055   2.633  0.0928 -0.2233  0.4811
 5845WAT     H124100   2.590   3.099   2.708 -1.3874  1.5392 -0.5557
 5845WAT     H224101   2.537   2.990   2.645  0.3080 -0.3122  1.0772
 5845WAT    EPW24102   2.585   3.052   2.646 -0.0941  0.0240  0.4160
 5846WAT      O24103   2.335   3.454   1.672 -0.3770  0.8692 -0.6052
 5846WAT     H124104   2.249   3.442   1.679 -0.5949  2.2109 -0.6703
 5846WAT     H224105   2.357   3.491   1.748  0.2294  0.1537 -0.4160
 5846WAT    EPW24106   2.326   3.458   1.684 -0.3196  0.9617 -0.5869
 5847WAT      O24107   4.866   3.775   5.953  0.0435 -0.0199  0.3127
 5847WAT     H124108   4.842   3.800   6.033  2.4675  1.6942  0.6179
 5847WAT     H224109   4.890   3.850   5.914  3.0028 -1.2197 -0.4656
 5847WAT    EPW24110   4.866   3.790   5.959  0.8387  0.0561  0.2428
 5848WAT      O24111   6.796   6.110   0.193 -0.1031 -0.4512  0.2124
 5848WAT     H124112   6.795   6.104   0.280  1.9606 -2.3778  0.1982
 5848WAT     H224113   6.735   6.053   0.167  0.0295 -0.6708  0.3842
 5848WAT    EPW24114   6.787   6.101   0.202  0.2214 -0.7682  0.2357
 5849WAT      O24115   4.115   6.580   6.641 -0.0625  0.5892  0.5925
 5849WAT     H124116   4.160   6.509   6.620 -0.2751  0.7495 -0.4576
 5849WAT     H224117   4.108   6.624   6.565 -1.4157  0.8844  0.8541
 5849WAT    EPW24118   4.120   6.576   6.627 -0.2938  0.6565  0.4760
 5850WAT      O24119   0.927   0.193   2.860 -0.2655  0.4017  0.0525
 5850WAT     H124120   0.944   0.228   2.781  0.9116  0.2968  0.2304
 5850WAT     H224121   0.914   0.109   2.842  0.7564  0.2348  0.0331
 5850WAT    EPW24122   0.928   0.186   2.845  0.0593  0.3615  0.0759
 5851WAT      O24123   2.288   4.911   3.394 -0.3632  0.2490  0.7182
 5851WAT     H124124   2.339   4.870   3.336  0.3069  0.3797  1.2042
 5851WAT     H224125   2.218   4.860   3.399  0.3223 -0.6950  1.0774
 5851WAT    EPW24126   2.285   4.897   3.386 -0.1629  0.1289  0.8430
 5852WAT      O24127   0.426   1.127   4.516 -0.2236  0.3265  0.3951
 5852WAT     H124128   0.441   1.174   4.444  0.5320  0.8900  0.9023
 5852WAT     H224129   0.339   1.125   4.520 -0.2814  1.2666  0.0760
 5852WAT    EPW24130   0.415   1.134   4.506 -0.1205  0.5487  0.4229
 5853WAT      O24131   3.833   0.977   6.563  0.1954  0.3230 -0.2365
 5853WAT     H124132   3.758   0.949   6.596 -0.4776 -0.3236 -2.1729
 5853WAT     H224133   3.881   0.904   6.556  0.3320  0.4510 -0.6603
 5853WAT    EPW24134   3.829   0.962   6.567  0.1161  0.2464 -0.5852
 5854WAT      O24135   5.233   1.167   2.144 -0.7315  0.0072  0.3176
 5854WAT     H124136   5.208   1.100   2.093 -0.3059 -0.7329  1.0565
 5854WAT     H224137   5.314   1.145   2.168 -1.1754 -0.0310  1.8936
 5854WAT    EPW24138   5.241   1.154   2.140 -0.7342 -0.1078  0.6596
 5855WAT      O24139   1.295   0.202   3.439 -0.1530  0.0713 -0.0436
 5855WAT     H124140   1.216   0.206   3.401  0.5707  1.4009 -1.4958
 5855WAT     H224141   1.341   0.151   3.385  0.0741 -0.5604  0.7142
 5855WAT    EPW24142   1.290   0.195   3.426 -0.0126  0.1744 -0.1462
 5856WAT      O24143   6.789   3.330   6.707 -0.4010  0.5859 -0.1267
 5856WAT     H124144   6.727   3.281   6.744  0.3268 -1.1524 -1.0683
 5856WAT     H224145   6.755   3.354   6.631 -0.5835  1.1987  0.1395
 5856WAT    EPW24146   6.775   3.326   6.701 -0.3205  0.4196 -0.2265
 5857WAT      O24147   2.591   1.498   4.064 -0.5736 -0.2792  0.6284
 5857WAT     H124148   2.518   1.451   4.062 -0.1564 -0.9272 -1.4046
 5857WAT     H224149   2.620   1.495   3.982  1.3594  0.5828  1.2204
 5857WAT    EPW24150   2.584   1.491   4.051 -0.2264 -0.2476  0.4156
 5858WAT      O24151   5.954   1.321   0.572 -0.3143  0.3645  0.3771
 5858WAT     H124152   5.873   1.301   0.597 -0.3897  0.7837  0.4890
 5858WAT     H224153   5.978   1.254   0.523 -1.8040  1.4660 -2.0506
 5858WAT    EPW24154   5.946   1.308   0.569 -0.5455  0.5891  0.0350
 5859WAT      O24155   5.896   0.293   1.206 -0.0211  0.1125 -0.5357
 5859WAT     H124156   5.964   0.345   1.188 -0.1577  0.9374  1.1153
 5859WAT     H224157   5.932   0.225   1.246 -0.1350  0.4958  0.2365
 5859WAT    EPW24158   5.911   0.291   1.209 -0.0581  0.2910 -0.1777
 5860WAT      O24159   0.310   5.826   5.168  0.5088 -0.1791 -0.4297
 5860WAT     H124160   0.378   5.788   5.207  0.4996 -0.0358 -0.2748
 5860WAT     H224161   0.256   5.845   5.234 -0.4476 -1.8016 -0.6863
 5860WAT    EPW24162   0.312   5.823   5.183  0.3662 -0.3976 -0.4448
 5861WAT      O24163   6.732   6.964   5.982 -0.4947 -0.3087  0.0040
 5861WAT     H124164   6.660   6.923   6.009 -0.4288 -0.6888 -0.3847
 5861WAT     H224165   6.792   6.901   5.976 -0.5981 -0.3115 -1.3405
 5861WAT    EPW24166   6.730   6.949   5.985 -0.5003 -0.3653 -0.2520
 5862WAT      O24167   4.146   6.876   1.082 -0.1958 -0.1377  0.3387
 5862WAT     H124168   4.169   6.834   1.009  2.0868 -0.7463  1.3299
 5862WAT     H224169   4.107   6.815   1.130  1.0855 -0.6106  0.8398
 5862WAT    EPW24170   4.144   6.861   1.078  0.3306 -0.2975  0.5592
 5863WAT      O24171   0.336   5.157   0.786  0.5058  0.4843  0.1415
 5863WAT     H124172   0.324   5.240   0.763 -0.8317 -0.0230 -1.1849
 5863WAT     H224173   0.286   5.147   0.856 -0.7260  0.3901 -0.7235
 5863WAT    EPW24174   0.327   5.168   0.793  0.1262  0.3955 -0.1822
 5864WAT      O24175   4.539   6.801   2.336 -0.0516  0.1362  0.0281
 5864WAT     H124176   4.589   6.767   2.273  0.8903  0.1782  0.7379
 5864WAT     H224177   4.506   6.873   2.298  0.3084  0.0331 -0.5040
 5864WAT    EPW24178   4.542   6.807   2.321  0.1407  0.1272  0.0543
 5865WAT      O24179   3.215   1.084   7.038  0.3021  0.4633 -0.1104
 5865WAT     H124180   3.236   1.136   6.971  0.2168  1.2652  0.4756
 5865WAT     H224181   3.229   1.134   7.108 -0.0116 -0.2289  0.4535
 5865WAT    EPW24182   3.220   1.099   7.038  0.2432  0.4795  0.0595
 5866WAT      O24183   3.981   2.368   2.431  0.6003  0.2041 -0.3593
 5866WAT     H124184   4.005   2.284   2.440  0.4534  0.3437  1.9118
 5866WAT     H224185   3.998   2.402   2.510  0.8341  2.3781 -1.2901
 5866WAT    EPW24186   3.987   2.360   2.444  0.6132  0.5459 -0.1613
 5867WAT      O24187   3.715   0.433   5.062  0.1873  0.1236 -0.3448
 5867WAT     H124188   3.651   0.459   5.114  0.9826  1.5235 -0.0138
 5867WAT     H224189   3.687   0.454   4.982  0.5370  1.4731 -0.1354
 5867WAT    EPW24190   3.701   0.440   5.058  0.3565  0.5298 -0.2650
 5868WAT      O24191   0.650   6.545   7.262 -0.1398  0.1249  0.3882
 5868WAT     H124192   0.628   6.564   7.344  0.4880  0.3210  0.5170
 5868WAT     H224193   0.715   6.487   7.271  0.4980  0.7805  0.0431
 5868WAT    EPW24194   0.656   6.539   7.276  0.0471  0.2507  0.3563
 5869WAT      O24195   6.055   5.056   6.383  0.0060 -0.7341 -0.4449
 5869WAT     H124196   6.032   5.057   6.467 -1.3840  1.6418 -0.7639
 5869WAT     H224197   6.087   4.975   6.371  0.8559 -0.9347  2.4810
 5869WAT    EPW24198   6.056   5.044   6.393 -0.0738 -0.4127 -0.0598
 5870WAT      O24199   6.995   2.310   5.233  0.1784 -0.2400  0.5248
 5870WAT     H124200   7.014   2.225   5.227  0.4202 -0.1247 -0.4166
 5870WAT     H224201   6.908   2.311   5.234  0.1389 -0.4180 -1.0323
 5870WAT    EPW24202   6.985   2.298   5.233  0.2083 -0.2492  0.1557
 5871WAT      O24203   0.233   1.963   3.568 -0.0654 -0.1817  0.4836
 5871WAT     H124204   0.312   1.979   3.536  0.3660 -1.8740  0.6291
 5871WAT     H224205   0.188   2.035   3.547  0.5939 -0.5237 -2.5474
 5871WAT    EPW24206   0.238   1.976   3.560  0.0957 -0.4822  0.0574
 5872WAT      O24207   5.287   5.736   7.221  0.0532  0.2347 -0.2982
 5872WAT     H124208   5.358   5.786   7.219  0.0951  0.1729 -1.9376
 5872WAT     H224209   5.221   5.793   7.228  0.0937  0.5993 -2.2885
 5872WAT    EPW24210   5.288   5.751   7.222  0.0654  0.2794 -0.8344
 5873WAT      O24211   5.257   1.601   1.556  0.0504 -0.2037 -0.7048
 5873WAT     H124212   5.304   1.675   1.558  0.6464 -0.5880  0.1529
 5873WAT     H224213   5.318   1.538   1.557 -0.4662 -0.7068 -0.4089
 5873WAT    EPW24214   5.273   1.603   1.556  0.0621 -0.3348 -0.5344
 5874WAT      O24215   6.424   1.986   1.895  0.1561  0.5260  0.1045
 5874WAT     H124216   6.456   1.995   1.814 -1.7461  0.5357 -0.7030
 5874WAT     H224217   6.427   2.067   1.927 -0.4149  0.8068 -0.5192
 5874WAT    EPW24218   6.429   1.999   1.887 -0.2092  0.5689 -0.1069
 5875WAT      O24219   7.285   5.093   5.351 -0.6876  0.1385 -0.4589
 5875WAT     H124220   7.309   5.016   5.319 -3.0010 -0.7192 -0.3055
 5875WAT     H224221   7.295   5.147   5.283 -1.8101 -0.9038 -1.5180
 5875WAT    EPW24222   7.290   5.090   5.336 -1.1952 -0.1422 -0.5927
 5876WAT      O24223   1.537   6.350   0.711 -0.5238  0.6149 -0.0060
 5876WAT     H124224   1.592   6.331   0.776  2.3583  0.4236 -2.2871
 5876WAT     H224225   1.529   6.436   0.714 -0.3253  0.6171  0.5101
 5876WAT    EPW24226   1.544   6.360   0.721 -0.0687  0.5870 -0.2667
 5877WAT      O24227   2.857   4.050   3.790  0.1713 -0.4359 -0.1473
 5877WAT     H124228   2.776   4.051   3.823 -0.6435 -1.9341 -1.8777
 5877WAT     H224229   2.847   4.087   3.711  1.8042  2.0185  0.6799
 5877WAT    EPW24230   2.843   4.056   3.783  0.2921 -0.2947 -0.2807
 5878WAT      O24231   0.555   7.071   6.769 -0.0223 -0.4433 -0.0504
 5878WAT     H124232   0.632   7.112   6.768 -1.0016  1.5756  0.5998
 5878WAT     H224233   0.500   7.130   6.736 -1.2162 -2.0870 -1.1534
 5878WAT    EPW24234   0.558   7.086   6.764 -0.3433 -0.3879 -0.1173
 5879WAT      O24235   1.710   2.429   3.959  0.0355 -0.2399  0.3158
 5879WAT     H124236   1.725   2.349   3.926 -0.5575 -0.9815  1.7691
 5879WAT     H224237   1.784   2.472   3.941 -0.4977 -0.3029 -2.6306
 5879WAT    EPW24238   1.723   2.423   3.951 -0.1309 -0.3587  0.0953
 5880WAT      O24239   4.027   6.664   6.033 -0.2917 -0.2083  0.3872
 5880WAT     H124240   4.080   6.728   6.060  0.6335 -1.0606  0.6695
 5880WAT     H224241   4.040   6.662   5.947  1.7795 -1.7317  0.6360
 5880WAT    EPW24242   4.037   6.673   6.024  0.1509 -0.5592  0.4656
 5881WAT      O24243   6.989   5.675   0.210 -0.3611 -0.4245 -0.3564
 5881WAT     H124244   6.995   5.760   0.193 -0.6948 -0.1825  0.6752
 5881WAT     H224245   6.903   5.663   0.223 -0.3765 -1.0156 -0.9249
 5881WAT    EPW24246   6.977   5.686   0.209 -0.4127 -0.4761 -0.2880
 5882WAT      O24247   6.339   1.655   5.983  0.2942 -0.0019 -0.4414
 5882WAT     H124248   6.379   1.629   6.056 -0.6575 -0.8447 -0.1969
 5882WAT     H224249   6.316   1.581   5.944  0.6249  0.4348 -1.5317
 5882WAT    EPW24250   6.342   1.640   5.988  0.2025 -0.0619 -0.5663
 5883WAT      O24251   2.047   5.974   0.915 -0.0054  0.3548  0.0572
 5883WAT     H124252   2.079   5.925   0.979 -0.1508  1.3686  0.9313
 5883WAT     H224253   2.101   6.043   0.914  0.5739 -0.0663 -1.5537
 5883WAT    EPW24254   2.060   5.977   0.924  0.0587  0.4423 -0.0516
 5884WAT      O24255   4.491   3.968   1.107 -0.2080  0.1995  0.0042
 5884WAT     H124256   4.505   4.007   1.184  0.0854  1.0081 -0.4481
 5884WAT     H224257   4.535   3.893   1.114  0.5994  0.6917  0.2789
 5884WAT    EPW24258   4.499   3.962   1.119 -0.0454  0.3917 -0.0220
 5885WAT      O24259   6.494   2.270   1.966 -0.3148 -0.2648 -0.0504
 5885WAT     H124260   6.567   2.269   1.919  1.8508 -0.1393  2.9957
 5885WAT     H224261   6.508   2.332   2.025 -3.2877  0.3322  0.1880
 5885WAT    EPW24262   6.507   2.279   1.968 -0.4341 -0.1581  0.4348
 5886WAT      O24263   0.596   3.893   0.302  0.0349 -0.6256 -0.0772
 5886WAT     H124264   0.674   3.867   0.334 -1.1547 -2.2863  1.7202
 5886WAT     H224265   0.558   3.818   0.279 -0.9586  0.1905 -1.2066
 5886WAT    EPW24266   0.602   3.878   0.303 -0.2876 -0.7504  0.0214
 5887WAT      O24267   0.710   2.599   4.035 -0.1084 -0.3092 -0.0437
 5887WAT     H124268   0.660   2.654   4.080  1.1183 -0.3838  1.4624
 5887WAT     H224269   0.658   2.575   3.968 -1.5131  0.7804  0.6017
 5887WAT    EPW24270   0.695   2.604   4.032 -0.1347 -0.1593  0.2741
 5888WAT      O24271   1.922   3.021   7.053  0.2641  0.0337 -0.0806
 5888WAT     H124272   1.994   3.010   7.005  0.9960 -0.6358  1.1360
 5888WAT     H224273   1.949   3.007   7.134 -0.8628  1.5903  0.5991
 5888WAT    EPW24274   1.937   3.018   7.058  0.2058  0.1647  0.1995
 5889WAT      O24275   4.011   6.663   3.871 -0.0369  0.6611 -0.7942
 5889WAT     H124276   3.970   6.686   3.945 -0.3004  0.1288 -0.7733
 5889WAT     H224277   4.092   6.645   3.898 -0.3867 -0.4858 -0.4666
 5889WAT    EPW24278   4.017   6.664   3.886 -0.1275  0.4130 -0.7427
 5890WAT      O24279   5.380   4.690   5.427 -0.2386  0.1325 -0.1426
 5890WAT     H124280   5.302   4.651   5.426 -0.9633  1.5376  0.0677
 5890WAT     H224281   5.406   4.686   5.343 -1.7521  1.9758 -0.7631
 5890WAT    EPW24282   5.372   4.683   5.414 -0.5692  0.6124 -0.2032
 5891WAT      O24283   7.183   0.419   3.938  0.0073 -0.1121  0.1749
 5891WAT     H124284   7.191   0.428   4.025 -0.2657 -0.6554  0.2620
 5891WAT     H224285   7.101   0.443   3.922 -0.6477 -2.0417  0.3773
 5891WAT    EPW24286   7.172   0.424   3.949 -0.1298 -0.4774  0.2177
 5892WAT      O24287   4.709   2.527   2.192 -0.0589  0.0169 -0.1894
 5892WAT     H124288   4.704   2.440   2.179  0.0671 -0.1365  0.7368
 5892WAT     H224289   4.781   2.549   2.147  0.4611 -0.5223  0.3526
 5892WAT    EPW24290   4.719   2.517   2.183  0.0365 -0.0854  0.0274
 5893WAT      O24291   1.472   6.395   1.652 -0.4046 -0.6799 -0.1387
 5893WAT     H124292   1.504   6.363   1.727  1.6185 -0.6554 -0.9295
 5893WAT     H224293   1.444   6.475   1.674  0.5970 -0.4920  0.5092
 5893WAT    EPW24294   1.472   6.402   1.666  0.0422 -0.6485 -0.1598
 5894WAT      O24295   4.068   4.270   4.278  0.1965 -0.4032  0.0000
 5894WAT     H124296   4.146   4.266   4.240 -0.0860 -1.3753 -0.5027
 5894WAT     H224297   4.061   4.193   4.318 -0.4481 -0.2607  0.1736
 5894WAT    EPW24298   4.079   4.258   4.278  0.0595 -0.5257 -0.0486
 5895WAT      O24299   5.848   0.865   7.223 -0.5315 -0.0626  0.5986
 5895WAT     H124300   5.848   0.778   7.217 -0.5549 -0.0500  0.4090
 5895WAT     H224301   5.927   0.883   7.255 -0.0439 -0.0725 -0.5743
 5895WAT    EPW24302   5.860   0.855   7.227 -0.4630 -0.0622  0.3973
 5896WAT      O24303   5.227   1.711   6.499  0.3767  0.1369 -0.9248
 5896WAT     H124304   5.228   1.791   6.532 -0.9724  0.1709 -0.9211
 5896WAT     H224305   5.309   1.683   6.511  0.0431  0.1804  2.3123
 5896WAT    EPW24306   5.239   1.718   6.505  0.1281  0.1483 -0.4460
 5897WAT      O24307   2.455   4.765   6.080  0.1520  0.4868  0.4846
 5897WAT     H124308   2.431   4.728   6.156  0.4460 -1.0127 -0.1223
 5897WAT     H224309   2.379   4.775   6.038  0.2119 -1.3558 -0.1584
 5897WAT    EPW24310   2.440   4.761   6.085  0.2043 -0.0069  0.2999
 5898WAT      O24311   3.659   1.734   4.289  0.4593  0.0456  0.4778
 5898WAT     H124312   3.653   1.648   4.293  1.0869 -0.0960 -0.8446
 5898WAT     H224313   3.679   1.758   4.370 -1.8652 -0.8158  1.3681
 5898WAT    EPW24314   3.661   1.725   4.301  0.2086 -0.1026  0.4140
 5899WAT      O24315   6.909   0.276   3.860  0.6687  0.2847 -0.5886
 5899WAT     H124316   6.843   0.272   3.803  0.2302 -0.9765 -0.0357
 5899WAT     H224317   6.926   0.192   3.878  0.8304  0.6361  1.1000
 5899WAT    EPW24318   6.902   0.263   3.854  0.6278  0.1503 -0.2575
 5900WAT      O24319   4.327   2.499   2.502 -0.4947 -0.6823 -0.0073
 5900WAT     H124320   4.290   2.496   2.581 -1.5719  0.2610 -0.4487
 5900WAT     H224321   4.408   2.527   2.518 -1.6308  2.7997  0.5518
 5900WAT    EPW24322   4.333   2.503   2.516 -0.8217 -0.0286  0.0101
 5901WAT      O24323   2.330   7.170   4.819  0.0925 -0.0799  0.1855
 5901WAT     H124324   2.309   7.085   4.809 -0.3995  0.1683 -1.1553
 5901WAT     H224325   2.254   7.206   4.843  0.1952  0.0445  0.3168
 5901WAT    EPW24326   2.316   7.163   4.821  0.0350 -0.0248  0.0068
 5902WAT      O24327   4.449   4.742   3.718  0.2479 -0.1879 -0.0573
 5902WAT     H124328   4.413   4.819   3.698  0.0576 -0.6887 -1.8475
 5902WAT     H224329   4.380   4.689   3.728  0.3501 -0.9137 -2.4826
 5902WAT    EPW24330   4.434   4.745   3.716  0.2349 -0.3691 -0.6800
 5903WAT      O24331   6.923   1.899   3.470  0.4660 -0.2106  0.3168
 5903WAT     H124332   6.999   1.858   3.457  0.3243 -0.0737 -1.1477
 5903WAT     H224333   6.865   1.835   3.480  0.8242 -0.3191  2.0162
 5903WAT    EPW24334   6.926   1.884   3.469  0.4980 -0.2064  0.3515
 5904WAT      O24335   6.270   3.322   2.439  0.2231 -0.1059 -0.2152
 5904WAT     H124336   6.348   3.314   2.401 -0.0776 -1.8333 -0.5352
 5904WAT     H224337   6.249   3.241   2.461 -0.1235  0.6664  2.7529
 5904WAT    EPW24338   6.278   3.309   2.436  0.1275 -0.2470  0.1760
 5905WAT      O24339   3.485   6.702   4.724 -0.0596 -0.8780  0.4941
 5905WAT     H124340   3.418   6.726   4.674  0.5437  2.0693  0.9174
 5905WAT     H224341   3.454   6.713   4.805  0.5917 -0.5112  0.6984
 5905WAT    EPW24342   3.470   6.707   4.729  0.1257 -0.3884  0.5868
 5906WAT      O24343   5.266   7.011   5.248  0.0739 -0.2327  0.6863
 5906WAT     H124344   5.205   7.013   5.186 -0.9005  0.8102  1.6056
 5906WAT     H224345   5.222   6.982   5.318  1.3394 -2.1899  0.7188
 5906WAT    EPW24346   5.250   7.007   5.249  0.1169 -0.3678  0.8269
 5907WAT      O24347   0.575   3.870   3.688  0.0578 -0.3192  0.5724
 5907WAT     H124348   0.550   3.875   3.604  0.1585  0.0477  0.5642
 5907WAT     H224349   0.660   3.886   3.686  0.1831 -0.9360  0.6778
 5907WAT    EPW24350   0.584   3.873   3.675  0.0912 -0.3561  0.5867
 5908WAT      O24351   6.301   1.545   0.928 -0.1741 -0.5284  0.1787
 5908WAT     H124352   6.308   1.506   1.006  0.5999 -2.1748 -0.6494
 5908WAT     H224353   6.272   1.481   0.876  1.5000 -0.1290 -1.3428
 5908WAT    EPW24354   6.298   1.530   0.932  0.1875 -0.7126 -0.1684
 5909WAT      O24355   2.194   5.883   0.347  0.6079  0.0890 -0.2748
 5909WAT     H124356   2.252   5.942   0.323 -0.2541  0.6597 -1.0099
 5909WAT     H224357   2.151   5.865   0.274 -2.2310  2.0229  0.7468
 5909WAT    EPW24358   2.196   5.889   0.333  0.0612  0.4590 -0.2325
 5910WAT      O24359   6.354   4.030   6.230 -0.0285  0.4745  0.5039
 5910WAT     H124360   6.414   3.983   6.188 -0.7067 -0.3902  0.4929
 5910WAT     H224361   6.402   4.089   6.273  0.8278 -0.0986  0.3658
 5910WAT    EPW24362   6.370   4.032   6.230 -0.0022  0.2621  0.4819
 5911WAT      O24363   2.803   1.768   1.112  0.3789 -0.2442  0.0309
 5911WAT     H124364   2.788   1.721   1.040  1.0990 -0.5698  0.0788
 5911WAT     H224365   2.887   1.789   1.104 -0.0901  1.6344 -0.3307
 5911WAT    EPW24366   2.813   1.764   1.100  0.4160 -0.0148 -0.0155
 5912WAT      O24367   3.033   0.450   3.863  1.0108  0.5011  0.2390
 5912WAT     H124368   2.988   0.463   3.790 -0.0815 -0.6406  0.6725
 5912WAT     H224369   3.002   0.374   3.893  2.0153  0.5402  1.4644
 5912WAT    EPW24370   3.022   0.441   3.856  0.9978  0.3382  0.4841
 5913WAT      O24371   4.478   1.896   1.774  0.4920 -0.0331  0.5681
 5913WAT     H124372   4.522   1.914   1.701 -1.4110  1.2803 -0.3170
 5913WAT     H224373   4.442   1.973   1.796  1.8147 -0.0952  3.5239
 5913WAT    EPW24374   4.479   1.910   1.766  0.4063  0.1517  0.8740
 5914WAT      O24375   4.652   2.640   1.670 -0.1501 -0.3559  0.2720
 5914WAT     H124376   4.729   2.628   1.632  0.2985  0.0405  1.0411
 5914WAT     H224377   4.598   2.655   1.603  0.6904  0.7034 -0.1910
 5914WAT    EPW24378   4.655   2.640   1.655  0.0403 -0.1409  0.3173
 5915WAT      O24379   3.141   1.524   4.213 -0.9260  0.2052  0.4645
 5915WAT     H124380   3.129   1.451   4.260 -1.3512 -0.2379 -0.3133
 5915WAT     H224381   3.095   1.584   4.256 -0.5046  0.0409  1.1599
 5915WAT    EPW24382   3.133   1.522   4.226 -0.9265  0.1155  0.4524
 5916WAT      O24383   2.875   5.334   1.212  0.0022  0.3413 -0.1506
 5916WAT     H124384   2.804   5.288   1.192 -1.4033  2.4952 -0.4499
 5916WAT     H224385   2.941   5.285   1.182 -1.4715 -0.8013 -1.6791
 5916WAT    EPW24386   2.875   5.320   1.205 -0.4231  0.4907 -0.4206
 5917WAT      O24387   3.868   1.304   2.469  0.0889 -0.5662 -0.7182
 5917WAT     H124388   3.905   1.354   2.531 -2.5130 -0.3294  0.7822
 5917WAT     H224389   3.865   1.356   2.400 -0.8684  0.7465  0.2687
 5917WAT    EPW24390   3.873   1.319   2.468 -0.4368 -0.3373 -0.3508
 5918WAT      O24391   0.164   5.954   1.294  0.1747  0.2455 -0.0467
 5918WAT     H124392   0.123   5.952   1.371  0.6278  0.6382  0.2136
 5918WAT     H224393   0.110   5.913   1.241 -0.2311  0.1297  0.4466
 5918WAT    EPW24394   0.150   5.948   1.298  0.1817  0.2864  0.0646
 5919WAT      O24395   0.536   3.233   0.314 -0.2882 -0.7305  0.2558
 5919WAT     H124396   0.550   3.278   0.387 -2.5842  1.3127 -0.4439
 5919WAT     H224397   0.603   3.254   0.263  0.6381 -1.1443  1.2698
 5919WAT    EPW24398   0.548   3.243   0.317 -0.4905 -0.4898  0.3022
 5920WAT      O24399   3.742   3.176   4.596 -0.2497 -0.2488 -0.0298
 5920WAT     H124400   3.658   3.180   4.617 -0.5034  0.1165 -1.0702
 5920WAT     H224401   3.782   3.161   4.673 -1.2956 -1.0177  0.3894
 5920WAT    EPW24402   3.736   3.174   4.611 -0.4416 -0.3084 -0.1215
 5921WAT      O24403   0.286   0.113   2.911  0.2266 -0.1146 -0.0186
 5921WAT     H124404   0.269   0.176   2.969 -1.0114 -1.2817  0.9523
 5921WAT     H224405   0.263   0.149   2.835  1.1098  1.1581  0.2850
 5921WAT    EPW24406   0.280   0.128   2.908  0.1742 -0.0990  0.1697
 5922WAT      O24407   3.644   7.071   4.382  0.1983 -0.2252 -0.1930
 5922WAT     H124408   3.722   7.072   4.420 -0.8131 -1.3176  2.0991
 5922WAT     H224409   3.621   6.987   4.384 -1.6810  0.2614  0.6478
 5922WAT    EPW24410   3.652   7.058   4.388 -0.2287 -0.3147  0.2698
 5923WAT      O24411   1.151   1.884   4.106 -0.1235 -0.2292 -0.4368
 5923WAT     H124412   1.162   1.967   4.081 -0.2503 -0.0450  0.1082
 5923WAT     H224413   1.216   1.841   4.067  0.9088  0.3856  0.5637
 5923WAT    EPW24414   1.162   1.890   4.096  0.0103 -0.1111 -0.2085
 5924WAT      O24415   1.629   0.701   3.771  0.5972 -0.7273 -0.3889
 5924WAT     H124416   1.569   0.669   3.825 -0.3330  1.5706  0.0464
 5924WAT     H224417   1.700   0.709   3.822  0.3101 -0.4533 -0.0251
 5924WAT    EPW24418   1.631   0.698   3.786  0.4174 -0.3474 -0.2708
 5925WAT      O24419   1.520   0.496   2.711 -0.1404  0.1929 -0.3276
 5925WAT     H124420   1.596   0.529   2.738  0.7772 -1.3005 -0.9113
 5925WAT     H224421   1.544   0.427   2.663 -1.8920 -0.6317 -0.1036
 5925WAT    EPW24422   1.535   0.490   2.708 -0.2636 -0.1495 -0.3807
 5926WAT      O24423   0.819   5.364   2.324  0.4706  0.1773  0.1239
 5926WAT     H124424   0.884   5.329   2.370 -0.3125  0.5450  1.5793
 5926WAT     H224425   0.822   5.321   2.249  1.0984 -1.2541  0.9158
 5926WAT    EPW24426   0.829   5.353   2.320  0.4476  0.0202  0.4558
 5927WAT      O24427   6.831   1.628   4.930  0.1726  0.3264 -0.1305
 5927WAT     H124428   6.820   1.708   4.896  0.5366  0.5760  0.3224
 5927WAT     H224429   6.778   1.628   4.999  0.1951  0.1867 -0.1134
 5927WAT    EPW24430   6.822   1.640   4.935  0.2297  0.3426 -0.0611
 5928WAT      O24431   1.546   7.181   0.421  0.2742 -0.5530  0.5468
 5928WAT     H124432   1.472   7.176   0.466  0.6552 -1.1627  1.1365
 5928WAT     H224433   1.597   7.232   0.471  0.4747 -0.6930  0.4856
 5928WAT    EPW24434   1.543   7.188   0.435  0.3601 -0.6637  0.6249
 5929WAT      O24435   0.728   4.527   0.509 -0.1817 -0.1146  0.0556
 5929WAT     H124436   0.711   4.590   0.567  0.5637 -0.8164  1.0558
 5929WAT     H224437   0.725   4.454   0.556 -0.8057 -0.8353 -1.0452
 5929WAT    EPW24438   0.725   4.526   0.524 -0.1638 -0.3247  0.0407
 5930WAT      O24439   4.989   6.895   1.242 -0.0024  0.4997  0.1367
 5930WAT     H124440   5.025   6.973   1.229  1.5370 -0.1808  0.0827
 5930WAT     H224441   5.037   6.842   1.193 -0.1702 -0.6842  1.2107
 5930WAT    EPW24442   5.001   6.899   1.233  0.2002  0.2243  0.2874
 5931WAT      O24443   6.612   6.970   3.275  0.4282  0.4912  0.4804
 5931WAT     H124444   6.678   6.981   3.219  0.8820 -0.8441  0.7094
 5931WAT     H224445   6.543   7.000   3.231  1.1968  2.1356  0.3250
 5931WAT    EPW24446   6.611   6.976   3.260  0.6088  0.5368  0.4913
 5932WAT      O24447   1.435   1.216   1.631 -0.3295 -0.2289  0.2804
 5932WAT     H124448   1.390   1.146   1.657  0.1176 -1.2403 -1.4688
 5932WAT     H224449   1.506   1.182   1.593 -0.8388  1.0646 -2.0024
 5932WAT    EPW24450   1.439   1.201   1.629 -0.3387 -0.1872 -0.3152
 5933WAT      O24451   1.223   5.604   5.847  0.1808 -0.0352  0.3482
 5933WAT     H124452   1.161   5.543   5.845 -0.7600  0.8304  1.5588
 5933WAT     H224453   1.216   5.643   5.769 -0.2490 -0.4721  0.1639
 5933WAT    EPW24454   1.213   5.601   5.835 -0.0217  0.0281  0.4998
 5934WAT      O24455   5.467   5.705   4.712 -0.4020  0.0821 -0.0898
 5934WAT     H124456   5.447   5.675   4.792 -1.6499  1.5361  0.1899
 5934WAT     H224457   5.499   5.785   4.728 -1.3539  0.6770 -1.0814
 5934WAT    EPW24458   5.469   5.712   4.726 -0.7270  0.3848 -0.1950
 5935WAT      O24459   2.122   2.329   0.862 -0.4509 -0.1301  0.1609
 5935WAT     H124460   2.205   2.305   0.875 -0.2264  0.3137 -0.4300
 5935WAT     H224461   2.077   2.257   0.880  0.1093 -0.5712 -0.1839
 5935WAT    EPW24462   2.127   2.315   0.867 -0.3350 -0.1297  0.0227
 5936WAT      O24463   4.942   5.757   5.276 -0.1152 -0.3556  0.2124
 5936WAT     H124464   4.878   5.739   5.220 -1.4435 -0.6051  1.7258
 5936WAT     H224465   4.900   5.775   5.350  1.5226  1.1248  0.8495
 5936WAT    EPW24466   4.927   5.757   5.279 -0.0695 -0.1738  0.5301
 5937WAT      O24467   3.186   0.142   3.212 -0.4085 -0.2625 -0.5867
 5937WAT     H124468   3.172   0.063   3.247 -1.7596  0.1890 -0.0194
 5937WAT     H224469   3.183   0.195   3.281  5.1885  0.0113 -0.1367
 5937WAT    EPW24470   3.183   0.138   3.228  0.2187 -0.1554 -0.4364
 5938WAT      O24471   6.234   0.851   7.154 -0.3623  0.3830  0.5464
 5938WAT     H124472   6.319   0.870   7.158 -0.4779  1.2810 -0.7212
 5938WAT     H224473   6.221   0.831   7.070 -1.4769  0.6579  0.6356
 5938WAT    EPW24474   6.245   0.851   7.142 -0.5440  0.5563  0.3723
 5939WAT      O24475   5.171   4.651   0.676 -0.7369 -0.2696 -0.5611
 5939WAT     H124476   5.209   4.654   0.598 -0.6323  0.0529 -0.4995
 5939WAT     H224477   5.111   4.588   0.668  0.0720 -1.0562 -0.5329
 5939WAT    EPW24478   5.168   4.642   0.664 -0.6020 -0.3381 -0.5478
 5940WAT      O24479   7.273   1.266   2.640  0.5938  0.3585 -0.2971
 5940WAT     H124480   7.212   1.310   2.684 -1.0424  0.4350 -2.4681
 5940WAT     H224481   7.271   1.187   2.677  0.2413  0.7700  0.5994
 5940WAT    EPW24482   7.264   1.261   2.652  0.3000  0.4306 -0.4854
 5941WAT      O24483   6.373   1.941   3.629  0.4218  0.4355  0.1912
 5941WAT     H124484   6.437   1.987   3.592  2.0143 -0.3465  1.8232
 5941WAT     H224485   6.352   1.988   3.699 -0.4628  0.4345 -0.0619
 5941WAT    EPW24486   6.379   1.955   3.634  0.5263  0.3198  0.3949
 5942WAT      O24487   0.934   5.089   6.432  0.1468  0.2591  0.4558
 5942WAT     H124488   0.973   5.156   6.393 -0.0502 -0.2119 -0.5902
 5942WAT     H224489   0.882   5.056   6.370  1.0579 -1.5210  0.5539
 5942WAT    EPW24490   0.932   5.094   6.417  0.2523 -0.0734  0.3158
 5943WAT      O24491   5.409   1.224   6.914 -0.6583  0.2062 -0.6188
 5943WAT     H124492   5.444   1.174   6.852 -0.3923  1.8529 -1.8949
 5943WAT     H224493   5.357   1.170   6.958 -0.0171 -1.2678 -1.6119
 5943WAT    EPW24494   5.406   1.209   6.911 -0.5243  0.2317 -0.9540
 5944WAT      O24495   6.673   0.495   2.247 -0.0080  0.4445 -0.2554
 5944WAT     H124496   6.692   0.546   2.315  0.2142 -2.0535  1.6939
 5944WAT     H224497   6.585   0.494   2.246 -0.0184 -0.0853  0.4931
 5944WAT    EPW24498   6.663   0.503   2.257  0.0233 -0.0027  0.1431
 5945WAT      O24499   2.651   0.186   0.761  0.3402  0.2562 -0.0067
 5945WAT     H124500   2.565   0.183   0.755  0.3572  0.4762 -0.3944
 5945WAT     H224501   2.676   0.219   0.684  0.6037  2.5528  0.9950
 5945WAT    EPW24502   2.642   0.190   0.749  0.3816  0.6279  0.0840
 5946WAT      O24503   6.896   6.615   7.179 -0.0965 -0.3294 -0.0690
 5946WAT     H124504   6.924   6.642   7.257  0.7719  1.5839 -0.9885
 5946WAT     H224505   6.923   6.532   7.175  1.1990  0.0127  1.0300
 5946WAT    EPW24506   6.904   6.606   7.190  0.2232  0.0037 -0.0425
 5947WAT      O24507   1.153   3.762   4.971 -0.0046  0.0183  0.6162
 5947WAT     H124508   1.077   3.775   4.930  1.2101  1.6744 -1.3148
 5947WAT     H224509   1.156   3.676   4.983 -1.0969 -0.3927 -1.5706
 5947WAT    EPW24510   1.142   3.752   4.967  0.0135  0.2022  0.0080
 5948WAT      O24511   3.041   3.414   0.258  0.2714 -0.6855 -0.2545
 5948WAT     H124512   3.031   3.468   0.326  2.8668 -0.4485  0.0518
 5948WAT     H224513   3.055   3.336   0.296  0.5742 -0.7762 -0.5480
 5948WAT    EPW24514   3.041   3.410   0.274  0.6995 -0.6639 -0.2526
 5949WAT      O24515   0.588   0.838   6.934 -0.1847 -0.0207  0.0786
 5949WAT     H124516   0.608   0.768   6.886  0.3250 -0.3275  0.7236
 5949WAT     H224517   0.575   0.900   6.875  0.8614 -0.2874 -0.4533
 5949WAT    EPW24518   0.589   0.837   6.918  0.0452 -0.1054  0.0953
 5950WAT      O24519   4.053   1.608   1.184  0.6964  0.6847 -0.1218
 5950WAT     H124520   4.063   1.674   1.128 -1.2260  1.3508  0.2800
 5950WAT     H224521   4.067   1.537   1.134  1.5954  1.3187 -0.8145
 5950WAT    EPW24522   4.057   1.607   1.168  0.5452  0.8768 -0.1647
 5951WAT      O24523   0.670   3.385   6.455  0.9624 -0.5491 -0.3123
 5951WAT     H124524   0.605   3.329   6.438  2.0870 -2.0151  0.0213
 5951WAT     H224525   0.655   3.451   6.400 -0.4236 -1.1530 -0.7036
 5951WAT    EPW24526   0.658   3.386   6.444  0.9238 -0.8548 -0.3208
 5952WAT      O24527   3.708   6.717   3.211  0.2706 -0.1816  0.5236
 5952WAT     H124528   3.689   6.765   3.141 -1.0520  0.1310  1.0731
 5952WAT     H224529   3.686   6.636   3.188  0.5904 -0.2070  0.3054
 5952WAT    EPW24530   3.702   6.712   3.198  0.1225 -0.1392  0.5725
 5953WAT      O24531   1.832   5.295   5.315  0.4136  0.1999  0.0519
 5953WAT     H124532   1.838   5.329   5.235 -1.5463  0.5654  0.0249
 5953WAT     H224533   1.892   5.340   5.361  3.0389 -1.3667 -1.5508
 5953WAT    EPW24534   1.842   5.307   5.310  0.5119  0.0225 -0.1888
 5954WAT      O24535   4.744   4.590   3.276 -0.3234  0.8887  0.0401
 5954WAT     H124536   4.754   4.671   3.309  1.1501  0.1779  1.4981
 5954WAT     H224537   4.753   4.538   3.345  1.2697 -0.6277 -1.2003
 5954WAT    EPW24538   4.747   4.594   3.291  0.1296  0.5597  0.0723
 5955WAT      O24539   1.909   3.166   4.316  0.0202 -0.0272 -0.5530
 5955WAT     H124540   1.874   3.153   4.395 -0.2784  0.0089 -0.6783
 5955WAT     H224541   1.937   3.249   4.320 -1.8143  0.6587 -1.1650
 5955WAT    EPW24542   1.908   3.176   4.328 -0.2949  0.0794 -0.6619
 5956WAT      O24543   0.804   6.851   7.383 -0.0203  0.2588  0.4822
 5956WAT     H124544   0.864   6.794   7.356 -1.2469 -1.0326  0.3415
 5956WAT     H224545   0.754   6.864   7.312  0.9885  2.5768  0.1312
 5956WAT    EPW24546   0.805   6.844   7.369 -0.0525  0.4105  0.4096
 5957WAT      O24547   5.224   1.625   0.924 -0.1613  0.0371 -0.2566
 5957WAT     H124548   5.266   1.635   0.999 -0.4384  0.8376 -0.1970
 5957WAT     H224549   5.197   1.706   0.905  0.6713  0.0163 -1.6622
 5957WAT    EPW24550   5.226   1.638   0.932 -0.0793  0.1523 -0.4554
 5958WAT      O24551   1.324   5.792   0.851 -0.2844  0.1203  0.5410
 5958WAT     H124552   1.396   5.824   0.815 -0.1423  0.4283  1.0807
 5958WAT     H224553   1.295   5.858   0.901 -2.7057  1.2602 -2.0723
 5958WAT    EPW24554   1.330   5.807   0.853 -0.6211  0.3342  0.2347
 5959WAT      O24555   0.849   5.053   5.232 -0.0427 -0.0046  0.3641
 5959WAT     H124556   0.776   5.101   5.242 -0.9382 -1.2728  0.2154
 5959WAT     H224557   0.836   4.985   5.285  0.1353 -1.2237 -1.0917
 5959WAT    EPW24558   0.836   5.050   5.241 -0.1487 -0.3720  0.1271
 5960WAT      O24559   5.937   2.216   2.918  0.2378 -0.5937  0.2836
 5960WAT     H124560   5.955   2.300   2.930 -1.7866 -0.2090  1.1202
 5960WAT     H224561   5.955   2.203   2.834 -0.3082  0.9571 -0.1164
 5960WAT    EPW24562   5.942   2.227   2.907 -0.1419 -0.3078  0.3481
 5961WAT      O24563   1.424   6.545   5.413 -0.3435  0.2936 -0.5883
 5961WAT     H124564   1.479   6.538   5.346 -1.1860  2.0388 -1.5129
 5961WAT     H224565   1.477   6.541   5.483  1.0639  2.3774 -1.4507
 5961WAT    EPW24566   1.440   6.543   5.413 -0.2600  0.8592 -0.8523
 5962WAT      O24567   5.587   0.271   6.039 -0.3838 -0.4156 -0.1335
 5962WAT     H124568   5.672   0.259   6.054 -0.2541  1.0317  0.5191
 5962WAT     H224569   5.561   0.196   6.004  1.2461 -0.7672 -0.6901
 5962WAT    EPW24570   5.596   0.258   6.036 -0.1239 -0.2537 -0.1193
 5963WAT      O24571   4.806   4.764   7.256 -0.3437  0.1794 -0.0018
 5963WAT     H124572   4.805   4.710   7.188 -0.5844  0.8394 -0.5302
 5963WAT     H224573   4.762   4.834   7.228 -0.6283  0.3786  0.9019
 5963WAT    EPW24574   4.799   4.766   7.242 -0.4213  0.3063  0.0536
 5964WAT      O24575   4.429   1.026   4.058  0.6342 -0.0351 -0.2837
 5964WAT     H124576   4.451   0.961   4.111 -0.4217 -0.8476 -0.8038
 5964WAT     H224577   4.372   0.990   4.003 -1.5275  1.7706  0.6062
 5964WAT    EPW24578   4.424   1.011   4.058  0.1589  0.1116 -0.2291
 5965WAT      O24579   6.562   0.687   4.393  0.2645 -0.3822  0.1381
 5965WAT     H124580   6.597   0.713   4.317  0.6218  0.4461  0.5751
 5965WAT     H224581   6.482   0.661   4.371  0.5180 -0.5628 -0.5948
 5965WAT    EPW24582   6.556   0.687   4.378  0.3547 -0.2865  0.0944
 5966WAT      O24583   2.972   4.134   6.603 -0.4607  0.1004 -0.3408
 5966WAT     H124584   2.890   4.143   6.632 -0.1620  3.2554 -0.2282
 5966WAT     H224585   2.998   4.059   6.640 -2.7273 -0.1139  0.9896
 5966WAT    EPW24586   2.964   4.124   6.613 -0.7514  0.5348 -0.1277
 5967WAT      O24587   5.884   0.434   6.567 -0.4033 -0.1290  0.4795
 5967WAT     H124588   5.844   0.357   6.577  0.8958 -1.2750 -2.0858
 5967WAT     H224589   5.818   0.491   6.564 -1.4147 -1.1233  2.2084
 5967WAT    EPW24590   5.868   0.431   6.568 -0.3608 -0.4452  0.3560
 5968WAT      O24591   1.099   0.081   5.877 -0.5608  0.7269 -0.2636
 5968WAT     H124592   1.130   0.160   5.899 -0.3834  1.1860 -2.0354
 5968WAT     H224593   1.169   0.039   5.847 -1.0278  0.6214 -1.2294
 5968WAT    EPW24594   1.114   0.087   5.876 -0.6036  0.7791 -0.6680
 5969WAT      O24595   2.500   1.113   3.561 -0.5223  0.4894 -0.7091
 5969WAT     H124596   2.439   1.134   3.503 -1.8076 -0.7169  0.1436
 5969WAT     H224597   2.514   1.028   3.545  0.4159  0.5783 -0.4137
 5969WAT    EPW24598   2.493   1.103   3.550 -0.5736  0.3243 -0.5395
 5970WAT      O24599   1.183   3.613   0.415  0.1284  0.3677  0.3252
 5970WAT     H124600   1.129   3.606   0.483 -0.8959 -1.4634 -0.6095
 5970WAT     H224601   1.206   3.531   0.398  3.0032  1.0422  0.4549
 5970WAT    EPW24602   1.178   3.600   0.423  0.4018  0.1968  0.2063
 5971WAT      O24603   1.491   2.805   4.061  0.1300  0.2720 -0.8486
 5971WAT     H124604   1.491   2.719   4.080 -0.0854  0.6461  1.0430
 5971WAT     H224605   1.533   2.809   3.984 -0.1433 -1.5521 -1.1335
 5971WAT    EPW24606   1.497   2.793   4.052  0.0578  0.0578 -0.6113
 5972WAT      O24607   1.828   5.720   0.189  0.0655 -0.1219  0.6854
 5972WAT     H124608   1.755   5.767   0.183 -0.4825 -1.0267  0.0017
 5972WAT     H224609   1.857   5.737   0.270  0.0580  1.6012  0.3666
 5972WAT    EPW24610   1.822   5.730   0.200 -0.0165 -0.0010  0.5373
 5973WAT      O24611   6.624   6.726   2.355  0.4028  0.2926  0.8148
 5973WAT     H124612   6.559   6.784   2.345 -0.6911 -1.2277 -2.0382
 5973WAT     H224613   6.677   6.743   2.287  3.0990  1.3897  2.9634
 5973WAT    EPW24614   6.622   6.737   2.344  0.6395  0.2301  0.7107
 5974WAT      O24615   1.695   0.122   4.263  0.2227  0.0934 -0.2983
 5974WAT     H124616   1.634   0.147   4.321  0.5073 -0.5639  0.2952
 5974WAT     H224617   1.648   0.101   4.193 -0.0807  1.4975 -0.5463
 5974WAT    EPW24618   1.679   0.122   4.261  0.2199  0.2037 -0.2473
 5975WAT      O24619   5.325   4.232   1.923 -0.3657  0.8696  0.7986
 5975WAT     H124620   5.255   4.281   1.909 -0.0558  0.8725 -1.1201
 5975WAT     H224621   5.298   4.152   1.902  0.5978  1.1238 -1.7950
 5975WAT    EPW24622   5.311   4.227   1.918 -0.1776  0.9076  0.1320
 5976WAT      O24623   3.561   5.121   7.367  0.2400  0.5338 -0.0471
 5976WAT     H124624   3.569   5.090   7.286  1.4237 -0.4290  0.3922
 5976WAT     H224625   3.573   5.050   7.417 -0.9346  1.0170  0.9750
 5976WAT    EPW24626   3.564   5.106   7.362  0.2413  0.4629  0.1688
 5977WAT      O24627   2.924   4.456   6.805 -0.8302  0.3188  0.8039
 5977WAT     H124628   2.858   4.401   6.788 -0.2473 -0.5512  1.3079
 5977WAT     H224629   2.974   4.450   6.734 -0.3202 -0.4862  1.2112
 5977WAT    EPW24630   2.922   4.447   6.792 -0.6688  0.0713  0.9385
 5978WAT      O24631   7.249   5.759   7.252  0.4158  0.3770  0.0982
 5978WAT     H124632   7.303   5.754   7.184  1.2841 -0.2731  0.7992
 5978WAT     H224633   7.236   5.675   7.273 -1.1549  0.5016 -0.2491
 5978WAT    EPW24634   7.255   5.746   7.245  0.3120  0.2994  0.1504
 5979WAT      O24635   6.369   4.527   0.201  0.1754  0.0875 -0.4301
 5979WAT     H124636   6.346   4.611   0.195 -1.2374 -0.3600 -1.8508
 5979WAT     H224637   6.456   4.531   0.210  0.3250  1.6709 -1.9928
 5979WAT    EPW24638   6.378   4.540   0.201 -0.0112  0.2553 -0.8708
 5980WAT      O24639   4.991   2.900   7.333 -0.2252 -0.3142  0.1717
 5980WAT     H124640   4.965   2.903   7.250 -1.7004 -2.1045  0.5019
 5980WAT     H224641   5.007   2.983   7.352  1.3034  0.0322 -2.2079
 5980WAT    EPW24642   4.990   2.913   7.323 -0.2173 -0.5275 -0.1310
 5981WAT      O24643   5.209   2.138   2.678 -0.0863  0.4723 -0.7391
 5981WAT     H124644   5.277   2.148   2.624 -0.3983  0.0249 -1.2289
 5981WAT     H224645   5.183   2.220   2.693  0.4107  0.6316 -0.7495
 5981WAT    EPW24646   5.215   2.152   2.672 -0.0590  0.4297 -0.8130
 5982WAT      O24647   5.820   1.226   7.209  0.0880  0.2159 -0.4786
 5982WAT     H124648   5.816   1.303   7.249  0.6178  0.5911 -1.1220
 5982WAT     H224649   5.783   1.171   7.266 -0.6119  0.9995 -0.1629
 5982WAT    EPW24650   5.814   1.229   7.223  0.0629  0.3871 -0.5270
 5983WAT      O24651   0.675   3.910   1.802 -0.2460 -0.0783 -0.0804
 5983WAT     H124652   0.751   3.951   1.816  0.2650 -0.2101 -2.2016
 5983WAT     H224653   0.695   3.826   1.817 -0.4887  0.0713  1.1945
 5983WAT    EPW24654   0.689   3.904   1.807 -0.2064 -0.0757 -0.2054
 5984WAT      O24655   3.025   5.696   1.360  0.0851 -0.1054 -0.3391
 5984WAT     H124656   3.076   5.731   1.299  0.4339 -0.7012 -0.3944
 5984WAT     H224657   3.002   5.764   1.409  1.5393  0.0743  0.1341
 5984WAT    EPW24658   3.029   5.711   1.358  0.3514 -0.1669 -0.2774
 5985WAT      O24659   5.063   2.355   4.800 -0.1912 -0.6286 -0.3608
 5985WAT     H124660   5.117   2.287   4.806 -0.4594 -0.8165 -0.0132
 5985WAT     H224661   5.003   2.329   4.742  0.2012 -0.3422 -0.8987
 5985WAT    EPW24662   5.062   2.341   4.792 -0.1728 -0.6141 -0.3889
 5986WAT      O24663   3.078   3.877   5.022  0.7501  0.1597  0.0535
 5986WAT     H124664   3.104   3.846   5.099  0.8819 -0.4937 -0.2424
 5986WAT     H224665   3.152   3.885   4.977  0.6673  0.4763 -0.0294
 5986WAT    EPW24666   3.093   3.873   5.026  0.7573  0.1100 -0.0025
 5987WAT      O24667   4.113   2.537   5.294 -0.2792  0.0188 -0.2713
 5987WAT     H124668   4.124   2.558   5.378  0.8356 -2.3123  0.2431
 5987WAT     H224669   4.186   2.568   5.256 -0.8747  1.2531 -0.4792
 5987WAT    EPW24670   4.126   2.545   5.301 -0.2025 -0.1432 -0.2261
 5988WAT      O24671   5.246   1.537   2.019 -0.0904 -0.5048 -0.0517
 5988WAT     H124672   5.188   1.493   2.067 -1.2513  0.5103 -0.4521
 5988WAT     H224673   5.205   1.546   1.942  1.5359 -1.7247 -1.1182
 5988WAT    EPW24674   5.231   1.532   2.014 -0.0216 -0.5351 -0.2684
 5989WAT      O24675   1.216   5.096   1.944 -0.0599 -0.2185 -0.1244
 5989WAT     H124676   1.206   5.172   1.903 -0.7001 -0.7856 -1.0616
 5989WAT     H224677   1.193   5.115   2.027  0.6274  0.7867 -0.1391
 5989WAT    EPW24678   1.211   5.110   1.950 -0.0530 -0.1538 -0.2650
 5990WAT      O24679   2.024   3.182   3.640 -0.0352 -0.2071 -0.1828
 5990WAT     H124680   2.049   3.106   3.674  2.1310  1.4304  2.3327
 5990WAT     H224681   2.092   3.205   3.591 -0.5972  0.2211 -0.7788
 5990WAT    EPW24682   2.038   3.174   3.638  0.2018  0.0980  0.1007
 5991WAT      O24683   5.231   0.517   2.753  0.2151 -0.4686 -0.2588
 5991WAT     H124684   5.151   0.548   2.769  1.0053  1.8572 -0.4449
 5991WAT     H224685   5.283   0.580   2.784  1.9683 -1.6443 -0.7082
 5991WAT    EPW24686   5.227   0.531   2.760  0.5908 -0.2987 -0.3527
 5992WAT      O24687   3.100   4.358   5.726  0.4821  0.1752  0.0126
 5992WAT     H124688   3.162   4.299   5.710  0.9506  0.5833  0.2881
 5992WAT     H224689   3.059   4.366   5.650  0.8589  0.0037 -0.2114
 5992WAT    EPW24690   3.103   4.351   5.713  0.6070  0.2101  0.0202
 5993WAT      O24691   4.076   3.256   5.600 -0.0246  0.4353 -0.7258
 5993WAT     H124692   4.023   3.231   5.665  0.1069 -2.5768 -1.5965
 5993WAT     H224693   4.047   3.209   5.532  2.2752  0.5035 -1.8342
 5993WAT    EPW24694   4.064   3.245   5.600  0.3346  0.0004 -1.0181
 5994WAT      O24695   3.224   1.155   2.856 -0.3108 -0.5824  0.5483
 5994WAT     H124696   3.241   1.154   2.941 -0.0311 -2.0325  0.5100
 5994WAT     H224697   3.248   1.075   2.830  1.2500  0.3691 -1.2208
 5994WAT    EPW24698   3.230   1.143   2.865 -0.0389 -0.6560  0.2813
 5995WAT      O24699   7.033   0.572   1.222  0.1276  0.2011  0.0985
 5995WAT     H124700   6.988   0.566   1.297  0.5497 -0.7654  0.2834
 5995WAT     H224701   7.104   0.617   1.244 -0.1954  0.7431  0.0580
 5995WAT    EPW24702   7.037   0.578   1.237  0.1422  0.1384  0.1198
 5996WAT      O24703   6.106   6.634   3.104 -0.1388  0.8311  0.1458
 5996WAT     H124704   6.099   6.661   3.022 -0.0119  1.2189  0.2599
 5996WAT     H224705   6.192   6.637   3.120  0.2075 -2.0828 -0.6431
 5996WAT    EPW24706   6.118   6.639   3.095 -0.0689  0.4580  0.0461
 5997WAT      O24707   3.778   0.236   7.218 -0.1732  0.1640 -0.4414
 5997WAT     H124708   3.718   0.239   7.281 -0.2383 -1.0127 -0.4179
 5997WAT     H224709   3.826   0.166   7.238 -0.0841 -0.1302 -1.5798
 5997WAT    EPW24710   3.776   0.226   7.230 -0.1697 -0.0533 -0.6061
 5998WAT      O24711   6.969   6.711   4.020 -0.1677 -0.3625 -0.2673
 5998WAT     H124712   6.977   6.798   4.016 -0.2488 -0.2402  1.4719
 5998WAT     H224713   7.050   6.683   4.004  0.0605  0.0794  0.0792
 5998WAT    EPW24714   6.982   6.720   4.017 -0.1460 -0.2792  0.0408
 5999WAT      O24715   3.098   1.306   6.250  0.6366 -0.3634  0.0956
 5999WAT     H124716   3.030   1.257   6.272  0.4093  0.2936  0.8884
 5999WAT     H224717   3.080   1.384   6.284  1.6680 -0.1107  0.1064
 5999WAT    EPW24718   3.086   1.310   6.258  0.7554 -0.2290  0.2143
 6000WAT      O24719   3.698   4.457   3.643  0.1523 -0.0329  0.8053
 6000WAT     H124720   3.653   4.418   3.707  2.1665 -0.5610  1.9951
 6000WAT     H224721   3.758   4.504   3.686  1.0253  0.2851 -0.6950
 6000WAT    EPW24722   3.700   4.458   3.659  0.5788 -0.0640  0.7594
 6001WAT      O24723   4.145   6.285   2.504 -0.2901  0.1716 -0.6632
 6001WAT     H124724   4.207   6.326   2.549  0.4619 -0.6496 -0.9213
 6001WAT     H224725   4.094   6.249   2.566  1.7131 -2.4307 -0.3461
 6001WAT    EPW24726   4.147   6.286   2.520  0.1169 -0.3341 -0.6545
 6002WAT      O24727   5.863   2.432   5.770  0.5800  0.5367  0.1012
 6002WAT     H124728   5.870   2.479   5.697 -0.6989 -0.8000 -0.9713
 6002WAT     H224729   5.935   2.451   5.815  0.2697  3.2001 -0.4075
 6002WAT    EPW24730   5.875   2.442   5.766  0.3452  0.7327 -0.1324
 6003WAT      O24731   5.424   1.980   5.322 -0.0712 -0.5167  0.0761
 6003WAT     H124732   5.337   1.977   5.308 -0.2365  1.3332  0.4076
 6003WAT     H224733   5.430   2.005   5.405  0.8103 -1.8322  0.4235
 6003WAT    EPW24734   5.412   1.983   5.332  0.0346 -0.4377  0.1764
 6004WAT      O24735   6.784   0.403   6.465 -0.0710 -0.6650 -0.1109
 6004WAT     H124736   6.868   0.399   6.490 -0.2091 -2.1502  0.1829
 6004WAT     H224737   6.763   0.320   6.451 -2.2741 -0.6822  2.4212
 6004WAT    EPW24738   6.793   0.390   6.467 -0.4168 -0.8869  0.3065
 6005WAT      O24739   4.238   4.031   5.528 -0.1066 -0.0577  0.0157
 6005WAT     H124740   4.233   4.027   5.441  0.1858 -0.4543  0.0144
 6005WAT     H224741   4.185   3.967   5.555  0.2323 -0.2975  0.1166
 6005WAT    EPW24742   4.230   4.021   5.519 -0.0133 -0.1517  0.0304
 6006WAT      O24743   2.619   0.073   4.401 -0.1208  0.1910 -0.3905
 6006WAT     H124744   2.666   0.003   4.421  0.2959  0.5627 -0.0520
 6006WAT     H224745   2.540   0.055   4.434  0.7468  1.1564  2.4843
 6006WAT    EPW24746   2.614   0.060   4.408  0.0689  0.3885  0.0841
 6007WAT      O24747   3.904   0.473   4.671  0.1448 -0.3827  0.1427
 6007WAT     H124748   3.874   0.479   4.589  0.1004 -1.6869  0.0482
 6007WAT     H224749   3.832   0.475   4.720  0.0048 -1.5513  0.0211
 6007WAT    EPW24750   3.889   0.474   4.666  0.1176 -0.7480  0.1108
 6008WAT      O24751   4.276   0.489   4.107 -0.3316 -0.1005  0.1153
 6008WAT     H124752   4.271   0.552   4.167  1.4305 -0.7658  1.0130
 6008WAT     H224753   4.351   0.449   4.124 -0.8427 -1.7430 -1.1559
 6008WAT    EPW24754   4.286   0.492   4.118 -0.1468 -0.4414  0.0602
 6009WAT      O24755   0.104   6.276   0.107  0.0890  0.3397 -0.1025
 6009WAT     H124756   0.119   6.219   0.043 -3.0111  0.4871 -1.1397
 6009WAT     H224757   0.068   6.228   0.170 -1.8163  0.9088 -0.6727
 6009WAT    EPW24758   0.101   6.261   0.107 -0.6504  0.4456 -0.3399
 6010WAT      O24759   1.998   2.565   0.958 -0.2559 -0.3110 -0.5876
 6010WAT     H124760   2.024   2.486   0.930  0.3887  0.0466 -1.0280
 6010WAT     H224761   1.928   2.547   1.008  0.6038 -1.2780  0.3218
 6010WAT    EPW24762   1.991   2.550   0.961 -0.0337 -0.4010 -0.5183
 6011WAT      O24763   6.139   0.320   1.403 -0.4232 -0.0292 -0.0540
 6011WAT     H124764   6.166   0.290   1.325 -1.2202 -0.5141 -0.1582
 6011WAT     H224765   6.130   0.247   1.451  1.1441  0.3506  0.8610
 6011WAT    EPW24766   6.141   0.304   1.398 -0.3094 -0.0448  0.0658
 6012WAT      O24767   4.407   5.782   5.705 -0.4990  0.8363 -0.8080
 6012WAT     H124768   4.481   5.829   5.708 -0.4252  0.6768  0.3153
 6012WAT     H224769   4.423   5.723   5.644  0.7132  0.1678  0.1200
 6012WAT    EPW24770   4.420   5.781   5.697 -0.3091  0.7140 -0.5050
 6013WAT      O24771   4.552   6.100   0.151  0.4711  0.5184  0.4044
 6013WAT     H124772   4.606   6.155   0.191 -1.9535  1.8217  2.1334
 6013WAT     H224773   4.473   6.135   0.163 -1.0258 -2.3512 -0.0872
 6013WAT    EPW24774   4.548   6.113   0.159 -0.1082  0.2870  0.5872
 6014WAT      O24775   3.740   2.817   1.732  0.4181 -0.3266  0.5322
 6014WAT     H124776   3.720   2.859   1.806  2.1927  1.2365  0.1867
 6014WAT     H224777   3.821   2.789   1.745  0.0475 -1.8104 -0.0979
 6014WAT    EPW24778   3.749   2.819   1.745  0.6255 -0.3149  0.3881
 6015WAT      O24779   2.321   6.128   4.852 -0.5086  0.5874 -0.2069
 6015WAT     H124780   2.384   6.082   4.891 -0.3567 -0.1707 -1.2787
 6015WAT     H224781   2.272   6.157   4.918 -1.4144 -2.2793  0.5535
 6015WAT    EPW24782   2.323   6.125   4.867 -0.6199  0.0519 -0.2529
 6016WAT      O24783   4.997   6.682   2.288 -0.2824  0.1658  0.1516
 6016WAT     H124784   5.011   6.745   2.229 -0.9217 -1.3424 -1.7124
 6016WAT     H224785   5.022   6.609   2.247  0.3901 -0.8496  2.2143
 6016WAT    EPW24786   5.003   6.680   2.274 -0.2775 -0.2070  0.1810
 6017WAT      O24787   0.091   3.450   7.142  0.3561  0.4856 -0.1628
 6017WAT     H124788   0.135   3.525   7.146  1.0213  0.1193 -0.4491
 6017WAT     H224789   0.101   3.424   7.060  0.5945 -0.1892  0.0740
 6017WAT    EPW24790   0.099   3.457   7.130  0.4896  0.3318 -0.1701
 6018WAT      O24791   6.026   7.161   1.260  0.0815 -0.0385 -0.4130
 6018WAT     H124792   5.965   7.099   1.261 -1.0062  1.0020 -0.4118
 6018WAT     H224793   6.074   7.142   1.189 -1.0805 -0.0988 -1.2065
 6018WAT    EPW24794   6.024   7.149   1.250 -0.2508  0.1063 -0.5300
 6019WAT      O24795   6.623   2.844   1.648  0.2033  0.2026  0.6867
 6019WAT     H124796   6.595   2.825   1.568  1.6074  0.5108  0.0965
 6019WAT     H224797   6.687   2.901   1.635 -0.7393  1.7004  2.1494
 6019WAT    EPW24798   6.628   2.850   1.635  0.2715  0.4694  0.8156
 6020WAT      O24799   6.216   3.934   0.999  0.5456 -0.1510 -0.1480
 6020WAT     H124800   6.247   3.926   0.918  1.3520  0.9421  0.0264
 6020WAT     H224801   6.286   3.956   1.046 -0.2473  1.2075  0.4796
 6020WAT    EPW24802   6.231   3.936   0.994  0.5476  0.2111 -0.0295
 6021WAT      O24803   2.611   5.311   3.055  0.0033  0.0263  0.0547
 6021WAT     H124804   2.630   5.273   2.978 -1.4929 -0.5659 -0.0597
 6021WAT     H224805   2.549   5.259   3.088 -0.9231  1.4634  0.6672
 6021WAT    EPW24806   2.604   5.298   3.048 -0.3546  0.1511  0.1283
 6022WAT      O24807   1.666   5.434   5.511 -0.6419 -0.1123 -0.4121
 6022WAT     H124808   1.711   5.392   5.449  3.0731  1.5471  0.8722
 6022WAT     H224809   1.636   5.370   5.562  1.1467 -1.3639 -0.8516
 6022WAT    EPW24810   1.668   5.418   5.509  0.1711 -0.0521 -0.2873
 6023WAT      O24811   5.332   7.141   7.344 -0.3229 -0.0118 -0.0806
 6023WAT     H124812   5.301   7.089   7.282 -2.3692  1.1740 -0.1434
 6023WAT     H224813   5.305   7.105   7.418  1.6282 -1.1071  0.1846
 6023WAT    EPW24814   5.324   7.128   7.345 -0.3369  0.0016 -0.0507
 6024WAT      O24815   1.660   1.451   2.975  0.1921  0.5808 -0.0844
 6024WAT     H124816   1.663   1.534   2.949  0.7584  0.5781 -0.0445
 6024WAT     H224817   1.576   1.438   2.995  0.3553  1.6655  1.5369
 6024WAT    EPW24818   1.648   1.461   2.974  0.2998  0.7406  0.1610
 6025WAT      O24819   6.016   0.721   0.658 -0.7152 -0.0423 -0.0547
 6025WAT     H124820   5.944   0.770   0.663  0.0181  0.9393  1.4040
 6025WAT     H224821   6.077   0.777   0.629 -0.1546 -0.4173  0.3749
 6025WAT    EPW24822   6.015   0.736   0.654 -0.5241  0.0473  0.2242
 6026WAT      O24823   6.324   4.570   1.592  0.0255 -0.2253  0.2505
 6026WAT     H124824   6.300   4.653   1.580  0.0247 -0.4865 -1.9628
 6026WAT     H224825   6.252   4.533   1.625  0.1062  0.6600  1.4981
 6026WAT    EPW24826   6.310   4.577   1.596  0.0373 -0.1331  0.1078
 6027WAT      O24827   6.298   3.426   3.320  0.0407 -0.4293 -0.2384
 6027WAT     H124828   6.335   3.505   3.316 -0.1349 -0.2620  0.9212
 6027WAT     H224829   6.284   3.405   3.237 -1.0306  1.3028 -0.5268
 6027WAT    EPW24830   6.302   3.435   3.307 -0.1435 -0.1487 -0.1097
 6028WAT      O24831   3.918   1.254   2.810  0.1231  0.4722 -0.9997
 6028WAT     H124832   3.989   1.241   2.859 -0.0008  0.8111 -0.7248
 6028WAT     H224833   3.873   1.314   2.855 -2.2092 -2.3564  0.8333
 6028WAT    EPW24834   3.922   1.261   2.824 -0.2397  0.1044 -0.6883
 6029WAT      O24835   3.812   3.263   5.056  0.1167  0.3195 -0.1344
 6029WAT     H124836   3.782   3.345   5.049  2.0582  1.2027  0.7812
 6029WAT     H224837   3.877   3.271   5.115  0.4105 -1.8767 -0.0800
 6029WAT    EPW24838   3.817   3.276   5.064  0.4469  0.1255  0.0089
 6030WAT      O24839   0.428   5.895   1.408  0.2737 -0.6166 -0.1598
 6030WAT     H124840   0.414   5.850   1.482 -0.3805 -1.3920 -0.7355
 6030WAT     H224841   0.348   5.912   1.379  0.4809  1.3690  0.2627
 6030WAT    EPW24842   0.414   5.891   1.415  0.2076 -0.4378 -0.1825
 6031WAT      O24843   4.038   6.828   3.438  0.3528 -0.4620  0.2835
 6031WAT     H124844   3.997   6.811   3.513 -0.7544  1.2466  0.1379
 6031WAT     H224845   4.041   6.751   3.397 -1.0074 -0.9978  1.1438
 6031WAT    EPW24846   4.032   6.814   3.443 -0.0117 -0.2888  0.3891
 6032WAT      O24847   3.058   2.723   4.423  0.2301 -0.3730 -0.7595
 6032WAT     H124848   3.046   2.641   4.395 -2.8643 -0.9880  1.7300
 6032WAT     H224849   3.090   2.712   4.503 -0.8264  0.7903 -0.1499
 6032WAT    EPW24850   3.061   2.709   4.431 -0.3831 -0.2920 -0.3017
 6033WAT      O24851   0.970   0.948   3.834 -0.3821  0.6647 -0.5146
 6033WAT     H124852   1.035   0.890   3.828 -0.3469  0.4305  1.5602
 6033WAT     H224853   0.904   0.909   3.792 -1.0081 -1.9608  2.5276
 6033WAT    EPW24854   0.970   0.934   3.826 -0.4693  0.2423  0.2413
 6034WAT      O24855   0.650   6.453   5.711  0.2879  0.2867 -0.5039
 6034WAT     H124856   0.698   6.484   5.645 -1.3195  0.6007 -1.5824
 6034WAT     H224857   0.693   6.383   5.738  2.5121  1.7708  0.0647
 6034WAT    EPW24858   0.663   6.447   5.705  0.3790  0.5523 -0.5792
 6035WAT      O24859   1.758   6.381   0.441 -0.6236  0.1981  0.0659
 6035WAT     H124860   1.678   6.416   0.437  0.1293  1.9839 -0.0593
 6035WAT     H224861   1.810   6.450   0.450  0.8990 -0.9562  0.4631
 6035WAT    EPW24862   1.754   6.396   0.442 -0.2875  0.2914  0.1061
 6036WAT      O24863   4.677   4.710   3.574  0.3566 -0.5224  0.1209
 6036WAT     H124864   4.601   4.732   3.611  1.7777  2.4799  1.5546
 6036WAT     H224865   4.704   4.642   3.622 -0.6070 -0.5083  0.7121
 6036WAT    EPW24866   4.670   4.703   3.586  0.4242 -0.0768  0.4200
 6037WAT      O24867   6.027   2.625   6.797  0.2719 -0.3077  0.2886
 6037WAT     H124868   5.991   2.574   6.736 -0.9759  0.7782  0.0550
 6037WAT     H224869   6.105   2.589   6.811  0.1294 -1.2539 -1.1123
 6037WAT    EPW24870   6.033   2.612   6.790  0.0665 -0.2871  0.0471
 6038WAT      O24871   4.862   1.796   2.098 -0.0655 -0.0453  0.2293
 6038WAT     H124872   4.927   1.819   2.151 -0.1750 -0.7939  0.6945
 6038WAT     H224873   4.891   1.817   2.019  1.0423 -1.0336  0.3495
 6038WAT    EPW24874   4.876   1.803   2.094  0.0819 -0.3019  0.3158
 6039WAT      O24875   2.425   4.091   3.705  0.0107  0.4275  0.1739
 6039WAT     H124876   2.492   4.105   3.760  0.6618 -1.1321 -0.1602
 6039WAT     H224877   2.449   4.134   3.633 -0.7226  2.2631  0.9698
 6039WAT    EPW24878   2.439   4.099   3.702 -0.0015  0.4683  0.2421
 6040WAT      O24879   6.034   3.688   6.136  0.0930 -0.2914 -0.1725
 6040WAT     H124880   6.035   3.695   6.223  3.3879 -1.6018  0.0484
 6040WAT     H224881   6.018   3.769   6.108  0.5061  0.4713  1.6796
 6040WAT    EPW24882   6.032   3.701   6.145  0.6408 -0.3723  0.1337
 6041WAT      O24883   1.540   1.756   1.303  0.5149  0.0849 -0.0872
 6041WAT     H124884   1.532   1.753   1.216  1.5692 -1.0234 -0.1805
 6041WAT     H224885   1.611   1.806   1.315  1.4672 -1.2238  0.0081
 6041WAT    EPW24886   1.550   1.763   1.292  0.8113 -0.2722 -0.0869
 6042WAT      O24887   7.233   2.013   3.376 -0.1147  0.1038  0.1230
 6042WAT     H124888   7.194   1.935   3.386 -1.9892  0.9620 -0.0731
 6042WAT     H224889   7.251   2.038   3.458  0.7433 -0.6267  0.1736
 6042WAT    EPW24890   7.230   2.005   3.389 -0.2649  0.1227  0.1015
 6043WAT      O24891   3.210   0.474   6.429  0.1070  0.5350  0.1132
 6043WAT     H124892   3.274   0.446   6.377  0.3154  1.0647  0.0819
 6043WAT     H224893   3.242   0.459   6.509 -1.2538 -2.7488  0.1883
 6043WAT    EPW24894   3.224   0.468   6.433 -0.0632  0.1282  0.1197
 6044WAT      O24895   5.705   4.562   0.318  0.3467  0.8745  0.1361
 6044WAT     H124896   5.765   4.583   0.258  0.5902  0.0505  0.0792
 6044WAT     H224897   5.630   4.582   0.280  0.2827 -2.1662 -1.6082
 6044WAT    EPW24898   5.703   4.568   0.303  0.3732  0.3036 -0.1299
 6045WAT      O24899   4.016   0.732   6.646  0.0845  0.2188 -0.0797
 6045WAT     H124900   4.059   0.696   6.580  2.5123 -0.7574  1.8509
 6045WAT     H224901   3.993   0.664   6.696 -1.7842  0.9086  0.0738
 6045WAT    EPW24902   4.019   0.717   6.644  0.1671  0.1765  0.2282
 6046WAT      O24903   2.653   3.305   4.434  0.2478 -0.0498 -0.0826
 6046WAT     H124904   2.593   3.246   4.456 -1.0592  1.0130 -0.6184
 6046WAT     H224905   2.647   3.309   4.347  1.4870 -0.3113 -0.1840
 6046WAT    EPW24906   2.643   3.297   4.424  0.2378  0.0686 -0.1767
 6047WAT      O24907   4.350   6.768   1.434 -0.5626  0.2342 -0.0033
 6047WAT     H124908   4.353   6.732   1.514  0.4966 -1.7547 -0.8754
 6047WAT     H224909   4.288   6.829   1.441  0.5210  1.1955  2.7524
 6047WAT    EPW24910   4.341   6.772   1.447 -0.2461  0.0824  0.2750
 6048WAT      O24911   2.441   5.293   6.308  0.5146 -0.0627 -0.3284
 6048WAT     H124912   2.436   5.279   6.394  0.3992  0.1592 -0.2997
 6048WAT     H224913   2.527   5.301   6.294  0.7551 -2.3312 -0.5825
 6048WAT    EPW24914   2.453   5.292   6.319  0.5331 -0.3650 -0.3617
 6049WAT      O24915   1.294   4.569   5.489  0.4842 -0.1133 -0.4025
 6049WAT     H124916   1.223   4.589   5.535 -0.5044 -1.5228 -1.2311
 6049WAT     H224917   1.277   4.604   5.410  0.0086 -1.6661 -1.0281
 6049WAT    EPW24918   1.281   4.577   5.484  0.2679 -0.5509 -0.6173
 6050WAT      O24919   4.727   6.932   4.365 -0.2146 -0.2411 -0.0423
 6050WAT     H124920   4.794   6.987   4.382 -1.8071  1.2693  1.9316
 6050WAT     H224921   4.761   6.877   4.307  2.2913  1.3422 -0.2886
 6050WAT    EPW24922   4.742   6.932   4.359 -0.0797  0.2159  0.2129
 6051WAT      O24923   1.156   5.309   0.545 -0.1996  0.6972  0.2291
 6051WAT     H124924   1.098   5.371   0.569 -0.6294  0.2743  0.3028
 6051WAT     H224925   1.134   5.241   0.595 -1.3933 -0.3632 -1.6378
 6051WAT    EPW24926   1.144   5.308   0.556 -0.4394  0.4781 -0.0358
 6052WAT      O24927   1.047   6.000   3.224  0.0681  0.3968  0.4658
 6052WAT     H124928   1.057   5.933   3.169 -0.7445  1.8625 -1.6138
 6052WAT     H224929   1.018   5.963   3.297 -1.4772 -1.4339 -0.9731
 6052WAT    EPW24930   1.044   5.985   3.227 -0.2802  0.3429 -0.0540
 6053WAT      O24931   6.676   2.635   6.310 -0.4937  0.5785  0.3012
 6053WAT     H124932   6.646   2.588   6.242  0.7699 -1.9066  1.3330
 6053WAT     H224933   6.609   2.688   6.329 -2.8863 -2.1668  0.2182
 6053WAT    EPW24934   6.662   2.636   6.303 -0.6605 -0.1942  0.4414
 6054WAT      O24935   2.605   6.399   5.771 -0.2689  0.2558 -0.1085
 6054WAT     H124936   2.525   6.432   5.757 -0.3059 -0.0641 -0.6726
 6054WAT     H224937   2.602   6.321   5.733 -0.1952 -0.4366  1.2520
 6054WAT    EPW24938   2.593   6.392   5.763 -0.2635  0.1063  0.0092
 6055WAT      O24939   4.815   5.520   2.035  0.0978  0.2395  0.0878
 6055WAT     H124940   4.886   5.476   2.010 -0.1248 -1.2898  1.8894
 6055WAT     H224941   4.784   5.553   1.961  1.5379 -0.8031 -1.0456
 6055WAT    EPW24942   4.821   5.518   2.020  0.2777 -0.1404  0.1865
 6056WAT      O24943   0.663   5.368   5.457 -0.1651  0.2394 -0.1672
 6056WAT     H124944   0.633   5.434   5.506  0.5279  0.5173 -0.1042
 6056WAT     H224945   0.748   5.385   5.450  0.0600 -0.7537 -0.0079
 6056WAT    EPW24946   0.671   5.381   5.463 -0.0295  0.1338 -0.1344
 6057WAT      O24947   3.925   3.268   3.118  0.0117  0.3153 -0.6272
 6057WAT     H124948   3.986   3.324   3.091  0.9144 -0.7317 -0.8524
 6057WAT     H224949   3.859   3.319   3.141  1.2976  1.5495  0.4723
 6057WAT    EPW24950   3.925   3.284   3.117  0.3350  0.3430 -0.4981
 6058WAT      O24951   6.787   6.006   6.693 -0.4209  0.3464  0.2597
 6058WAT     H124952   6.814   5.951   6.756 -0.6437 -0.3047 -0.1949
 6058WAT     H224953   6.706   6.028   6.719 -1.1350 -1.1565 -0.5520
 6058WAT    EPW24954   6.779   6.001   6.706 -0.5593  0.0282  0.0726
 6059WAT      O24955   6.877   2.418   6.674  0.1164 -0.4448  0.1661
 6059WAT     H124956   6.890   2.503   6.661 -0.8745 -0.3828 -0.4960
 6059WAT     H224957   6.793   2.406   6.654  0.1317 -1.5086  0.6400
 6059WAT    EPW24958   6.867   2.429   6.669 -0.0277 -0.5927  0.1383
 6060WAT      O24959   0.358   5.739   0.172  0.1721  0.2875  0.5240
 6060WAT     H124960   0.288   5.780   0.140  1.5812  0.8902 -2.0782
 6060WAT     H224961   0.383   5.688   0.106  2.7627  0.8757  0.9458
 6060WAT    EPW24962   0.351   5.737   0.157  0.7629  0.4634  0.2019
 6061WAT      O24963   4.669   5.888   4.058 -0.3057 -0.6023 -0.0102
 6061WAT     H124964   4.719   5.853   4.121  2.6266 -0.2746 -1.9580
 6061WAT     H224965   4.668   5.827   3.996 -0.1769  0.3978 -1.0316
 6061WAT    EPW24966   4.676   5.874   4.059  0.1465 -0.4062 -0.4488
 6062WAT      O24967   4.286   1.579   0.025  0.9353 -0.5456 -0.0991
 6062WAT     H124968   4.255   1.627   0.091  1.3481 -2.8953  1.9382
 6062WAT     H224969   4.373   1.583   0.036  0.9709 -1.9557  0.3278
 6062WAT    EPW24970   4.294   1.587   0.036  1.0016 -1.1010  0.2650
 6063WAT      O24971   4.551   6.074   1.246  0.3387 -0.0955 -0.1848
 6063WAT     H124972   4.493   6.010   1.257 -0.5884  0.9125  1.0842
 6063WAT     H224973   4.605   6.063   1.314  2.6218 -1.9045 -2.0868
 6063WAT    EPW24974   4.551   6.063   1.258  0.5390 -0.2138 -0.2783
 6064WAT      O24975   2.375   6.718   0.191 -0.0236  0.1752  0.6480
 6064WAT     H124976   2.456   6.748   0.208  0.6835 -0.9908 -0.4922
 6064WAT     H224977   2.358   6.666   0.259  0.6384 -0.4008  0.3849
 6064WAT    EPW24978   2.385   6.715   0.204  0.1786 -0.0821  0.4407
 6065WAT      O24979   5.944   3.526   6.846 -0.1354 -0.1338 -0.2847
 6065WAT     H124980   5.873   3.529   6.796  0.5283 -0.2555 -1.2531
 6065WAT     H224981   5.914   3.552   6.924 -1.0661  0.6300 -0.8649
 6065WAT    EPW24982   5.929   3.530   6.850 -0.1749 -0.0389 -0.5134
 6066WAT      O24983   0.198   0.921   6.126  0.1347  0.7445 -0.7001
 6066WAT     H124984   0.129   0.931   6.073 -0.5939 -1.4945 -0.2568
 6066WAT     H224985   0.163   0.926   6.206  0.4750 -0.4101 -0.4713
 6066WAT    EPW24986   0.183   0.923   6.130  0.0773  0.2432 -0.6008
 6067WAT      O24987   2.387   5.118   4.109  0.3488 -0.2635 -0.1891
 6067WAT     H124988   2.330   5.173   4.073  2.2238  1.2157 -1.1271
 6067WAT     H224989   2.363   5.113   4.192  0.0985  2.0245 -0.0699
 6067WAT    EPW24990   2.375   5.126   4.116  0.5888  0.2930 -0.3100
 6068WAT      O24991   2.259   6.757   2.840  0.0871 -0.2516  0.3504
 6068WAT     H124992   2.194   6.768   2.897 -1.2346  0.6425 -1.2366
 6068WAT     H224993   2.257   6.830   2.792  1.6564 -0.6219 -0.3429
 6068WAT    EPW24994   2.249   6.770   2.841  0.1237 -0.1743  0.0136
 6069WAT      O24995   3.069   6.918   0.964 -0.4698  0.1776 -0.1177
 6069WAT     H124996   3.092   6.873   0.893  0.4942 -2.9813  2.0249
 6069WAT     H224997   3.143   6.957   0.988 -0.6571  0.7695 -0.4727
 6069WAT    EPW24998   3.083   6.917   0.957 -0.3551 -0.2016  0.1464
 6070WAT      O24999   6.786   6.702   6.271 -0.8952  0.5073  0.3864
 6070WAT     H125000   6.750   6.686   6.193 -0.5734  1.5448  0.0095
 6070WAT     H225001   6.765   6.632   6.318 -1.3182 -0.0131 -0.5551
 6070WAT    EPW25002   6.777   6.689   6.266 -0.9102  0.5837  0.1917
 6071WAT      O25003   4.242   2.776   1.389 -0.1557  0.0047  0.2075
 6071WAT     H125004   4.214   2.823   1.321 -1.8653 -1.6176 -0.2880
 6071WAT     H225005   4.174   2.775   1.442  0.0547 -1.4054  0.4732
 6071WAT    EPW25006   4.228   2.783   1.387 -0.3771 -0.4433  0.1735
 6072WAT      O25007   2.665   1.526   5.716 -0.0202  0.2186  0.3059
 6072WAT     H125008   2.713   1.543   5.646  3.3654 -1.4034  1.9743
 6072WAT     H225009   2.635   1.445   5.701 -0.4653  0.4106  0.1549
 6072WAT    EPW25010   2.668   1.516   5.704  0.4142  0.0074  0.5301
 6073WAT      O25011   2.178   7.132   0.191  0.0418 -0.1399  0.0547
 6073WAT     H125012   2.250   7.116   0.237 -0.1968 -0.2219  0.4034
 6073WAT     H225013   2.121   7.157   0.251 -0.7950 -1.8877  0.0424
 6073WAT    EPW25014   2.180   7.133   0.206 -0.1170 -0.4102  0.1044
 6074WAT      O25015   3.920   0.725   3.969 -0.2446 -0.5354  0.0643
 6074WAT     H125016   3.861   0.660   3.971  0.2471 -1.0131 -0.4470
 6074WAT     H225017   3.932   0.745   4.053  1.2549 -2.6414  0.4080
 6074WAT    EPW25018   3.913   0.718   3.981  0.0495 -0.9170  0.0395
 6075WAT      O25019   6.763   0.885   0.558  0.1847  0.0674  0.3359
 6075WAT     H125020   6.713   0.883   0.486  1.8535  0.2034 -0.8974
 6075WAT     H225021   6.764   0.802   0.584  0.3783 -0.1768 -0.4129
 6075WAT    EPW25022   6.756   0.873   0.551  0.4598  0.0514  0.0431
 6076WAT      O25023   4.338   2.354   1.161  0.1144 -0.3809  0.1805
 6076WAT     H125024   4.383   2.316   1.225 -0.5736  0.9906  1.5467
 6076WAT     H225025   4.277   2.295   1.141 -0.8781 -0.1332  2.1902
 6076WAT    EPW25026   4.335   2.340   1.168 -0.1338 -0.1417  0.6792
 6077WAT      O25027   2.638   7.215   7.258  0.3051 -0.1928 -0.5993
 6077WAT     H125028   2.640   7.128   7.252 -0.0325 -0.4460  1.7779
 6077WAT     H225029   2.553   7.233   7.267  0.5014  0.0536  1.3952
 6077WAT    EPW25030   2.626   7.205   7.259  0.2842 -0.1938  0.0465
 6078WAT      O25031   4.281   6.983   4.695  0.4690 -0.6612 -0.3014
 6078WAT     H125032   4.258   7.054   4.651  1.3258 -0.1828  0.0103
 6078WAT     H225033   4.368   6.983   4.690  0.6013 -0.4856  1.5432
 6078WAT    EPW25034   4.291   6.993   4.688  0.6151 -0.5646  0.0171
 6079WAT      O25035   2.011   6.982   4.674 -0.0865  0.2801 -0.3622
 6079WAT     H125036   2.097   6.968   4.687 -0.0507  0.8451  0.0685
 6079WAT     H225037   1.974   6.943   4.743  0.0001  2.0090  0.7306
 6079WAT    EPW25038   2.018   6.974   4.686 -0.0684  0.6189 -0.1371
 6080WAT      O25039   5.641   6.712   0.638  0.2867  0.2159  0.0468
 6080WAT     H125040   5.725   6.690   0.643  0.4467  0.8927  0.5099
 6080WAT     H225041   5.609   6.659   0.576  1.3663  0.9625 -1.1814
 6080WAT    EPW25042   5.649   6.701   0.630  0.4698  0.4262 -0.0662
 6081WAT      O25043   7.047   0.385   7.128  0.0227 -0.1645  0.5268
 6081WAT     H125044   7.094   0.415   7.195 -0.5857  0.3954  0.7163
 6081WAT     H225045   7.094   0.407   7.058 -0.2425  0.9642  0.6811
 6081WAT    EPW25046   7.061   0.393   7.127 -0.1063  0.0850  0.5776
 6082WAT      O25047   2.438   0.941   5.711 -0.0928 -0.6917 -0.3277
 6082WAT     H125048   2.432   1.011   5.658  0.4128 -0.5969 -0.2666
 6082WAT     H225049   2.383   0.960   5.776  0.0327 -0.3509 -0.3168
 6082WAT    EPW25050   2.429   0.954   5.713  0.0005 -0.6273 -0.3170
 6083WAT      O25051   5.958   3.919   4.315 -0.4306 -0.0290  0.0919
 6083WAT     H125052   5.914   3.987   4.285 -0.0955  1.0107  1.7693
 6083WAT     H225053   5.991   3.881   4.244 -0.5085  1.6633 -0.8837
 6083WAT    EPW25054   5.957   3.923   4.300 -0.3926  0.3745  0.1956
 6084WAT      O25055   4.084   6.344   5.830 -0.0245  0.3133 -0.2090
 6084WAT     H125056   4.135   6.280   5.800  0.3354  0.0201  0.9817
 6084WAT     H225057   4.004   6.319   5.807  0.3017  0.4917 -1.5933
 6084WAT    EPW25058   4.080   6.331   5.822  0.0769  0.2963 -0.2376
 6085WAT      O25059   5.244   4.610   3.807  0.1484  0.0287 -0.3932
 6085WAT     H125060   5.283   4.534   3.788 -0.0567 -0.6881  1.7532
 6085WAT     H225061   5.249   4.614   3.894 -1.4275  1.6269 -0.3261
 6085WAT    EPW25062   5.250   4.599   3.817 -0.1147  0.1589 -0.0662
 6086WAT      O25063   5.089   1.865   1.501  0.1963  0.2403  0.1322
 6086WAT     H125064   5.130   1.847   1.426  0.9915  1.3018  0.2841
 6086WAT     H225065   5.097   1.952   1.508 -0.3133  0.2180  1.1906
 6086WAT    EPW25066   5.096   1.875   1.491  0.2385  0.3938  0.3110
 6087WAT      O25067   5.821   3.840   3.289  0.0773  0.2475  0.4484
 6087WAT     H125068   5.837   3.841   3.375 -1.2470 -0.6359  0.7484
 6087WAT     H225069   5.758   3.900   3.280  0.5998  0.7292  0.0005
 6087WAT    EPW25070   5.814   3.849   3.301 -0.0411  0.1882  0.4266
 6088WAT      O25071   3.117   0.813   3.235 -0.0607  0.3638 -0.2137
 6088WAT     H125072   3.178   0.781   3.289  0.0650  0.1977 -0.4514
 6088WAT     H225073   3.162   0.837   3.165 -0.1747  0.9529 -0.0879
 6088WAT    EPW25074   3.132   0.812   3.233 -0.0590  0.4263 -0.2302
 6089WAT      O25075   1.808   1.995   3.074 -0.1494  0.3766 -0.8509
 6089WAT     H125076   1.730   1.957   3.069  0.4971 -0.9048 -1.9941
 6089WAT     H225077   1.843   1.963   3.147 -0.9518  1.5643  0.0966
 6089WAT    EPW25078   1.802   1.985   3.084 -0.1724  0.3628 -0.8798
 6090WAT      O25079   2.333   1.196   3.049 -0.2577 -0.0828 -0.3426
 6090WAT     H125080   2.251   1.184   3.077  0.0761  0.0001  0.7017
 6090WAT     H225081   2.369   1.247   3.110  0.1690  1.1218 -1.5246
 6090WAT    EPW25082   2.326   1.202   3.062 -0.1454  0.1074 -0.3630
 6091WAT      O25083   0.254   2.529   2.494  0.2663 -0.5301  0.0525
 6091WAT     H125084   0.257   2.443   2.507  1.7595 -0.4251  0.5538
 6091WAT     H225085   0.270   2.538   2.409  2.3328 -0.6717  0.3902
 6091WAT    EPW25086   0.257   2.518   2.484  0.7922 -0.5355  0.1764
 6092WAT      O25087   6.616   3.517   4.125  0.1784  0.5117  0.4037
 6092WAT     H125088   6.675   3.560   4.173 -1.3102  0.4786  2.4022
 6092WAT     H225089   6.542   3.561   4.139 -0.8446 -1.0969  0.3135
 6092WAT    EPW25090   6.614   3.530   4.134 -0.1926  0.2692  0.6856
 6093WAT      O25091   1.980   4.560   2.795 -0.3750 -0.4184  0.2817
 6093WAT     H125092   2.035   4.616   2.757 -1.5165 -0.0835 -0.9244
 6093WAT     H225093   2.030   4.490   2.809  0.5282  0.1104 -0.1697
 6093WAT    EPW25094   1.995   4.558   2.792 -0.4102 -0.2908  0.0368
 6094WAT      O25095   1.160   2.113   2.599 -0.2715  0.3185 -0.0393
 6094WAT     H125096   1.201   2.185   2.625  0.4530  0.4757 -1.5294
 6094WAT     H225097   1.125   2.082   2.673 -1.0026  2.4168  0.5681
 6094WAT    EPW25098   1.161   2.119   2.614 -0.2725  0.6517 -0.1697
 6095WAT      O25099   6.151   2.061   1.987 -0.1359  0.2786  0.4364
 6095WAT     H125100   6.100   2.011   1.937  0.3888  1.7061 -1.6734
 6095WAT     H225101   6.231   2.029   1.973 -0.2356 -1.5463  3.2385
 6095WAT    EPW25102   6.155   2.049   1.978 -0.0731  0.2199  0.5387
 6096WAT      O25103   2.758   0.816   1.781 -0.4361 -0.0802 -0.0505
 6096WAT     H125104   2.679   0.790   1.753 -0.1679 -1.1521  0.1561
 6096WAT     H225105   2.740   0.862   1.853 -0.8901 -0.1505 -0.1145
 6096WAT    EPW25106   2.744   0.819   1.787 -0.4635 -0.2489 -0.0294
 6097WAT      O25107   3.500   2.366   6.499 -0.2629 -0.0261 -0.0206
 6097WAT     H125108   3.554   2.430   6.474  0.3754 -1.0168 -1.2783
 6097WAT     H225109   3.528   2.296   6.454 -1.1496 -1.1208  1.0450
 6097WAT    EPW25110   3.512   2.365   6.489 -0.2996 -0.3342 -0.0490
 6098WAT      O25111   6.720   6.655   0.257  0.2454  0.5524 -0.1292
 6098WAT     H125112   6.773   6.648   0.188 -0.2845 -1.5162 -0.3894
 6098WAT     H225113   6.728   6.579   0.298 -1.0809  0.9085  0.8914
 6098WAT    EPW25114   6.729   6.643   0.253 -0.0288  0.2994 -0.0169
 6099WAT      O25115   2.395   3.573   3.266  0.2887 -0.5788 -0.2619
 6099WAT     H125116   2.325   3.524   3.254  0.7595 -1.0330 -1.2673
 6099WAT     H225117   2.428   3.544   3.341 -0.0590 -1.0324 -0.2807
 6099WAT    EPW25118   2.390   3.562   3.275  0.3069 -0.7129 -0.4132
 6100WAT      O25119   5.974   5.900   6.098 -0.6710 -0.1192 -0.2086
 6100WAT     H125120   6.032   5.850   6.140 -0.9575 -1.7527 -1.6408
 6100WAT     H225121   5.937   5.946   6.162 -0.6975 -2.0685  1.2727
 6100WAT    EPW25122   5.977   5.900   6.113 -0.7172 -0.6485 -0.2014
 6101WAT      O25123   4.951   7.125   0.449 -0.2265  0.4977 -0.0714
 6101WAT     H125124   4.951   7.039   0.463 -1.5592  0.6823  1.2685
 6101WAT     H225125   5.026   7.151   0.485  0.9095 -0.2243 -1.7495
 6101WAT    EPW25126   4.962   7.116   0.456 -0.2555  0.4183 -0.1213
 6102WAT      O25127   3.445   1.879   1.744  0.1688  0.0307  0.0039
 6102WAT     H125128   3.398   1.950   1.762  1.1475  1.3901 -2.3367
 6102WAT     H225129   3.526   1.903   1.765  0.3842 -0.7454  0.0720
 6102WAT    EPW25130   3.450   1.893   1.750  0.3452  0.1168 -0.3318
 6103WAT      O25131   5.947   0.002   0.246  0.1130 -0.2602  0.2219
 6103WAT     H125132   5.932  -0.056   0.183  2.5946  0.2978 -1.0049
 6103WAT     H225133   5.896   0.069   0.225  0.1317 -0.5007 -0.6029
 6103WAT    EPW25134   5.937   0.003   0.234  0.4824 -0.2133 -0.0812
 6104WAT      O25135   4.722   0.456   2.017 -0.5968 -0.0335  0.6026
 6104WAT     H125136   4.700   0.402   1.952  0.3645 -0.0072  0.2265
 6104WAT     H225137   4.742   0.530   1.976 -0.8221  0.2588  1.0129
 6104WAT    EPW25138   4.722   0.459   2.001 -0.4881  0.0136  0.6076
 6105WAT      O25139   4.394   2.719   0.571 -0.0193  0.2087 -0.4390
 6105WAT     H125140   4.310   2.742   0.573 -0.0290  0.0881  1.0726
 6105WAT     H225141   4.410   2.711   0.485 -1.6155 -0.0325 -0.7553
 6105WAT    EPW25142   4.384   2.721   0.558 -0.2565  0.1552 -0.2624
 6106WAT      O25143   6.125   0.635   7.290  0.2425  0.3674  0.5975
 6106WAT     H125144   6.039   0.643   7.279  0.1993 -2.1700 -2.1366
 6106WAT     H225145   6.157   0.709   7.256 -0.7953  1.0951  1.1334
 6106WAT    EPW25146   6.117   0.647   7.283  0.0828  0.1000  0.2728
 6107WAT      O25147   2.069   0.366   4.884 -0.3026 -0.6358  0.4163
 6107WAT     H125148   2.139   0.404   4.921  0.3199  0.4428 -1.7428
 6107WAT     H225149   2.084   0.280   4.897  0.5520 -0.3593  1.4367
 6107WAT    EPW25150   2.082   0.359   4.891 -0.0844 -0.4356  0.2481
 6108WAT      O25151   7.080   1.153   1.862  0.1316 -0.4423  1.0061
 6108WAT     H125152   7.143   1.150   1.923  0.5446 -1.1177  0.5571
 6108WAT     H225153   7.122   1.177   1.790 -0.0213 -1.4124  0.5832
 6108WAT    EPW25154   7.095   1.156   1.861  0.1700 -0.6854  0.8773
 6109WAT      O25155   6.462   5.098   4.694 -0.6300  0.3696 -0.3089
 6109WAT     H125156   6.479   5.137   4.771  1.8188 -0.4923 -0.3471
 6109WAT     H225157   6.387   5.056   4.710 -1.0948  1.6080  1.0551
 6109WAT    EPW25158   6.453   5.097   4.708 -0.3369  0.4252 -0.1130
 6110WAT      O25159   1.131   1.264   6.562  0.4459 -0.1977  0.1668
 6110WAT     H125160   1.192   1.203   6.570  0.6321  0.0389  0.5782
 6110WAT     H225161   1.107   1.259   6.478  0.0668 -1.1938  0.3259
 6110WAT    EPW25162   1.136   1.254   6.551  0.4174 -0.3099  0.2511
 6111WAT      O25163   3.383   6.219   6.411 -0.2424  0.5698  0.4945
 6111WAT     H125164   3.421   6.249   6.483  0.9818  0.7964 -0.2063
 6111WAT     H225165   3.384   6.289   6.358  0.9371 -0.1714 -0.5110
 6111WAT    EPW25166   3.389   6.234   6.414  0.1127  0.4938  0.2425
 6112WAT      O25167   2.356   2.271   0.364 -0.3927  0.2261  0.1076
 6112WAT     H125168   2.349   2.349   0.327  4.4456  0.5453 -0.8087
 6112WAT     H225169   2.345   2.216   0.298  2.0110  0.5583 -0.6937
 6112WAT    EPW25170   2.354   2.274   0.349  0.6771  0.3223 -0.1462
 6113WAT      O25171   5.553   0.482   2.270  0.1650 -0.0414 -0.2105
 6113WAT     H125172   5.502   0.505   2.338  1.7689  1.5971  0.5157
 6113WAT     H225173   5.501   0.496   2.201 -1.3014 -1.1645  0.5860
 6113WAT    EPW25174   5.538   0.488   2.270  0.1853  0.0347  0.0145
 6114WAT      O25175   7.145   0.130   7.322  0.0663 -0.0534  0.1999
 6114WAT     H125176   7.105   0.067   7.276  1.3349 -0.4613 -0.3753
 6114WAT     H225177   7.084   0.193   7.327 -0.3894 -0.3444 -1.3105
 6114WAT    EPW25178   7.130   0.130   7.316  0.1864 -0.1566 -0.1082
 6115WAT      O25179   3.173   3.291   5.710 -0.0061  0.5959 -0.5656
 6115WAT     H125180   3.244   3.275   5.758 -0.1847 -1.1009 -0.7916
 6115WAT     H225181   3.112   3.239   5.745 -1.0235  1.6698 -0.6695
 6115WAT    EPW25182   3.175   3.281   5.722 -0.1827  0.5039 -0.6143
 6116WAT      O25183   6.459   3.098   0.256  0.2464  0.1892 -0.2379
 6116WAT     H125184   6.516   3.162   0.241 -0.6765  1.0006 -0.3983
 6116WAT     H225185   6.402   3.133   0.311  0.1317 -0.7474  0.2615
 6116WAT    EPW25186   6.459   3.112   0.262  0.0932  0.1707 -0.1878
 6117WAT      O25187   3.538   1.303   5.396  0.1674  0.3813 -0.4051
 6117WAT     H125188   3.585   1.376   5.387 -0.4876  0.5744 -3.5404
 6117WAT     H225189   3.566   1.252   5.330 -1.4779 -0.9510 -0.1643
 6117WAT    EPW25190   3.549   1.306   5.385 -0.1724  0.2130 -0.8327
 6118WAT      O25191   3.110   0.311   2.662  0.0274  0.2943 -0.6644
 6118WAT     H125192   3.031   0.316   2.626 -0.1683  2.9677 -0.0425
 6118WAT     H225193   3.158   0.368   2.617  0.8975  0.6287  0.6126
 6118WAT    EPW25194   3.106   0.320   2.650  0.1270  0.7386 -0.3839
 6119WAT      O25195   0.337   1.988   4.948  0.5189 -0.1774  0.0930
 6119WAT     H125196   0.294   2.064   4.948  0.1971 -0.3459  0.6916
 6119WAT     H225197   0.406   2.003   4.897 -0.0538  0.2168 -0.5883
 6119WAT    EPW25198   0.341   2.001   4.940  0.3867 -0.1440  0.0808
 6120WAT      O25199   7.084   2.799   2.993 -0.2119  0.8282 -0.4576
 6120WAT     H125200   7.154   2.850   2.987 -0.5236  1.2419 -0.5770
 6120WAT     H225201   7.019   2.854   3.011 -0.0169  0.1542  3.0216
 6120WAT    EPW25202   7.085   2.814   2.995 -0.2291  0.7897  0.0387
 6121WAT      O25203   5.015   5.631   0.515  0.1469 -0.0929  0.1897
 6121WAT     H125204   5.055   5.680   0.575  0.3987  1.0048 -0.8425
 6121WAT     H225205   4.971   5.689   0.467 -0.2206 -0.9711 -0.5632
 6121WAT    EPW25206   5.015   5.647   0.517  0.1298 -0.0605 -0.0740
 6122WAT      O25207   3.641   5.436   6.047 -0.4915  0.3823  0.2140
 6122WAT     H125208   3.665   5.509   6.007  1.5228 -0.3476 -0.0145
 6122WAT     H225209   3.644   5.376   5.983  0.4665 -0.3567  0.9271
 6122WAT    EPW25210   3.645   5.438   6.031 -0.0524  0.1653  0.2856
 6123WAT      O25211   5.375   1.510   0.231 -0.6478 -0.5646  0.1724
 6123WAT     H125212   5.374   1.452   0.165 -0.4569  0.0263 -0.3628
 6123WAT     H225213   5.428   1.573   0.202  0.3395 -0.8116  1.3632
 6123WAT    EPW25214   5.383   1.511   0.217 -0.4738 -0.5138  0.2693
 6124WAT      O25215   5.243   1.405   4.543  0.5556  0.1206  0.3032
 6124WAT     H125216   5.295   1.371   4.605  1.1076 -0.9297 -0.6900
 6124WAT     H225217   5.184   1.342   4.531 -1.6521  1.6739  2.1106
 6124WAT    EPW25218   5.242   1.390   4.551  0.3110  0.1949  0.4235
 6125WAT      O25219   1.434   3.038   3.310  0.0927 -0.1695  0.1738
 6125WAT     H125220   1.360   3.069   3.276  0.8586  0.6225 -0.8126
 6125WAT     H225221   1.441   2.958   3.275  0.4620  0.3286 -0.9134
 6125WAT    EPW25222   1.424   3.030   3.300  0.2604  0.0210 -0.1325
 6126WAT      O25223   1.840   0.195   5.180 -0.1301  0.3946  0.3036
 6126WAT     H125224   1.859   0.136   5.118 -1.3398 -0.0949  0.3694
 6126WAT     H225225   1.786   0.250   5.140  0.4172  1.0488  0.4573
 6126WAT    EPW25226   1.835   0.194   5.165 -0.2280  0.4189  0.3360
 6127WAT      O25227   0.422   0.459   5.422 -0.4385 -0.0878  0.6041
 6127WAT     H125228   0.393   0.389   5.379 -2.0275  0.9506 -0.1054
 6127WAT     H225229   0.399   0.525   5.370  1.2482  0.9731  1.1363
 6127WAT    EPW25230   0.415   0.458   5.408 -0.4240  0.2223  0.5779
 6128WAT      O25231   0.555   1.662   7.238 -0.4655 -0.4259  0.2761
 6128WAT     H125232   0.536   1.722   7.177 -0.3865 -0.8833 -0.2026
 6128WAT     H225233   0.545   1.706   7.313  1.4563  0.7663 -0.0968
 6128WAT    EPW25234   0.551   1.678   7.240 -0.1699 -0.3174  0.1503
 6129WAT      O25235   1.848   4.893   3.567  0.2950 -0.1361 -0.3325
 6129WAT     H125236   1.804   4.907   3.493 -0.3848  1.1177  0.2694
 6129WAT     H225237   1.793   4.843   3.614 -0.6230  1.5466  0.4755
 6129WAT    EPW25238   1.833   4.888   3.563  0.0590  0.2977 -0.1243
 6130WAT      O25239   2.390   6.415   1.074 -0.5130  0.3212 -0.4010
 6130WAT     H125240   2.341   6.344   1.070 -1.8619  1.2233 -0.6489
 6130WAT     H225241   2.448   6.397   1.136  1.0990 -2.1068 -2.4170
 6130WAT    EPW25242   2.392   6.402   1.082 -0.4741  0.0958 -0.7355
 6131WAT      O25243   0.925   2.977   6.445  0.0012 -0.1562  0.1966
 6131WAT     H125244   0.904   2.941   6.521  1.2416  0.1317  0.6997
 6131WAT     H225245   0.977   2.917   6.408  0.7738  0.4020  0.3395
 6131WAT    EPW25246   0.930   2.963   6.451  0.2986 -0.0312  0.2920
 6132WAT      O25247   4.710   7.227   2.948  0.0109 -0.0124 -0.5447
 6132WAT     H125248   4.626   7.204   2.943 -0.9397  2.7810  0.3754
 6132WAT     H225249   4.719   7.290   2.888  0.8535  1.1091  0.6690
 6132WAT    EPW25250   4.699   7.233   2.939 -0.0050  0.5659 -0.2295
 6133WAT      O25251   6.290   5.506   0.665 -0.3590  0.4815  0.1247
 6133WAT     H125252   6.362   5.463   0.642 -0.3371  1.1098 -1.0711
 6133WAT     H225253   6.226   5.455   0.635 -0.3588  0.7401 -0.3273
 6133WAT    EPW25254   6.291   5.492   0.657 -0.3558  0.6125 -0.1187
 6134WAT      O25255   0.965   6.566   7.062  0.1348 -0.1186  0.2916
 6134WAT     H125256   0.976   6.479   7.061  2.3956  0.0408  2.4003
 6134WAT     H225257   1.029   6.595   7.010 -0.0252  0.3240  0.3389
 6134WAT    EPW25258   0.976   6.557   7.054  0.4451 -0.0297  0.6101
 6135WAT      O25259   5.354   0.798   2.975 -0.4864 -0.3763 -0.0159
 6135WAT     H125260   5.307   0.787   3.047 -1.0453 -0.5993 -0.4096
 6135WAT     H225261   5.311   0.861   2.932  0.0344 -0.0011  0.0039
 6135WAT    EPW25262   5.341   0.806   2.979 -0.4920 -0.3538 -0.0711
 6136WAT      O25263   0.464   4.291   7.284 -0.2068  0.4003 -0.2239
 6136WAT     H125264   0.413   4.253   7.343  0.9936  0.4231  0.8745
 6136WAT     H225265   0.544   4.284   7.318  0.3941  1.3532 -1.3528
 6136WAT    EPW25266   0.468   4.285   7.298  0.0593  0.5444 -0.2284
 6137WAT      O25267   4.879   4.901   0.528 -0.2677  0.1142  0.5597
 6137WAT     H125268   4.869   4.828   0.482 -1.2069  0.1455  0.6957
 6137WAT     H225269   4.843   4.882   0.605 -0.5223  0.7203  0.5947
 6137WAT    EPW25270   4.873   4.888   0.533 -0.4441  0.2083  0.5849
 6138WAT      O25271   0.401   3.561   0.855 -0.0508  0.2844 -0.2590
 6138WAT     H125272   0.390   3.592   0.774 -0.2902  1.8025  0.3247
 6138WAT     H225273   0.338   3.600   0.901  0.4915 -0.0369  0.7956
 6138WAT    EPW25274   0.390   3.572   0.850 -0.0060  0.4612 -0.0170
 6139WAT      O25275   2.630   5.030   4.043 -0.3777 -0.1458  0.0886
 6139WAT     H125276   2.640   5.048   3.958  1.5110 -2.3470 -0.2400
 6139WAT     H225277   2.554   5.068   4.063  0.2921  2.5655 -1.9158
 6139WAT    EPW25278   2.620   5.038   4.034  0.0003 -0.0705 -0.2561
 6140WAT      O25279   2.699   2.472   6.129  0.1667  0.2845 -0.0266
 6140WAT     H125280   2.735   2.395   6.148 -0.4295 -0.1612 -0.6665
 6140WAT     H225281   2.747   2.502   6.062 -0.6767 -0.3481 -0.9352
 6140WAT    EPW25282   2.711   2.465   6.122 -0.0459  0.1252 -0.2554
 6141WAT      O25283   4.413   6.239   4.781  0.1756 -0.4618 -0.1064
 6141WAT     H125284   4.380   6.168   4.742 -0.3506  0.4443 -1.4041
 6141WAT     H225285   4.485   6.256   4.735 -0.9814  1.1990 -1.4561
 6141WAT    EPW25286   4.419   6.231   4.768 -0.0730 -0.0826 -0.4975
 6142WAT      O25287   1.441   1.856   0.245  0.3872  0.0474  0.2708
 6142WAT     H125288   1.485   1.924   0.213  1.0238 -0.3072  0.3841
 6142WAT     H225289   1.454   1.861   0.331  0.1073  0.0088  0.3172
 6142WAT    EPW25290   1.449   1.866   0.253  0.4399 -0.0107  0.2944
 6143WAT      O25291   6.631   4.989   2.745 -0.3143  0.2533  0.2854
 6143WAT     H125292   6.567   5.032   2.785 -1.5347  1.0912 -2.3246
 6143WAT     H225293   6.590   4.945   2.682  1.5142 -0.4801 -0.4734
 6143WAT    EPW25294   6.615   4.989   2.741 -0.2245  0.2688 -0.2123
 6144WAT      O25295   2.137   4.889   5.698 -0.5798 -0.2619 -0.0514
 6144WAT     H125296   2.078   4.919   5.755 -1.0970 -0.8251 -0.2799
 6144WAT     H225297   2.198   4.852   5.748  0.3544  1.5904  0.2820
 6144WAT    EPW25298   2.137   4.888   5.714 -0.5182 -0.0715 -0.0359
 6145WAT      O25299   0.931   6.627   3.642  0.1797 -0.0085 -0.2963
 6145WAT     H125300   0.865   6.661   3.596  0.2591  0.3779 -0.1311
 6145WAT     H225301   0.932   6.543   3.619  0.8419  0.3703 -1.7354
 6145WAT    EPW25302   0.921   6.619   3.632  0.2892  0.1045 -0.4845
 6146WAT      O25303   2.563   0.620   4.247  0.2011 -0.2829 -0.1512
 6146WAT     H125304   2.616   0.593   4.311  1.8465  0.3320 -1.1785
 6146WAT     H225305   2.576   0.561   4.184  0.4920  0.4701 -0.8068
 6146WAT    EPW25306   2.573   0.607   4.247  0.4871 -0.0808 -0.3998
 6147WAT      O25307   5.891   1.392   5.129 -0.1601  0.0226  0.2558
 6147WAT     H125308   5.835   1.407   5.194 -1.4864 -0.1755 -0.7922
 6147WAT     H225309   5.840   1.360   5.066  0.6915  2.1530 -1.6532
 6147WAT    EPW25310   5.875   1.389   5.129 -0.2302  0.3081 -0.1810
 6148WAT      O25311   6.790   3.014   0.526  0.3238 -0.5876 -0.0713
 6148WAT     H125312   6.766   3.024   0.609  1.1649 -0.4136  0.1563
 6148WAT     H225313   6.841   2.942   0.528 -1.5177 -1.9978 -0.8328
 6148WAT    EPW25314   6.794   3.005   0.539  0.1760 -0.7702 -0.1501
 6149WAT      O25315   6.298   1.141   2.029  0.2294 -0.8253 -0.3237
 6149WAT     H125316   6.320   1.058   2.011  0.7544 -0.5097 -1.1676
 6149WAT     H225317   6.357   1.188   1.984  0.6296  0.0077  1.0231
 6149WAT    EPW25318   6.310   1.136   2.020  0.3661 -0.6556 -0.2494
 6150WAT      O25319   2.205   1.261   6.770 -0.1805 -0.4430 -0.0512
 6150WAT     H125320   2.272   1.283   6.718 -0.3566  2.3520  0.7669
 6150WAT     H225321   2.240   1.202   6.824  0.8872 -0.9700 -1.2623
 6150WAT    EPW25322   2.220   1.256   6.770 -0.0488 -0.1080 -0.1093
 6151WAT      O25323   5.468   5.935   7.240 -0.0872 -0.0781  0.5937
 6151WAT     H125324   5.462   5.989   7.308  0.2994 -0.7984  1.2123
 6151WAT     H225325   5.491   5.988   7.174 -0.3611  0.6081  1.0364
 6151WAT    EPW25326   5.470   5.951   7.240 -0.0705 -0.0831  0.7504
 6152WAT      O25327   6.892   2.546   0.671  0.5292 -0.8982  0.0733
 6152WAT     H125328   6.929   2.515   0.599  1.4674 -1.0689  0.6169
 6152WAT     H225329   6.908   2.632   0.667 -0.4181 -0.7315 -0.4795
 6152WAT    EPW25330   6.900   2.554   0.660  0.5278 -0.8988  0.0719
 6153WAT      O25331   5.488   4.206   1.673 -0.3132  0.0242  0.3210
 6153WAT     H125332   5.433   4.251   1.724 -1.8840 -0.2264 -1.1042
 6153WAT     H225333   5.487   4.126   1.708  0.9092  0.5194  1.6185
 6153WAT    EPW25334   5.480   4.201   1.686 -0.3646  0.0603  0.3021
 6154WAT      O25335   1.904   5.409   4.179  0.3912 -0.1677  0.7318
 6154WAT     H125336   1.839   5.414   4.237  0.1724 -0.8160  0.5456
 6154WAT     H225337   1.917   5.492   4.157  1.3210  0.2433  2.6283
 6154WAT    EPW25338   1.896   5.422   4.185  0.4962 -0.2028  0.9845
 6155WAT      O25339   4.489   2.554   7.092 -0.5862 -0.4136  0.0868
 6155WAT     H125340   4.537   2.627   7.085 -0.2303 -0.7193 -0.6840
 6155WAT     H225341   4.528   2.498   7.038 -1.2918 -0.9529  0.1290
 6155WAT    EPW25342   4.502   2.557   7.083 -0.6379 -0.5384 -0.0208
 6156WAT      O25343   3.062   5.900   0.408 -0.4381  0.1649 -0.2011
 6156WAT     H125344   3.122   5.962   0.397 -0.7549  0.6953  0.9218
 6156WAT     H225345   3.067   5.881   0.493 -4.3610  2.9724  0.9532
 6156WAT    EPW25346   3.071   5.906   0.419 -1.0644  0.6580  0.1353
 6157WAT      O25347   2.563   5.262   1.911  0.3329 -0.5066  0.2005
 6157WAT     H125348   2.613   5.323   1.950  1.5896 -1.2782 -0.1509
 6157WAT     H225349   2.572   5.193   1.963  0.9685 -1.1403 -0.7284
 6157WAT    EPW25350   2.572   5.261   1.925  0.6124 -0.7142  0.0114
 6158WAT      O25351   2.419   5.544   0.825 -0.2201 -0.1629  0.0585
 6158WAT     H125352   2.498   5.539   0.788 -0.2431  0.6435 -0.1209
 6158WAT     H225353   2.424   5.489   0.893  1.1386  1.3007  1.2175
 6158WAT    EPW25354   2.431   5.535   0.829 -0.0228  0.1724  0.2032
 6159WAT      O25355   1.445   7.017   6.893 -0.1521 -0.0432 -0.1301
 6159WAT     H125356   1.450   6.965   6.823  0.1090  0.6649 -0.6575
 6159WAT     H225357   1.511   6.990   6.943 -0.5596 -0.7900  0.0152
 6159WAT    EPW25358   1.456   7.005   6.890 -0.1738 -0.0489 -0.1866
 6160WAT      O25359   6.433   6.969   3.763 -0.2443 -0.5967  0.8360
 6160WAT     H125360   6.456   6.979   3.679 -0.5600 -0.4576  0.7670
 6160WAT     H225361   6.510   6.954   3.803 -0.2418 -2.3475  0.2717
 6160WAT    EPW25362   6.448   6.968   3.756 -0.2906 -0.8348  0.7425
 6161WAT      O25363   1.313   0.900   0.541 -0.4515 -0.3267  0.2996
 6161WAT     H125364   1.347   0.961   0.489 -0.5435  0.0080  0.6273
 6161WAT     H225365   1.253   0.943   0.587  1.1418 -0.0804  2.2696
 6161WAT    EPW25366   1.309   0.915   0.540 -0.2297 -0.2409  0.6391
 6162WAT      O25367   4.855   2.457   2.714  0.0465  0.4186 -0.3594
 6162WAT     H125368   4.861   2.429   2.631  0.1800 -0.5283 -0.0379
 6162WAT     H225369   4.830   2.386   2.758 -1.6486  1.2841  0.1835
 6162WAT    EPW25370   4.852   2.442   2.708 -0.1842  0.4066 -0.2317
 6163WAT      O25371   0.082   5.435   7.097 -0.1249  0.7252  0.1649
 6163WAT     H125372   0.129   5.414   7.167  0.1343 -0.5442 -0.3525
 6163WAT     H225373   0.126   5.399   7.031 -1.3905  0.1947 -0.4308
 6163WAT    EPW25374   0.095   5.427   7.098 -0.2735  0.4593  0.0005
 6164WAT      O25375   0.443   1.417   7.247 -0.2664 -0.4788 -0.6587
 6164WAT     H125376   0.520   1.382   7.264  0.0374  0.7415  0.7384
 6164WAT     H225377   0.460   1.503   7.245 -1.7183 -0.1102  0.6919
 6164WAT    EPW25378   0.457   1.425   7.249 -0.4360 -0.2441 -0.2528
 6165WAT      O25379   4.916   2.772   3.415  0.2287 -0.7148  0.0469
 6165WAT     H125380   4.975   2.737   3.468  1.5183  4.0877  2.2528
 6165WAT     H225381   4.850   2.793   3.468 -0.7939 -0.5283 -1.2508
 6165WAT    EPW25382   4.915   2.770   3.430  0.2681  0.0221  0.1811
 6166WAT      O25383   5.462   1.340   4.691 -0.3258  0.2625 -0.2532
 6166WAT     H125384   5.517   1.281   4.656  0.0806  0.6901 -0.3505
 6166WAT     H225385   5.515   1.390   4.739 -0.6401  0.6660 -0.3286
 6166WAT    EPW25386   5.478   1.338   4.693 -0.3122  0.3853 -0.2787
 6167WAT      O25387   7.110   3.406   2.425 -0.1308  0.5198  0.3109
 6167WAT     H125388   7.186   3.426   2.388 -0.7468  0.0498 -1.2781
 6167WAT     H225389   7.052   3.454   2.381 -0.8735  0.1850  0.8904
 6167WAT    EPW25390   7.113   3.416   2.413 -0.3315  0.4009  0.1618
 6168WAT      O25391   7.187   2.262   4.606  0.3106  0.4626  0.1200
 6168WAT     H125392   7.265   2.229   4.584  1.3780  1.4963  2.0164
 6168WAT     H225393   7.176   2.328   4.551 -1.1339 -1.8938 -2.7012
 6168WAT    EPW25394   7.197   2.267   4.595  0.2549  0.2672 -0.0166
 6169WAT      O25395   5.997   1.682   1.150  0.3437 -0.1227 -0.1165
 6169WAT     H125396   5.918   1.717   1.141  0.6102 -0.0362 -3.1581
 6169WAT     H225397   6.051   1.743   1.118  1.2955 -1.3532 -0.9718
 6169WAT    EPW25398   5.994   1.696   1.144  0.5237 -0.2917 -0.6921
 6170WAT      O25399   4.705   2.739   6.883  0.3213  0.0439 -0.5458
 6170WAT     H125400   4.640   2.767   6.934  0.1534  1.0612 -1.2882
 6170WAT     H225401   4.705   2.652   6.894 -1.7683 -0.0791 -1.2406
 6170WAT    EPW25402   4.696   2.730   6.892 -0.0122  0.1760 -0.7581
 6171WAT      O25403   4.396   0.513   2.916  0.1621  0.1548  0.4748
 6171WAT     H125404   4.347   0.522   2.844 -0.6321  1.3176  1.1277
 6171WAT     H225405   4.426   0.593   2.931 -0.8103  0.2582  2.1905
 6171WAT    EPW25406   4.393   0.526   2.908 -0.0989  0.3418  0.8247
 6172WAT      O25407   0.598   1.452   1.421  0.2739  0.2041  0.3225
 6172WAT     H125408   0.613   1.449   1.507 -0.7807 -0.1130  0.5102
 6172WAT     H225409   0.511   1.451   1.415  0.3286  0.3960 -0.7478
 6172WAT    EPW25410   0.587   1.452   1.433  0.1262  0.1856  0.1921
 6173WAT      O25411   6.473   2.689   1.130  0.0765 -0.3140 -0.7535
 6173WAT     H125412   6.531   2.750   1.110  1.3430 -1.3658 -0.4365
 6173WAT     H225413   6.516   2.614   1.117  0.0564 -1.1479  2.8700
 6173WAT    EPW25414   6.488   2.687   1.125  0.2606 -0.5925 -0.1714
 6174WAT      O25415   4.919   2.895   0.948 -0.6926  0.4567 -0.2474
 6174WAT     H125416   4.860   2.882   1.011 -0.0913 -2.5326 -0.1901
 6174WAT     H225417   4.878   2.869   0.875  0.4830 -1.8521 -0.1818
 6174WAT    EPW25418   4.904   2.890   0.946 -0.4302 -0.3259 -0.2293
 6175WAT      O25419   6.409   7.168   1.541 -0.0320 -0.3480 -0.2243
 6175WAT     H125420   6.396   7.242   1.585  0.0844 -1.2994  1.4962
 6175WAT     H225421   6.331   7.130   1.540  0.1890 -0.8289  0.1366
 6175WAT    EPW25422   6.396   7.173   1.548  0.0179 -0.5596  0.0832
 6176WAT      O25423   2.173   5.762   7.035 -0.3348  0.1094  0.1007
 6176WAT     H125424   2.198   5.697   6.983 -1.5967 -0.1701 -0.1736
 6176WAT     H225425   2.185   5.833   6.986 -1.5944 -0.1561 -0.6430
 6176WAT    EPW25426   2.179   5.763   7.020 -0.7073  0.0289 -0.0497
 6177WAT      O25427   5.751   1.943   3.362 -0.0783 -0.4949  0.0298
 6177WAT     H125428   5.793   1.982   3.428 -0.4937 -0.7914  0.4752
 6177WAT     H225429   5.785   1.981   3.291  0.3390 -0.1372  0.4139
 6177WAT    EPW25430   5.762   1.955   3.361 -0.0780 -0.4859  0.1523
 6178WAT      O25431   4.234   3.857   1.707 -0.0463  1.0135  0.4369
 6178WAT     H125432   4.222   3.908   1.637 -0.1875 -1.4253 -1.4467
 6178WAT     H225433   4.154   3.848   1.739 -0.6090 -0.6647 -1.2714
 6178WAT    EPW25434   4.221   3.863   1.701 -0.1503  0.4054 -0.0937
 6179WAT      O25435   3.803   1.930   6.770 -0.0237 -0.8573  0.3555
 6179WAT     H125436   3.789   1.964   6.691 -0.0870  0.4570  0.8970
 6179WAT     H225437   3.889   1.915   6.770  0.3443  0.9499  0.6643
 6179WAT    EPW25438   3.813   1.933   6.758  0.0213 -0.3962  0.4811
 6180WAT      O25439   6.692   6.303   5.008 -0.0103  0.7965  0.6102
 6180WAT     H125440   6.673   6.241   4.950  1.8714 -0.2467  1.0211
 6180WAT     H225441   6.616   6.315   5.050 -0.8045 -0.1298 -0.4935
 6180WAT    EPW25442   6.678   6.295   5.006  0.1503  0.5055  0.5079
 6181WAT      O25443   5.629   3.937   5.075  0.6158 -0.4180 -0.7515
 6181WAT     H125444   5.584   3.887   5.020  1.5863 -2.7841  0.4394
 6181WAT     H225445   5.570   3.962   5.134 -0.2941  1.6149 -2.4168
 6181WAT    EPW25446   5.614   3.934   5.076  0.6247 -0.4672 -0.8216
 6182WAT      O25447   0.091   0.432   6.729 -0.1729  0.1458  0.5523
 6182WAT     H125448   0.046   0.442   6.803 -0.5976  0.7281  0.2234
 6182WAT     H225449   0.174   0.439   6.754 -0.3212  0.4904  0.9540
 6182WAT    EPW25450   0.097   0.434   6.743 -0.2576  0.2827  0.5630
 6183WAT      O25451   3.052   1.899   3.244 -0.0517 -0.0676  0.1932
 6183WAT     H125452   3.095   1.823   3.239  0.2332  0.0125  1.2386
 6183WAT     H225453   3.065   1.934   3.164  3.0293  0.5564  0.8147
 6183WAT    EPW25454   3.060   1.893   3.231  0.4455  0.0364  0.4394
 6184WAT      O25455   3.361   1.430   5.679  0.6204 -0.1577  0.3138
 6184WAT     H125456   3.283   1.395   5.695  1.7340 -2.4522  1.3591
 6184WAT     H225457   3.357   1.454   5.595 -1.4968  0.7814  0.6338
 6184WAT    EPW25458   3.349   1.428   5.669  0.4721 -0.3579  0.5155
 6185WAT      O25459   4.995   6.174   4.476 -0.1042 -0.4314 -0.2660
 6185WAT     H125460   4.926   6.160   4.527  0.5034 -0.7178  0.4982
 6185WAT     H225461   4.976   6.130   4.403  0.1194 -2.1436  0.6621
 6185WAT    EPW25462   4.982   6.166   4.472  0.0186 -0.7266 -0.0160
 6186WAT      O25463   6.950   0.421   2.145 -0.1881 -0.6826  0.4382
 6186WAT     H125464   6.868   0.451   2.150 -0.2746 -0.8294 -0.0302
 6186WAT     H225465   6.945   0.340   2.177 -0.1423 -0.5452  0.7985
 6186WAT    EPW25466   6.937   0.414   2.150 -0.1941 -0.6840  0.4222
 6187WAT      O25467   2.499   4.392   3.894 -0.8900 -0.4088  0.6084
 6187WAT     H125468   2.544   4.464   3.914  0.2850 -0.8875 -0.1969
 6187WAT     H225469   2.498   4.392   3.807  0.9597 -2.4112  0.5105
 6187WAT    EPW25470   2.506   4.403   3.884 -0.4431 -0.7753  0.4750
 6188WAT      O25471   7.252   2.265   1.538  0.8184 -0.7088  0.4756
 6188WAT     H125472   7.285   2.298   1.612 -1.5948  0.8910  0.9691
 6188WAT     H225473   7.254   2.332   1.483  1.3441 -1.5108 -0.5082
 6188WAT    EPW25474   7.257   2.280   1.541  0.5396 -0.5909  0.4031
 6189WAT      O25475   3.243   4.368   2.728  0.2380  0.1324 -0.1851
 6189WAT     H125476   3.192   4.352   2.660 -0.7669 -0.4132  0.6687
 6189WAT     H225477   3.190   4.409   2.784  0.3595 -1.5371  1.2275
 6189WAT    EPW25478   3.227   4.372   2.726  0.1075 -0.1948  0.1497
 6190WAT      O25479   1.391   5.397   4.706  0.6404  0.4806  0.0784
 6190WAT     H125480   1.324   5.348   4.732  0.8964  0.9715  1.8497
 6190WAT     H225481   1.356   5.450   4.646  0.3774 -1.8041 -1.9479
 6190WAT    EPW25482   1.376   5.398   4.701  0.6393  0.2156  0.0407
 6191WAT      O25483   5.848   5.614   1.094  0.1259  0.2594 -0.9510
 6191WAT     H125484   5.791   5.547   1.094  1.0503 -0.5446 -0.9129
 6191WAT     H225485   5.908   5.590   1.036 -0.3587  1.8216 -2.1750
 6191WAT    EPW25486   5.848   5.600   1.086  0.1909  0.3714 -1.1262
 6192WAT      O25487   5.218   6.576   0.162 -0.0466 -0.0566 -0.3548
 6192WAT     H125488   5.196   6.657   0.187  0.5810 -0.7052  2.7147
 6192WAT     H225489   5.216   6.531   0.237  0.3641 -2.7272 -1.8582
 6192WAT    EPW25490   5.214   6.581   0.177  0.1068 -0.5469 -0.1234
 6193WAT      O25491   6.217   2.732   6.392 -0.4840 -0.1172 -0.4352
 6193WAT     H125492   6.163   2.752   6.458  1.3496  0.6723  0.9245
 6193WAT     H225493   6.240   2.650   6.409 -1.9762 -0.8277 -1.6052
 6193WAT    EPW25494   6.212   2.723   6.404 -0.4335 -0.1055 -0.4072
 6194WAT      O25495   0.056   2.919   3.463  0.5200 -0.5096 -0.1164
 6194WAT     H125496  -0.022   2.895   3.432  0.6930 -0.6949 -0.4139
 6194WAT     H225497   0.112   2.871   3.417  0.7046 -2.4822  1.9732
 6194WAT    EPW25498   0.052   2.908   3.452  0.5728 -0.8284  0.1483
 6195WAT      O25499   4.184   5.766   1.096 -0.1406 -0.1357  0.1530
 6195WAT     H125500   4.216   5.723   1.027 -0.1341  1.3792 -0.8348
 6195WAT     H225501   4.252   5.812   1.124 -0.9241  1.6786 -0.8077
 6195WAT    EPW25502   4.199   5.766   1.090 -0.2554  0.3561 -0.1348
 6196WAT      O25503   3.352   2.529   5.924 -0.0050 -0.2361 -0.2395
 6196WAT     H125504   3.416   2.578   5.892 -0.6986  0.5076 -0.5468
 6196WAT     H225505   3.392   2.475   5.979  0.6282  1.5371  1.1000
 6196WAT    EPW25506   3.367   2.528   5.927 -0.0139  0.1357 -0.0870
 6197WAT      O25507   1.037   0.925   1.998  0.4110 -0.6816  0.3429
 6197WAT     H125508   0.994   0.849   1.995 -1.5547  0.2662  1.7579
 6197WAT     H225509   0.976   0.981   2.026  1.5986  1.5826 -1.2846
 6197WAT    EPW25510   1.021   0.922   2.002  0.2961 -0.2071  0.3115
 6198WAT      O25511   4.428   1.886   6.870 -0.3594  0.5278  0.9188
 6198WAT     H125512   4.383   1.896   6.795  0.2664  1.6498  0.6692
 6198WAT     H225513   4.388   1.940   6.925  0.0966  0.8364  0.9555
 6198WAT    EPW25514   4.416   1.895   6.867 -0.1996  0.7391  0.8874
 6199WAT      O25515   2.258   6.002   2.737 -0.0822 -0.3807 -0.2863
 6199WAT     H125516   2.254   6.005   2.824  1.1320  1.5775 -0.2436
 6199WAT     H225517   2.339   5.974   2.721  1.7618  4.1849 -0.5922
 6199WAT    EPW25518   2.269   5.998   2.748  0.3695  0.5830 -0.3252
 6200WAT      O25519   6.486   5.637   2.271  0.3444 -0.0689 -0.6372
 6200WAT     H125520   6.510   5.717   2.248 -1.4482  0.5031 -0.5892
 6200WAT     H225521   6.522   5.586   2.209  0.6945  0.8369 -1.1926
 6200WAT    EPW25522   6.495   5.641   2.259  0.1313  0.1494 -0.7122
 6201WAT      O25523   3.119   1.651   0.811  0.5237  0.3811 -0.2514
 6201WAT     H125524   3.190   1.614   0.846 -1.0029 -0.3681  2.2488
 6201WAT     H225525   3.096   1.712   0.869 -0.1374  1.5526 -1.6806
 6201WAT    EPW25526   3.126   1.655   0.825  0.2006  0.4435 -0.0932
 6202WAT      O25527   2.116   0.130   1.835  0.0637 -0.3607 -0.5747
 6202WAT     H125528   2.138   0.107   1.916 -2.2859 -0.0337  0.2456
 6202WAT     H225529   2.116   0.217   1.838  2.3183 -0.2504 -1.7016
 6202WAT    EPW25530   2.119   0.139   1.847  0.0497 -0.2961 -0.6200
 6203WAT      O25531   0.630   0.784   5.675  0.3785 -0.0547  0.4960
 6203WAT     H125532   0.623   0.766   5.760 -1.3955 -1.0234  0.1840
 6203WAT     H225533   0.628   0.706   5.636 -0.3397  0.4337 -0.5141
 6203WAT    EPW25534   0.629   0.770   5.682  0.0104 -0.1256  0.3007
 6204WAT      O25535   1.844   5.540   1.742  0.4481 -0.1723  0.1729
 6204WAT     H125536   1.804   5.581   1.807  0.8637  1.6010 -0.6427
 6204WAT     H225537   1.910   5.593   1.721  1.1704 -1.3834 -0.7713
 6204WAT    EPW25538   1.848   5.554   1.748  0.6162 -0.0893 -0.0871
 6205WAT      O25539   3.333   2.610   5.113  0.3352 -0.2368 -0.1401
 6205WAT     H125540   3.381   2.682   5.097 -0.3870  0.2791 -0.0353
 6205WAT     H225541   3.251   2.639   5.109  0.0326 -1.0583 -0.0573
 6205WAT    EPW25542   3.328   2.625   5.110  0.1838 -0.2820 -0.1124
 6206WAT      O25543   2.775   6.397   4.358 -0.0314 -0.4280 -0.2038
 6206WAT     H125544   2.821   6.344   4.410 -0.7625 -0.1145  0.7888
 6206WAT     H225545   2.729   6.342   4.308  0.1056 -0.7346  0.0057
 6206WAT    EPW25546   2.775   6.381   4.358 -0.1192 -0.4269 -0.0262
 6207WAT      O25547   6.949   1.026   7.178  0.1003 -0.0266 -0.2042
 6207WAT     H125548   7.021   1.043   7.131  0.5272  1.4174  0.8763
 6207WAT     H225549   6.904   1.100   7.174 -1.9793 -1.2781 -1.8388
 6207WAT    EPW25550   6.953   1.040   7.171 -0.1438  0.0019 -0.2861
 6208WAT      O25551   5.886   1.289   5.417 -0.3313  0.4023  0.3624
 6208WAT     H125552   5.937   1.235   5.462 -1.1669  1.0384  2.2119
 6208WAT     H225553   5.828   1.236   5.379 -0.1202 -0.1287  0.7677
 6208WAT    EPW25554   5.885   1.273   5.418 -0.4235  0.4179  0.6955
 6209WAT      O25555   1.718   3.691   3.506 -0.1798 -0.8477 -0.2005
 6209WAT     H125556   1.738   3.743   3.439 -2.1643 -0.9514 -0.9414
 6209WAT     H225557   1.789   3.641   3.515  0.9402  0.5302 -0.8554
 6209WAT    EPW25558   1.732   3.692   3.497 -0.3075 -0.6595 -0.4067
 6210WAT      O25559   5.547   5.279   6.632 -0.8991  0.0373 -0.8700
 6210WAT     H125560   5.516   5.231   6.566 -1.3249 -1.2268  0.2089
 6210WAT     H225561   5.523   5.360   6.612 -1.9410 -0.4730 -1.7386
 6210WAT    EPW25562   5.539   5.283   6.619 -1.1159 -0.2248 -0.8389
 6211WAT      O25563   2.616   4.334   6.439 -0.0335  0.3721 -0.8358
 6211WAT     H125564   2.652   4.396   6.389  1.9387 -0.3773 -0.4147
 6211WAT     H225565   2.594   4.272   6.381  2.9137 -0.8204 -0.8851
 6211WAT    EPW25566   2.618   4.334   6.423  0.6932  0.0852 -0.7809
 6212WAT      O25567   0.636   3.422   1.449 -0.2607  0.0863 -0.4129
 6212WAT     H125568   0.610   3.449   1.527 -1.9396  1.4302 -1.3929
 6212WAT     H225569   0.650   3.495   1.404 -0.1129 -0.6495 -1.6358
 6212WAT    EPW25570   0.634   3.437   1.454 -0.4869  0.1762 -0.7383
 6213WAT      O25571   0.782   4.564   7.071 -0.5549 -0.4273 -0.0691
 6213WAT     H125572   0.789   4.479   7.053  0.2331 -0.8454  1.8613
 6213WAT     H225573   0.795   4.603   6.995 -2.8288 -2.0461 -1.4034
 6213WAT    EPW25574   0.785   4.557   7.057 -0.7744 -0.7282  0.0190
 6214WAT      O25575   4.925   2.959   1.940 -0.5260  0.0870 -0.4468
 6214WAT     H125576   4.973   2.903   1.893 -1.0736 -0.0776 -0.8105
 6214WAT     H225577   4.843   2.933   1.928 -0.6096 -1.6265  2.7161
 6214WAT    EPW25578   4.920   2.947   1.931 -0.6192 -0.1904 -0.0333
 6215WAT      O25579   4.777   1.979   3.954 -0.2570  0.1537  0.4854
 6215WAT     H125580   4.809   2.024   4.021 -0.6208 -0.0187  0.7777
 6215WAT     H225581   4.704   2.021   3.933  0.2853  0.7098 -0.3621
 6215WAT    EPW25582   4.771   1.992   3.961 -0.2306  0.2104  0.4034
 6216WAT      O25583   5.902   3.613   1.473 -0.6150  0.3073  0.4380
 6216WAT     H125584   5.923   3.560   1.538  0.6608 -0.9467 -0.9436
 6216WAT     H225585   5.975   3.620   1.427 -1.6367  0.6539 -1.2149
 6216WAT    EPW25586   5.916   3.606   1.476 -0.5775  0.1733 -0.0103
 6217WAT      O25587   2.160   5.744   5.648 -0.3360 -0.0058 -0.2137
 6217WAT     H125588   2.232   5.708   5.616  1.0890  0.7152  1.9772
 6217WAT     H225589   2.149   5.704   5.725 -2.5254 -0.3425 -0.6135
 6217WAT    EPW25590   2.169   5.733   5.654 -0.4489  0.0510  0.0509
 6218WAT      O25591   1.407   1.275   7.189  0.0446  0.0801 -0.2984
 6218WAT     H125592   1.420   1.351   7.231 -0.7629  1.2061 -1.9220
 6218WAT     H225593   1.354   1.231   7.242  1.6855 -0.0151  1.3540
 6218WAT    EPW25594   1.401   1.280   7.203  0.1677  0.2324 -0.2942
 6219WAT      O25595   7.208   6.503   4.876 -0.4218  0.4336  0.4749
 6219WAT     H125596   7.138   6.456   4.897 -0.2364 -0.0905 -0.0805
 6219WAT     H225597   7.222   6.552   4.947 -1.6067  0.8610  0.4227
 6219WAT    EPW25598   7.200   6.504   4.890 -0.5694  0.4193  0.3852
 6220WAT      O25599   6.236   3.778   2.073 -0.3738  0.4677 -0.9281
 6220WAT     H125600   6.191   3.769   2.147 -0.4485  1.6374 -0.8244
 6220WAT     H225601   6.175   3.799   2.014 -0.2211  0.1638 -1.2035
 6220WAT    EPW25602   6.220   3.780   2.075 -0.3623  0.5956 -0.9535
 6221WAT      O25603   6.069   1.097   0.422  0.4588 -0.0187 -0.0035
 6221WAT     H125604   6.115   1.042   0.473  1.3806  1.0083  0.3245
 6221WAT     H225605   6.129   1.126   0.365 -0.2750 -0.1963 -0.8748
 6221WAT    EPW25606   6.085   1.093   0.421  0.4866  0.1068 -0.0837
 6222WAT      O25607   4.947   6.701   4.667  0.3777  0.0826  0.1308
 6222WAT     H125608   4.948   6.657   4.742 -0.3449 -0.4482 -0.1586
 6222WAT     H225609   4.931   6.640   4.607  2.0816  0.3181 -0.6109
 6222WAT    EPW25610   4.945   6.686   4.669  0.5226  0.0389 -0.0215
 6223WAT      O25611   4.270   1.093   6.697  0.2268 -0.4161 -0.0667
 6223WAT     H125612   4.316   1.044   6.642 -0.2790 -0.4319 -0.4774
 6223WAT     H225613   4.189   1.089   6.665 -0.2805 -1.2568  1.2485
 6223WAT    EPW25614   4.265   1.085   6.684  0.0771 -0.5426  0.0669
 6224WAT      O25615   3.090   3.470   2.068 -0.0434  0.1287 -0.5794
 6224WAT     H125616   3.071   3.551   2.043  1.0101  0.0649 -1.7225
 6224WAT     H225617   3.173   3.476   2.096 -0.3568 -0.3241  0.4836
 6224WAT    EPW25618   3.100   3.483   2.069  0.0659  0.0524 -0.5912
 6225WAT      O25619   6.883   1.930   2.800  0.0889  0.3982 -0.2753
 6225WAT     H125620   6.941   1.959   2.859 -1.1067  0.2242  1.0368
 6225WAT     H225621   6.824   1.888   2.848 -0.5167 -0.4645 -1.7017
 6225WAT    EPW25622   6.883   1.928   2.816 -0.1772  0.2451 -0.2922
 6226WAT      O25623   5.560   0.618   0.837  0.7141  0.5442  0.2764
 6226WAT     H125624   5.568   0.700   0.808  1.9084  0.3307 -0.0330
 6226WAT     H225625   5.505   0.582   0.779  0.8027  0.9107 -0.0395
 6226WAT    EPW25626   5.553   0.625   0.824  0.9036  0.5668  0.1840
 6227WAT      O25627   6.375   3.979   5.359 -1.0070  0.1696 -0.0733
 6227WAT     H125628   6.408   4.026   5.293  0.0701 -0.8917 -0.3259
 6227WAT     H225629   6.418   4.008   5.428  0.4747 -1.1166 -0.3830
 6227WAT    EPW25630   6.386   3.990   5.359 -0.6290 -0.1772 -0.1564
 6228WAT      O25631   1.877   5.382   3.416  0.5370  0.4974 -0.4676
 6228WAT     H125632   1.827   5.310   3.413  1.7935 -0.3733 -2.6992
 6228WAT     H225633   1.833   5.435   3.470 -1.2564 -1.3305 -0.0113
 6228WAT    EPW25634   1.863   5.379   3.423  0.4577  0.0988 -0.7299
 6229WAT      O25635   2.218   2.454   6.648  0.0480 -0.2021  0.0295
 6229WAT     H125636   2.142   2.467   6.608 -0.8961 -2.5088  0.8470
 6229WAT     H225637   2.278   2.474   6.588 -1.2375  0.2314 -1.1406
 6229WAT    EPW25638   2.216   2.459   6.633 -0.2813 -0.4788 -0.0226
 6230WAT      O25639   4.431   6.576   7.145  0.0195  0.0225 -0.0284
 6230WAT     H125640   4.511   6.611   7.152 -0.0836  0.3420 -0.4052
 6230WAT     H225641   4.420   6.567   7.059 -0.7970  1.0642 -0.0507
 6230WAT    EPW25642   4.441   6.580   7.134 -0.1164  0.2236 -0.0874
 6231WAT      O25643   5.597   6.109   5.748 -0.2332  0.5133  0.9177
 6231WAT     H125644   5.641   6.171   5.790 -1.3891  0.7802  1.7641
 6231WAT     H225645   5.571   6.148   5.674  0.3446  0.5584  0.7335
 6231WAT    EPW25646   5.600   6.124   5.743 -0.3186  0.5594  1.0156
 6232WAT      O25647   6.878   0.871   2.800  0.0695 -0.5674  0.1802
 6232WAT     H125648   6.822   0.931   2.770  0.0715 -1.1762 -1.1122
 6232WAT     H225649   6.826   0.811   2.837  0.0504  0.0683  1.2151
 6232WAT    EPW25650   6.862   0.871   2.801  0.0670 -0.5634  0.1421
 6233WAT      O25651   5.803   6.140   6.898  0.0880 -0.2110  0.1081
 6233WAT     H125652   5.779   6.172   6.821  2.4164  2.6789  0.3871
 6233WAT     H225653   5.890   6.136   6.892  0.3590  0.3278  2.6409
 6233WAT    EPW25654   5.812   6.144   6.886  0.4720  0.2955  0.5234
 6234WAT      O25655   2.075   4.931   6.773  0.6283 -0.5820 -0.0144
 6234WAT     H125656   2.032   4.989   6.821  0.9770 -0.4861  0.1901
 6234WAT     H225657   2.149   4.972   6.751  1.0292 -1.0470  0.4068
 6234WAT    EPW25658   2.080   4.945   6.777  0.7390 -0.6365  0.0780
 6235WAT      O25659   5.766   2.657   5.224  0.5107 -0.2158 -0.1252
 6235WAT     H125660   5.731   2.669   5.303  1.4297 -1.6093  0.5244
 6235WAT     H225661   5.767   2.570   5.215 -0.7611 -0.0891 -2.2367
 6235WAT    EPW25662   5.761   2.646   5.234  0.4586 -0.4030 -0.3411
 6236WAT      O25663   5.513   3.167   1.430 -0.0714  0.2930 -0.5021
 6236WAT     H125664   5.582   3.176   1.378 -0.5957  0.7178 -1.1456
 6236WAT     H225665   5.461   3.114   1.385 -0.7454  1.0579 -0.6417
 6236WAT    EPW25666   5.515   3.161   1.416 -0.2484  0.4688 -0.6178
 6237WAT      O25667   3.385   3.438   2.415 -0.2646 -0.0591  0.3100
 6237WAT     H125668   3.360   3.414   2.496 -1.0531  1.5965  0.6003
 6237WAT     H225669   3.440   3.504   2.430  1.6131 -1.3736 -0.4681
 6237WAT    EPW25670   3.390   3.444   2.429 -0.1037 -0.0087  0.2379
 6238WAT      O25671   1.201   2.768   2.627  0.3024  0.4681  0.0918
 6238WAT     H125672   1.174   2.777   2.710 -1.3824 -0.6269 -0.2933
 6238WAT     H225673   1.254   2.699   2.630 -2.2244 -1.6256 -0.1813
 6238WAT    EPW25674   1.205   2.759   2.640 -0.3197 -0.0029 -0.0054
 6239WAT      O25675   0.992   1.983   5.011  0.1498 -0.0737 -0.1002
 6239WAT     H125676   1.026   1.964   5.089 -0.7002 -0.1379  0.2652
 6239WAT     H225677   1.052   2.034   4.974  1.4334 -1.5945 -0.1788
 6239WAT    EPW25678   1.006   1.988   5.017  0.2138 -0.3079 -0.0578
 6240WAT      O25679   6.602   6.618   5.211  0.4100  0.0355  0.1863
 6240WAT     H125680   6.556   6.544   5.220  2.3618 -1.2005  0.5509
 6240WAT     H225681   6.615   6.645   5.293 -1.0065  1.3122  0.0376
 6240WAT    EPW25682   6.597   6.611   5.224  0.4891  0.0415  0.2182
 6241WAT      O25683   1.869   0.019   6.745 -0.3077 -0.2195  0.0532
 6241WAT     H125684   1.906  -0.006   6.820  0.2829  0.0666 -0.1301
 6241WAT     H225685   1.785  -0.002   6.755 -0.5955  1.3625  1.4865
 6241WAT    EPW25686   1.862   0.012   6.758 -0.2630  0.0565  0.2378
 6242WAT      O25687   0.051   1.100   7.293 -0.2991 -0.5211  0.4573
 6242WAT     H125688   0.138   1.101   7.296 -0.1577 -2.0369 -1.3658
 6242WAT     H225689   0.028   1.081   7.375  1.0811 -0.6483  0.8461
 6242WAT    EPW25690   0.060   1.098   7.306 -0.0743 -0.7638  0.2454
 6243WAT      O25691   4.249   5.049   2.055  0.6112  0.1889 -0.4488
 6243WAT     H125692   4.247   4.965   2.075  1.0514  0.2805 -0.0105
 6243WAT     H225693   4.313   5.055   1.995  0.7189  0.2398 -0.3299
 6243WAT    EPW25694   4.258   5.038   2.049  0.6921  0.2099 -0.3665
 6244WAT      O25695   4.437   0.716   2.691 -0.1395  0.1990  0.8377
 6244WAT     H125696   4.467   0.635   2.687  1.0945  0.6820 -0.4731
 6244WAT     H225697   4.366   0.715   2.640  1.0310  0.3854 -0.8473
 6244WAT    EPW25698   4.431   0.704   2.683  0.2157  0.2979  0.3952
 6245WAT      O25699   3.026   5.975   4.313 -0.2410  0.0876  0.0928
 6245WAT     H125700   3.061   5.898   4.292  2.3512  1.3434 -0.6370
 6245WAT     H225701   3.020   5.972   4.400 -0.1496 -0.9222  0.0781
 6245WAT    EPW25702   3.031   5.963   4.323  0.1554  0.1240 -0.0172
 6246WAT      O25703   2.897   6.362   6.900 -0.0941  0.0163 -0.2209
 6246WAT     H125704   2.911   6.292   6.851  0.6502  0.7961 -1.1711
 6246WAT     H225705   2.933   6.341   6.977 -1.2174 -1.1946 -0.0013
 6246WAT    EPW25706   2.904   6.349   6.904 -0.1501 -0.0474 -0.3289
 6247WAT      O25707   0.025   1.522   6.423 -0.6293  0.3608  0.2991
 6247WAT     H125708  -0.026   1.583   6.388  0.2950  1.4856  0.8291
 6247WAT     H225709  -0.012   1.447   6.399 -2.4120  1.1334  0.5325
 6247WAT    EPW25710   0.012   1.520   6.414 -0.7561  0.6411  0.4118
 6248WAT      O25711   7.225   6.168   7.088 -0.0595 -0.4881  0.1183
 6248WAT     H125712   7.187   6.122   7.151 -0.7958  2.4087  1.9902
 6248WAT     H225713   7.170   6.235   7.076  1.6607  0.7810 -1.2546
 6248WAT    EPW25714   7.211   6.171   7.095  0.0859  0.1273  0.1920
 6249WAT      O25715   0.416   5.389   2.686 -0.3711 -0.1937 -0.0936
 6249WAT     H125716   0.351   5.336   2.710 -1.2546  1.2922  0.9888
 6249WAT     H225717   0.483   5.363   2.736 -0.6913 -0.5095  0.1780
 6249WAT    EPW25718   0.416   5.378   2.697 -0.5489 -0.0208  0.1064
 6250WAT      O25719   6.402   6.666   4.451 -0.1080  0.2103 -0.0903
 6250WAT     H125720   6.459   6.732   4.447  0.5278 -0.3655 -1.3553
 6250WAT     H225721   6.357   6.674   4.376 -2.1101  0.9809  1.1237
 6250WAT    EPW25722   6.404   6.677   4.439 -0.3098  0.2391 -0.0978
 6251WAT      O25723   7.137   4.640   6.656 -0.0508  0.1455 -0.0434
 6251WAT     H125724   7.105   4.563   6.631  0.4012 -0.6590  1.6893
 6251WAT     H225725   7.066   4.688   6.670 -0.3734 -0.2675 -0.2386
 6251WAT    EPW25726   7.122   4.636   6.655 -0.0317 -0.0344  0.1837
 6252WAT      O25727   5.400   5.283   7.081 -0.4040 -0.2829 -0.0782
 6252WAT     H125728   5.399   5.221   7.019 -1.2517 -3.0279  2.4661
 6252WAT     H225729   5.484   5.306   7.086  0.2369 -2.4062 -0.0931
 6252WAT    EPW25730   5.412   5.277   7.072 -0.4345 -1.0021  0.2954
 6253WAT      O25731   6.715   2.336   2.557  0.0183 -0.4444  0.2040
 6253WAT     H125732   6.781   2.319   2.502  0.7824  1.0421  0.5795
 6253WAT     H225733   6.729   2.282   2.624  0.2412 -0.8831 -0.1916
 6253WAT    EPW25734   6.727   2.326   2.559  0.1641 -0.2896  0.2010
 6254WAT      O25735   1.707   1.387   3.963  0.6483 -0.0524 -0.7170
 6254WAT     H125736   1.767   1.336   4.000  0.4775  0.1966 -0.0862
 6254WAT     H225737   1.632   1.347   3.982  0.3834  1.2022  1.1050
 6254WAT    EPW25738   1.705   1.374   3.971  0.5839  0.1697 -0.3546
 6255WAT      O25739   0.204   4.385   7.282  0.3555  0.1194 -0.1188
 6255WAT     H125740   0.283   4.381   7.247  2.1149  0.8015  3.3802
 6255WAT     H225741   0.167   4.310   7.258  1.6841  0.1231 -2.4765
 6255WAT    EPW25742   0.210   4.373   7.273  0.8117  0.2207  0.0498
 6256WAT      O25743   2.428   1.386   3.220 -0.1468  0.0170  0.2128
 6256WAT     H125744   2.411   1.471   3.213 -0.5687  0.0667  1.5127
 6256WAT     H225745   2.514   1.380   3.211 -0.3490  0.1806 -3.0031
 6256WAT    EPW25746   2.438   1.397   3.218 -0.2390  0.0485 -0.0702
 6257WAT      O25747   4.115   5.105   4.545 -0.9314  0.4180  0.1371
 6257WAT     H125748   4.175   5.139   4.492 -1.2148 -0.9622 -1.1526
 6257WAT     H225749   4.152   5.109   4.624  1.1305 -0.9019 -0.6798
 6257WAT    EPW25750   4.129   5.110   4.549 -0.6686  0.0191 -0.1740
 6258WAT      O25751   2.561   3.865   4.698  0.3798  0.3736 -0.2472
 6258WAT     H125752   2.581   3.930   4.754  1.8243  0.2702 -0.6127
 6258WAT     H225753   2.551   3.906   4.622 -0.8699  0.4131 -0.0981
 6258WAT    EPW25754   2.562   3.880   4.695  0.4086  0.3642 -0.2792
 6259WAT      O25755   4.635   2.265   4.960 -0.3606  0.3144  0.0852
 6259WAT     H125756   4.654   2.227   4.884  2.8620 -0.5033  1.1615
 6259WAT     H225757   4.712   2.273   4.999 -1.7287  1.9631  2.7409
 6259WAT    EPW25758   4.649   2.260   4.955 -0.0867  0.4371  0.6365
 6260WAT      O25759   5.113   1.553   1.783  0.2018  0.0880  0.6858
 6260WAT     H125760   5.027   1.564   1.775  0.2429  0.4898  0.7982
 6260WAT     H225761   5.142   1.563   1.701  0.1810  0.3035  0.7042
 6260WAT    EPW25762   5.105   1.556   1.770  0.2048  0.1792  0.7051
 6261WAT      O25763   5.502   2.866   7.054 -0.3564  0.1441  0.3213
 6261WAT     H125764   5.434   2.821   7.085 -0.6146  0.8165  0.7533
 6261WAT     H225765   5.564   2.853   7.113 -0.1695 -0.3170  0.0229
 6261WAT    EPW25766   5.501   2.858   7.067 -0.3669  0.1753  0.3410
 6262WAT      O25767   7.013   3.169   6.132 -0.3283  0.3321 -0.4636
 6262WAT     H125768   6.994   3.251   6.106  0.7534  0.3242 -1.3539
 6262WAT     H225769   7.012   3.124   6.057  2.2501  0.1825 -0.5118
 6262WAT    EPW25770   7.010   3.175   6.117  0.2124  0.3088 -0.6023
 6263WAT      O25771   3.718   5.999   5.360  0.1505 -0.2730 -0.2927
 6263WAT     H125772   3.677   6.019   5.285 -0.2626 -1.2885 -0.3542
 6263WAT     H225773   3.768   5.931   5.338  0.2898 -0.3604  0.2858
 6263WAT    EPW25774   3.719   5.992   5.345  0.1100 -0.4359 -0.2163
 6264WAT      O25775   0.944   1.836   4.278  0.5276 -0.1681  0.4793
 6264WAT     H125776   1.005   1.865   4.223  2.2738  0.7993  2.7539
 6264WAT     H225777   0.880   1.895   4.271  0.6210 -0.1841 -0.6470
 6264WAT    EPW25778   0.944   1.849   4.269  0.7994 -0.0276  0.6489
 6265WAT      O25779   2.779   6.144   0.255  0.0013  0.1838 -0.7700
 6265WAT     H125780   2.805   6.212   0.207  1.5297 -0.7398 -1.3170
 6265WAT     H225781   2.776   6.078   0.198  0.0512 -0.5401  0.0379
 6265WAT    EPW25782   2.783   6.145   0.240  0.2344 -0.0595 -0.7315
 6266WAT      O25783   0.921   7.083   0.059  0.6102 -0.6142 -0.3319
 6266WAT     H125784   0.867   7.114   0.120 -0.0147 -0.4674 -0.9436
 6266WAT     H225785   0.882   7.009   0.032  0.8195 -0.6203 -0.6314
 6266WAT    EPW25786   0.907   7.076   0.064  0.5488 -0.5934 -0.4665
 6267WAT      O25787   5.064   0.801   5.382  0.2502  0.4623 -0.5280
 6267WAT     H125788   5.009   0.736   5.401  0.0211  0.8781  0.2370
 6267WAT     H225789   5.026   0.872   5.415  1.0507  0.8156 -0.3212
 6267WAT    EPW25790   5.050   0.802   5.390  0.3346  0.5759 -0.3844
 6268WAT      O25791   4.076   0.400   0.514  0.8602  0.4355  0.0634
 6268WAT     H125792   4.160   0.420   0.504  0.6981  1.3119  0.3576
 6268WAT     H225793   4.045   0.465   0.563 -0.5799  1.6361 -2.2383
 6268WAT    EPW25794   4.084   0.412   0.520  0.6235  0.7423 -0.2331
 6269WAT      O25795   2.305   6.226   2.512 -0.0750  0.2137 -0.2284
 6269WAT     H125796   2.363   6.230   2.447  1.7215  1.9951  1.3201
 6269WAT     H225797   2.353   6.198   2.580 -1.3142  0.5772  0.8449
 6269WAT    EPW25798   2.321   6.223   2.512  0.0073  0.5305  0.1589
 6270WAT      O25799   4.973   4.525   1.035 -0.6418 -0.2681 -0.4678
 6270WAT     H125800   5.039   4.483   0.998 -0.3238 -0.3594  0.1937
 6270WAT     H225801   5.006   4.604   1.054 -0.3131 -0.7206  1.0024
 6270WAT    EPW25802   4.987   4.531   1.032 -0.5462 -0.3484 -0.1529
 6271WAT      O25803   5.971   0.862   3.631  0.3074 -0.2582 -0.4462
 6271WAT     H125804   5.959   0.788   3.586  0.8810  0.4488 -1.8477
 6271WAT     H225805   5.894   0.876   3.668 -0.0775 -1.0973 -0.8964
 6271WAT    EPW25806   5.958   0.853   3.630  0.3353 -0.2777 -0.7197
 6272WAT      O25807   0.436   7.024   5.313 -0.2710  0.4980 -0.5896
 6272WAT     H125808   0.502   6.977   5.282  1.0966  1.7953  0.2072
 6272WAT     H225809   0.448   7.023   5.400 -1.0902  1.0645 -0.4490
 6272WAT    EPW25810   0.447   7.017   5.321 -0.1900  0.7733 -0.4511
 6273WAT      O25811   6.435   3.538   0.135  0.5615 -0.2957 -0.1494
 6273WAT     H125812   6.446   3.584   0.061 -0.0989 -0.4693 -0.3564
 6273WAT     H225813   6.491   3.576   0.190  0.7587  0.1074 -0.6176
 6273WAT    EPW25814   6.445   3.551   0.132  0.4930 -0.2618 -0.2492
 6274WAT      O25815   4.409   1.603   3.610 -0.3666 -0.4251 -0.1451
 6274WAT     H125816   4.425   1.534   3.661  0.2063  0.0007  0.2665
 6274WAT     H225817   4.368   1.659   3.663 -0.6911 -0.3875 -0.4327
 6274WAT    EPW25818   4.406   1.601   3.625 -0.3299 -0.3567 -0.1268
 6275WAT      O25819   5.027   1.540   1.411  0.0068 -0.3537 -0.3793
 6275WAT     H125820   4.959   1.563   1.459 -0.2652  1.9517 -1.7114
 6275WAT     H225821   5.095   1.570   1.456 -0.2328  1.5999 -1.1998
 6275WAT    EPW25822   5.027   1.548   1.425 -0.0688  0.2754 -0.6973
 6276WAT      O25823   7.173   2.912   5.689  0.2172  0.2568 -0.1700
 6276WAT     H125824   7.134   2.926   5.612  0.7614  1.8695 -0.1855
 6276WAT     H225825   7.253   2.946   5.678 -0.4799  2.8563  1.8493
 6276WAT    EPW25826   7.179   2.919   5.676  0.1946  0.8790  0.1260
 6277WAT      O25827   6.881   2.623   5.728 -0.2718 -0.2858  0.0673
 6277WAT     H125828   6.866   2.688   5.673  0.2268  0.1206  0.4056
 6277WAT     H225829   6.881   2.552   5.677  0.5737  0.1218 -0.5162
 6277WAT    EPW25830   6.878   2.622   5.712 -0.0732 -0.1656  0.0311
 6278WAT      O25831   0.239   6.869   7.019  0.0483  0.1593 -0.1088
 6278WAT     H125832   0.302   6.923   6.991  1.4645 -0.9405  0.8337
 6278WAT     H225833   0.274   6.830   7.089 -1.7246 -0.4443  0.5085
 6278WAT    EPW25834   0.253   6.871   7.025 -0.0044 -0.0924  0.1216
 6279WAT      O25835   4.406   5.598   6.412  0.5595  0.3683  0.2419
 6279WAT     H125836   4.413   5.515   6.387  0.5353  0.4797 -0.1549
 6279WAT     H225837   4.420   5.596   6.498 -1.3270 -0.3050  0.5870
 6279WAT    EPW25838   4.409   5.586   6.421  0.2773  0.2853  0.2342
 6280WAT      O25839   0.587   1.866   2.051 -0.0040  0.2981  0.9311
 6280WAT     H125840   0.563   1.784   2.069  0.7658 -0.2596 -0.4492
 6280WAT     H225841   0.513   1.905   2.027  0.0213 -0.8118 -1.2119
 6280WAT    EPW25842   0.573   1.859   2.050  0.1135  0.0518  0.4107
 6281WAT      O25843   0.625   0.484   6.447  0.5480  0.0884 -0.2822
 6281WAT     H125844   0.555   0.442   6.416 -0.0411 -1.7539  3.0949
 6281WAT     H225845   0.687   0.423   6.447  1.6345  1.1414 -1.3197
 6281WAT    EPW25846   0.623   0.469   6.442  0.6215 -0.0282  0.0634
 6282WAT      O25847   4.238   6.660   4.988  0.5925  0.0267  0.5109
 6282WAT     H125848   4.276   6.610   4.927  1.4190 -0.1450  1.1365
 6282WAT     H225849   4.155   6.665   4.962 -0.3172 -3.9947  1.7764
 6282WAT    EPW25850   4.232   6.653   4.975  0.5802 -0.5927  0.7902
 6283WAT      O25851   7.256   1.245   0.755 -0.1354 -0.3132 -0.6142
 6283WAT     H125852   7.208   1.193   0.806  1.4398 -0.1585  1.1043
 6283WAT     H225853   7.207   1.318   0.750 -0.5529 -0.5192  0.2561
 6283WAT    EPW25854   7.241   1.248   0.761  0.0356 -0.3208 -0.2318
 6284WAT      O25855   2.026   0.873   1.253  0.2022 -0.4668  0.0204
 6284WAT     H125856   2.107   0.903   1.260  0.3421 -0.8194 -0.0747
 6284WAT     H225857   2.031   0.815   1.188  0.4567 -2.4058  1.6643
 6284WAT    EPW25858   2.038   0.869   1.245  0.2605 -0.8053  0.2492
 6285WAT      O25859   0.259   6.551   3.884  0.3088 -0.0727 -0.2562
 6285WAT     H125860   0.266   6.585   3.803  1.2854  2.6875  0.8690
 6285WAT     H225861   0.249   6.621   3.935 -1.1651 -1.7774  2.0008
 6285WAT    EPW25862   0.258   6.566   3.879  0.2354  0.0833  0.2434
 6286WAT      O25863   1.561   1.180   6.817  0.3921 -0.3090  0.0230
 6286WAT     H125864   1.596   1.175   6.896  0.9782  0.5680 -0.1608
 6286WAT     H225865   1.607   1.124   6.770  0.2124 -0.6436  0.2457
 6286WAT    EPW25866   1.573   1.171   6.822  0.4522 -0.2289  0.0288
 6287WAT      O25867   6.015   1.598   2.856 -0.0566 -0.6152  0.0810
 6287WAT     H125868   6.061   1.586   2.929  0.7364 -0.0856 -0.3131
 6287WAT     H225869   5.949   1.649   2.882  0.8007  0.4547  0.2419
 6287WAT    EPW25870   6.012   1.604   2.871  0.1871 -0.3789  0.0466
 6288WAT      O25871   0.815   2.052   3.248 -0.4032 -0.2440 -0.1367
 6288WAT     H125872   0.818   1.973   3.285  1.1027 -0.2455 -0.1845
 6288WAT     H225873   0.898   2.080   3.253 -1.0340  1.6358  0.5043
 6288WAT    EPW25874   0.828   2.044   3.254 -0.2739  0.0335 -0.0490
 6289WAT      O25875   7.182   4.930   3.578  0.0404  0.1036  0.2918
 6289WAT     H125876   7.268   4.918   3.575  0.1222  0.5347  0.6900
 6289WAT     H225877   7.154   4.870   3.634 -0.0413 -0.6266 -0.5143
 6289WAT    EPW25878   7.190   4.919   3.586  0.0404  0.0594  0.2315
 6290WAT      O25879   4.805   1.203   4.953 -0.1063  0.3188 -0.0094
 6290WAT     H125880   4.817   1.235   5.033 -1.4563  0.9742 -0.0470
 6290WAT     H225881   4.746   1.257   4.917 -1.2615 -1.2559 -0.6274
 6290WAT    EPW25882   4.798   1.216   4.959 -0.4764  0.1830 -0.1063
 6291WAT      O25883   1.716   6.851   2.759 -0.2646 -0.7621 -0.2437
 6291WAT     H125884   1.730   6.923   2.805  1.2766 -0.7445 -0.6722
 6291WAT     H225885   1.647   6.814   2.798 -1.9158  1.5514 -0.7967
 6291WAT    EPW25886   1.708   6.856   2.772 -0.2808 -0.4178 -0.3887
 6292WAT      O25887   0.910   0.773   4.738 -0.7451  0.1233 -0.4761
 6292WAT     H125888   0.915   0.764   4.651  2.2025  0.4365 -0.4493
 6292WAT     H225889   0.945   0.851   4.753  1.1219 -0.9147  1.0845
 6292WAT    EPW25890   0.916   0.783   4.727 -0.0339  0.0162 -0.2416
 6293WAT      O25891   1.672   3.629   0.058 -0.0616  0.0466  0.3978
 6293WAT     H125892   1.725   3.693   0.034 -2.3161  1.5370 -0.9838
 6293WAT     H225893   1.628   3.609  -0.014 -2.1369 -0.3260  1.6616
 6293WAT    EPW25894   1.673   3.635   0.044 -0.7012  0.2117  0.3804
 6294WAT      O25895   4.568   5.130   1.471  0.0862 -0.6249 -0.0861
 6294WAT     H125896   4.482   5.143   1.477  0.3366  0.6101  2.4537
 6294WAT     H225897   4.579   5.052   1.508  0.1635  0.0689  1.4558
 6294WAT    EPW25898   4.557   5.120   1.478  0.1346 -0.3400  0.5169
 6295WAT      O25899   2.274   6.888   4.747  0.2937  0.5976  0.0083
 6295WAT     H125900   2.339   6.868   4.693  0.3928 -0.9545  0.6403
 6295WAT     H225901   2.252   6.811   4.782 -0.5643  1.3711  1.2699
 6295WAT    EPW25902   2.280   6.873   4.744  0.1816  0.4826  0.2880
 6296WAT      O25903   1.873   4.476   2.558 -0.2152  0.3902  0.4459
 6296WAT     H125904   1.927   4.409   2.546  0.8763  1.1370  1.0456
 6296WAT     H225905   1.906   4.517   2.627 -0.7561  1.6506 -0.0165
 6296WAT    EPW25906   1.886   4.472   2.567 -0.1338  0.6867  0.4662
 6297WAT      O25907   0.104   5.321   3.058  0.0787 -0.2653  0.0722
 6297WAT     H125908   0.019   5.316   3.040  0.0336 -0.7901  0.4333
 6297WAT     H225909   0.115   5.405   3.079 -0.0622  0.1442 -1.3544
 6297WAT    EPW25910   0.093   5.333   3.058  0.0512 -0.2823 -0.0852
 6298WAT      O25911   4.678   5.470   5.283 -0.6066 -0.0748 -0.5947
 6298WAT     H125912   4.629   5.438   5.219  0.4834 -2.3031 -0.4306
 6298WAT     H225913   4.756   5.433   5.270  0.4506  1.6608  0.3745
 6298WAT    EPW25914   4.683   5.460   5.272 -0.2894 -0.1476 -0.4273
 6299WAT      O25915   4.989   5.204   3.076 -0.5754  0.5415  0.2054
 6299WAT     H125916   4.904   5.186   3.066 -0.2807 -1.0814  0.2034
 6299WAT     H225917   4.997   5.222   3.161 -0.5288 -2.2044  0.8858
 6299WAT    EPW25918   4.977   5.204   3.087 -0.5250 -0.1039  0.3056
 6300WAT      O25919   2.572   6.887   2.069 -0.6507 -0.0224 -0.2774
 6300WAT     H125920   2.546   6.964   2.101  0.0790  0.3792 -0.6343
 6300WAT     H225921   2.659   6.887   2.083 -0.7174 -1.0426  0.2721
 6300WAT    EPW25922   2.581   6.898   2.076 -0.5528 -0.1138 -0.2489
 6301WAT      O25923   4.322   4.104   3.001 -0.7136  0.1776 -0.2558
 6301WAT     H125924   4.240   4.133   2.998 -1.9037 -2.8567 -0.3412
 6301WAT     H225925   4.328   4.068   3.081 -0.3252 -1.7331 -1.0921
 6301WAT    EPW25926   4.311   4.103   3.013 -0.8320 -0.5529 -0.3920
 6302WAT      O25927   2.377   0.847   3.782 -0.0630 -0.1178  0.0309
 6302WAT     H125928   2.347   0.851   3.864 -0.8059  0.7538 -0.2676
 6302WAT     H225929   2.304   0.846   3.734  0.3184 -2.3773 -0.5920
 6302WAT    EPW25930   2.362   0.848   3.787 -0.1164 -0.3228 -0.1052
 6303WAT      O25931   0.126   0.023   1.613  0.1239 -0.3068 -0.2866
 6303WAT     H125932   0.154  -0.057   1.592  2.7416 -0.1726  2.1228
 6303WAT     H225933   0.050   0.009   1.654  0.3648 -1.5124 -0.2363
 6303WAT    EPW25934   0.119   0.009   1.616  0.5462 -0.4651  0.0767
 6304WAT      O25935   3.882   1.583   4.888  0.4024  0.7793  0.3671
 6304WAT     H125936   3.875   1.581   4.801  0.4629  0.3294  0.3662
 6304WAT     H225937   3.855   1.663   4.910  1.9982  1.5205 -0.2025
 6304WAT    EPW25938   3.877   1.594   4.878  0.6471  0.8223  0.2828
 6305WAT      O25939   2.858   2.737   4.080 -0.1923  0.4408  0.1532
 6305WAT     H125940   2.858   2.800   4.021 -2.6870  0.8431  0.4533
 6305WAT     H225941   2.809   2.770   4.145 -1.2226 -1.5817  0.5022
 6305WAT    EPW25942   2.851   2.751   4.081 -0.7130  0.2014  0.2491
 6306WAT      O25943   3.566   1.313   2.856 -0.3109  0.0641  0.2084
 6306WAT     H125944   3.485   1.340   2.837 -0.7411 -0.1617  1.5884
 6306WAT     H225945   3.585   1.258   2.792 -1.7882 -0.8844  0.5298
 6306WAT    EPW25946   3.557   1.309   2.844 -0.5927 -0.1094  0.4597
 6307WAT      O25947   3.549   0.644   7.021  0.3551  0.1664  0.6391
 6307WAT     H125948   3.523   0.723   7.047  2.1524  0.4738  1.6571
 6307WAT     H225949   3.476   0.596   7.023 -0.4528  1.3816  1.6376
 6307WAT    EPW25950   3.534   0.649   7.025  0.5013  0.3913  0.9370
 6308WAT      O25951   3.671   6.401   6.826  0.3908  0.4922 -0.2472
 6308WAT     H125952   3.721   6.470   6.806  1.3009 -0.2793 -0.6984
 6308WAT     H225953   3.721   6.333   6.805 -0.9425 -0.3039 -0.9494
 6308WAT    EPW25954   3.686   6.401   6.820  0.3283  0.2606 -0.4176
 6309WAT      O25955   5.214   4.569   4.089  0.4727  0.1032 -0.7038
 6309WAT     H125956   5.173   4.494   4.111  0.7103 -0.2699 -1.5130
 6309WAT     H225957   5.282   4.570   4.143 -0.0563  0.2310 -0.0206
 6309WAT    EPW25958   5.218   4.558   4.100  0.4296  0.0670 -0.7224
 6310WAT      O25959   0.258   6.658   5.000 -0.1681 -0.6123  0.0764
 6310WAT     H125960   0.186   6.610   5.011 -0.1805 -0.5557  0.2477
 6310WAT     H225961   0.275   6.689   5.080 -0.7933  0.5796 -0.2380
 6310WAT    EPW25962   0.250   6.655   5.013 -0.2623 -0.4279  0.0553
 6311WAT      O25963   5.313   2.662   0.710 -0.4552 -0.6601  0.0906
 6311WAT     H125964   5.236   2.633   0.739 -0.5916 -0.0860  0.3186
 6311WAT     H225965   5.328   2.612   0.640 -0.9757 -0.8580  0.1114
 6311WAT    EPW25966   5.304   2.650   0.704 -0.5522 -0.6045  0.1273
 6312WAT      O25967   3.461   3.115   4.844  0.3431 -0.1864  0.2280
 6312WAT     H125968   3.475   3.180   4.786  0.2955 -1.6784 -1.5437
 6312WAT     H225969   3.374   3.113   4.852  0.3875  0.6811  1.2062
 6312WAT    EPW25970   3.450   3.125   4.836  0.3426 -0.2786  0.1108
 6313WAT      O25971   3.047   5.857   4.569  0.1635  0.3760 -0.8188
 6313WAT     H125972   2.961   5.871   4.570  0.4940  2.7450 -0.6722
 6313WAT     H225973   3.069   5.861   4.653  0.6696  1.7830 -1.0014
 6313WAT    EPW25974   3.037   5.859   4.582  0.2871  0.9338 -0.8241
 6314WAT      O25975   5.507   2.920   1.581 -0.2725  0.3800 -0.0557
 6314WAT     H125976   5.526   3.003   1.561 -0.6431  0.5308  0.2066
 6314WAT     H225977   5.579   2.891   1.620  0.2030  0.2914 -0.9794
 6314WAT    EPW25978   5.520   2.928   1.584 -0.2570  0.3892 -0.1534
 6315WAT      O25979   3.948   1.882   1.606 -0.1835 -0.3535  0.0359
 6315WAT     H125980   4.022   1.837   1.608 -0.0850 -0.3681 -1.9866
 6315WAT     H225981   3.965   1.947   1.550 -0.9055  1.1530  1.4792
 6315WAT    EPW25982   3.961   1.885   1.598 -0.2756 -0.1331 -0.0497
 6316WAT      O25983   6.919   6.658   1.683  0.1758 -0.1636 -0.3378
 6316WAT     H125984   6.856   6.689   1.631  0.1572  0.0277 -0.2047
 6316WAT     H225985   6.959   6.730   1.711 -0.2387 -0.2224  0.4416
 6316WAT    EPW25986   6.915   6.673   1.679  0.1118 -0.1440 -0.2030
 6317WAT      O25987   4.234   2.927   2.112  0.4896  0.0179  1.0715
 6317WAT     H125988   4.307   2.882   2.096  0.3000  0.0828 -0.0591
 6317WAT     H225989   4.186   2.872   2.160  0.6410 -0.6314  0.4929
 6317WAT    EPW25990   4.238   2.912   2.117  0.4840 -0.0684  0.8190
 6318WAT      O25991   0.545   6.235   3.026  0.9485 -0.2363 -0.4309
 6318WAT     H125992   0.485   6.255   2.966  0.7265 -1.9314 -0.8250
 6318WAT     H225993   0.567   6.153   3.006  2.5553 -0.0525  0.4212
 6318WAT    EPW25994   0.539   6.226   3.014  1.1531 -0.4595 -0.3633
 6319WAT      O25995   4.378   2.248   1.996 -0.1778  0.1983  0.1444
 6319WAT     H125996   4.465   2.257   1.993 -0.0969 -0.7644 -0.8146
 6319WAT     H225997   4.350   2.328   2.016  1.0022  0.1409  2.3806
 6319WAT    EPW25998   4.387   2.261   1.999  0.0084  0.0476  0.3330
 6320WAT      O25999   7.160   6.609   0.269  0.2186 -0.0988 -0.2098
 6320WAT     H126000   7.191   6.683   0.304 -1.6515  1.6022 -1.9470
 6320WAT     H226001   7.226   6.582   0.219 -0.1174  2.2675 -2.1275
 6320WAT    EPW26002   7.175   6.616   0.267 -0.1073  0.5020 -0.7497
 6321WAT      O26003   5.796   1.983   2.286  0.2028 -0.8337  0.1061
 6321WAT     H126004   5.802   2.051   2.231  0.7595  1.7210  3.0641
 6321WAT     H226005   5.713   1.986   2.312  0.3277 -1.0495  0.5215
 6321WAT    EPW26006   5.785   1.994   2.282  0.3035 -0.4882  0.6044
 6322WAT      O26007   5.495   6.156   2.121 -0.2842  0.0365 -0.7387
 6322WAT     H126008   5.419   6.114   2.112  1.0595 -2.8662  0.1344
 6322WAT     H226009   5.507   6.158   2.208  0.0395  1.6411 -0.8039
 6322WAT    EPW26010   5.486   6.150   2.133 -0.0379 -0.1552 -0.6194
 6323WAT      O26011   4.946   2.934   3.175  0.3146  0.3042  0.0091
 6323WAT     H126012   4.967   2.889   3.103  1.4102 -0.3345  0.6934
 6323WAT     H226013   4.938   2.872   3.235 -0.2194  0.8649  0.5250
 6323WAT    EPW26014   4.948   2.918   3.173  0.3976  0.2927  0.1864
 6324WAT      O26015   4.345   4.564   3.476  0.1671 -0.2855  0.6228
 6324WAT     H126016   4.363   4.509   3.410  1.3806 -0.7412  1.3025
 6324WAT     H226017   4.407   4.546   3.535  0.2411  1.4085  1.1168
 6324WAT    EPW26018   4.357   4.553   3.475  0.3573 -0.1026  0.7962
 6325WAT      O26019   5.706   7.211   1.480  0.2076  0.0440  0.2334
 6325WAT     H126020   5.686   7.239   1.400  0.5659 -0.2027  0.0559
 6325WAT     H226021   5.657   7.262   1.532 -2.3215 -1.7155 -0.2428
 6325WAT    EPW26022   5.695   7.223   1.476 -0.1131 -0.2524  0.1368
 6326WAT      O26023   0.706   6.327   4.462 -0.4514 -0.9460  0.2062
 6326WAT     H126024   0.634   6.293   4.426 -1.0055  1.0053 -0.6322
 6326WAT     H226025   0.679   6.358   4.538 -1.1546  1.8881 -1.0741
 6326WAT    EPW26026   0.691   6.326   4.468 -0.6371 -0.2391 -0.1068
 6327WAT      O26027   5.051   5.557   1.297  0.1803 -0.6938 -0.0687
 6327WAT     H126028   5.046   5.609   1.366 -1.9969  1.0894 -1.4358
 6327WAT     H226029   4.992   5.495   1.314  1.0852 -1.4274  0.5061
 6327WAT    EPW26030   5.042   5.555   1.310 -0.0077 -0.5388 -0.1858
 6328WAT      O26031   1.805   0.520   1.271 -0.4939 -0.6686  0.5254
 6328WAT     H126032   1.858   0.498   1.205  0.6011 -1.0557  1.4967
 6328WAT     H226033   1.734   0.470   1.258  0.0878 -1.4141  0.1583
 6328WAT    EPW26034   1.802   0.509   1.259 -0.2462 -0.8359  0.6147
 6329WAT      O26035   5.513   3.950   6.869  0.2280  1.2055  0.9195
 6329WAT     H126036   5.529   4.025   6.827 -1.0598  0.0027 -2.0123
 6329WAT     H226037   5.573   3.896   6.837 -0.3223  0.4157  1.1985
 6329WAT    EPW26038   5.524   3.953   6.858 -0.0435  0.9112  0.5276
 6330WAT      O26039   1.803   6.800   5.394 -0.2152 -0.2096 -0.2601
 6330WAT     H126040   1.751   6.730   5.393 -0.9831  0.3239  0.4394
 6330WAT     H226041   1.880   6.770   5.365 -1.1539 -0.7939 -2.2711
 6330WAT    EPW26042   1.807   6.786   5.390 -0.4673 -0.2171 -0.4539
 6331WAT      O26043   5.335   0.826   6.096  0.2764 -0.7434 -0.0643
 6331WAT     H126044   5.373   0.781   6.161  2.9001 -1.0987 -1.6959
 6331WAT     H226045   5.254   0.792   6.093 -0.0167 -0.6438  2.9722
 6331WAT    EPW26046   5.328   0.814   6.105  0.6207 -0.7812  0.1432
 6332WAT      O26047   3.361   5.730   0.343 -0.0575  0.2808 -0.7160
 6332WAT     H126048   3.340   5.651   0.372 -1.2047  0.3872 -1.2033
 6332WAT     H226049   3.309   5.741   0.274  0.9921  0.9486 -1.4431
 6332WAT    EPW26050   3.350   5.720   0.337 -0.0719  0.3952 -0.8954
 6333WAT      O26051   6.913   2.683   0.264  0.2758 -0.3809 -0.4915
 6333WAT     H126052   6.927   2.726   0.189 -0.4299  0.0177 -0.4100
 6333WAT     H226053   6.887   2.604   0.237 -1.8260  0.3405 -0.7385
 6333WAT    EPW26054   6.911   2.678   0.249 -0.1389 -0.2154 -0.5160
 6334WAT      O26055   3.155   4.218   6.913 -0.3281 -0.3002 -0.7738
 6334WAT     H126056   3.239   4.204   6.898 -0.1408  0.8478 -0.8741
 6334WAT     H226057   3.126   4.255   6.840 -0.5915  0.5862 -0.2416
 6334WAT    EPW26058   3.163   4.222   6.900 -0.3393  0.0003 -0.7100
 6335WAT      O26059   0.297   2.077   5.550  0.9252 -0.4626 -0.6878
 6335WAT     H126060   0.304   2.022   5.617  0.6946  0.8297  0.4351
 6335WAT     H226061   0.368   2.128   5.558 -0.3951  1.3582  0.1891
 6335WAT    EPW26062   0.309   2.077   5.561  0.6961 -0.0027 -0.3924
 6336WAT      O26063   0.653   1.664   1.194 -0.4676  0.1800  0.6589
 6336WAT     H126064   0.696   1.725   1.239 -1.4576  0.5631  1.1227
 6336WAT     H226065   0.652   1.595   1.248  0.9724 -0.4022 -0.0116
 6336WAT    EPW26066   0.659   1.663   1.209 -0.4012  0.1506  0.6284
 6337WAT      O26067   2.993   2.051   4.234 -0.3421  0.2226  0.2084
 6337WAT     H126068   2.908   2.044   4.253 -0.3544  0.6663  0.3329
 6337WAT     H226069   3.028   2.086   4.305  0.0520 -0.5009  0.3803
 6337WAT    EPW26070   2.986   2.055   4.247 -0.2857  0.1813  0.2522
 6338WAT      O26071   4.992   1.198   2.686  0.0937  0.3161 -0.2650
 6338WAT     H126072   4.998   1.284   2.677  1.7324  0.2437 -0.1389
 6338WAT     H226073   4.994   1.185   2.772  0.7424  0.1204 -0.3012
 6338WAT    EPW26074   4.993   1.209   2.697  0.4316  0.2765 -0.2517
 6339WAT      O26075   6.788   2.829   5.543 -0.2879 -0.2403  0.0951
 6339WAT     H126076   6.853   2.866   5.499 -0.4530 -0.2403 -0.1505
 6339WAT     H226077   6.763   2.892   5.598 -1.1918  0.3725 -0.9670
 6339WAT    EPW26078   6.794   2.844   5.545 -0.4458 -0.1498 -0.0981
 6340WAT      O26079   2.642   5.835   2.418  0.1865  0.2463 -0.0609
 6340WAT     H126080   2.585   5.834   2.352  1.8684  2.1000 -1.6850
 6340WAT     H226081   2.595   5.864   2.485 -1.5761 -1.6791 -0.3840
 6340WAT    EPW26082   2.627   5.840   2.418  0.1746  0.2357 -0.3485
 6341WAT      O26083   6.635   3.361   4.358 -0.2245  0.1124  0.1502
 6341WAT     H126084   6.615   3.411   4.289 -0.0926  1.5466  1.1201
 6341WAT     H226085   6.567   3.306   4.364 -0.5895  0.4660 -0.6618
 6341WAT    EPW26086   6.622   3.360   4.349 -0.2590  0.3765  0.1736
 6342WAT      O26087   0.868   4.728   3.818 -0.6360  0.2150  0.8313
 6342WAT     H126088   0.851   4.811   3.800 -0.2228  0.2125  0.3978
 6342WAT     H226089   0.862   4.688   3.740 -1.3366 -0.2551  1.1154
 6342WAT    EPW26090   0.865   4.734   3.804 -0.6784  0.1452  0.8093
 6343WAT      O26091   3.632   2.803   1.351 -0.1812 -0.8585 -0.5725
 6343WAT     H126092   3.647   2.724   1.384  0.6754 -1.4279 -2.2105
 6343WAT     H226093   3.560   2.830   1.393  1.5476 -0.9067  2.7096
 6343WAT    EPW26094   3.623   2.796   1.362  0.2007 -0.9498 -0.3296
 6344WAT      O26095   1.569   0.150   4.858  0.8193 -0.1440  0.3350
 6344WAT     H126096   1.575   0.069   4.826  0.8163  0.1719 -0.5101
 6344WAT     H226097   1.488   0.174   4.838  0.7784  0.0173  0.6949
 6344WAT    EPW26098   1.558   0.142   4.850  0.8128 -0.0735  0.2633
 6345WAT      O26099   4.325   5.200   4.402  0.7775 -0.8252 -0.1791
 6345WAT     H126100   4.294   5.153   4.335 -0.1619 -0.1873 -0.2153
 6345WAT     H226101   4.402   5.164   4.419 -0.6275 -3.6167  0.9814
 6345WAT    EPW26102   4.332   5.188   4.395  0.4312 -1.1433 -0.0130
 6346WAT      O26103   6.884   7.223   5.824  0.3029  0.6857 -0.1191
 6346WAT     H126104   6.817   7.175   5.797  0.8470  0.4409 -1.0520
 6346WAT     H226105   6.852   7.266   5.893 -0.3851 -0.4894  0.3088
 6346WAT    EPW26106   6.870   7.222   5.830  0.2816  0.4759 -0.1937
 6347WAT      O26107   7.061   4.992   0.438  0.3374  0.0477  0.1789
 6347WAT     H126108   7.126   4.970   0.384 -0.4969 -0.1764 -0.7627
 6347WAT     H226109   7.100   4.997   0.516  1.4499 -0.2201 -0.3393
 6347WAT    EPW26110   7.076   4.990   0.442  0.3785 -0.0250 -0.0367
 6348WAT      O26111   0.570   0.723   5.946 -0.0079  0.3464  0.1137
 6348WAT     H126112   0.568   0.801   5.985  0.4759  0.8899 -0.9031
 6348WAT     H226113   0.487   0.708   5.925 -0.2514  0.1151  1.1919
 6348WAT    EPW26114   0.558   0.732   5.948  0.0276  0.3925  0.1227
 6349WAT      O26115   4.098   1.928   6.036  0.1776  0.2661  0.2115
 6349WAT     H126116   4.178   1.899   6.015  0.7967  1.8364  0.2518
 6349WAT     H226117   4.111   2.012   6.053 -1.5696  0.6375 -0.1241
 6349WAT    EPW26118   4.112   1.936   6.035  0.0109  0.5530  0.1679
 6350WAT      O26119   6.889   4.745   5.301 -0.5806 -0.2481 -0.1476
 6350WAT     H126120   6.968   4.716   5.281  0.4491  1.9607  0.4270
 6350WAT     H226121   6.889   4.750   5.388 -1.3002 -0.0769 -0.1437
 6350WAT    EPW26122   6.900   4.741   5.311 -0.5348  0.1035 -0.0621
 6351WAT      O26123   5.537   1.085   6.710  0.2218  0.6318 -0.4297
 6351WAT     H126124   5.476   1.063   6.652  0.4797 -0.9734 -0.1385
 6351WAT     H226125   5.594   1.019   6.706 -1.0039 -0.9116  3.3870
 6351WAT    EPW26126   5.537   1.072   6.701  0.0788  0.1667  0.1771
 6352WAT      O26127   3.396   2.834   2.849 -0.2192  0.3262 -0.1876
 6352WAT     H126128   3.370   2.917   2.845 -0.6830  0.1405 -1.3683
 6352WAT     H226129   3.327   2.789   2.822  0.8717 -0.2435 -2.3096
 6352WAT    EPW26130   3.382   2.839   2.844 -0.1265  0.2146 -0.6754
 6353WAT      O26131   0.909   2.820   3.296 -0.8088 -0.7868  0.3605
 6353WAT     H126132   0.956   2.894   3.298 -0.8758 -0.5599 -2.2076
 6353WAT     H226133   0.968   2.758   3.313  0.9851 -0.6170 -3.8192
 6353WAT    EPW26134   0.925   2.822   3.299 -0.5537 -0.7282 -0.6363
 6354WAT      O26135   5.914   4.044   3.911  0.1701 -0.9257 -0.0742
 6354WAT     H126136   5.846   4.097   3.923  1.1864  0.0311  2.0206
 6354WAT     H226137   5.944   4.067   3.832 -1.5967 -1.0458 -0.8290
 6354WAT    EPW26138   5.909   4.055   3.901  0.0592 -0.8021  0.1238
 6355WAT      O26139   4.493   2.799   5.067  0.8504  0.1654 -0.0703
 6355WAT     H126140   4.467   2.729   5.112 -0.6396  0.9639  0.3719
 6355WAT     H226141   4.580   2.791   5.065  0.7485 -1.3435  0.5372
 6355WAT    EPW26142   4.502   2.788   5.074  0.6152  0.0605  0.0847
 6356WAT      O26143   5.597   2.159   6.282  0.0691 -0.1299 -0.0386
 6356WAT     H126144   5.552   2.086   6.298  0.6775 -0.6969 -0.8527
 6356WAT     H226145   5.550   2.199   6.221  1.2177 -1.3050 -1.7816
 6356WAT    EPW26146   5.583   2.154   6.275  0.3286 -0.3872 -0.4163
 6357WAT      O26147   6.888   4.011   3.936 -0.0425 -0.1557 -0.0305
 6357WAT     H126148   6.841   3.938   3.934 -0.5264  0.1612 -2.1259
 6357WAT     H226149   6.831   4.073   3.915  0.5236  0.7616  1.0101
 6357WAT    EPW26150   6.873   4.009   3.933 -0.0304  0.0266 -0.1863
 6358WAT      O26151   2.232   0.719   0.258  0.4560 -0.3762  0.1371
 6358WAT     H126152   2.248   0.646   0.304  0.4392 -0.4770 -0.0160
 6358WAT     H226153   2.305   0.731   0.212  0.8181  0.2283  0.8555
 6358WAT    EPW26154   2.245   0.710   0.258  0.5070 -0.3018  0.2206
 6359WAT      O26155   2.183   4.299   0.048  0.0749  0.2283 -0.2121
 6359WAT     H126156   2.159   4.216   0.058 -0.7933  0.5072  0.1107
 6359WAT     H226157   2.240   4.311   0.113  0.5618 -0.2414 -0.5468
 6359WAT    EPW26158   2.188   4.289   0.059  0.0186  0.2001 -0.2139
 6360WAT      O26159   0.473   1.524   5.525  0.3500  0.3060  0.2722
 6360WAT     H126160   0.491   1.484   5.600  2.9293  0.6573 -0.0956
 6360WAT     H226161   0.477   1.609   5.545 -3.0796  0.5505  0.5773
 6360WAT    EPW26162   0.476   1.530   5.539  0.2244  0.3940  0.2629
 6361WAT      O26163   4.158   6.691   2.782 -0.1322  0.4666 -0.5836
 6361WAT     H126164   4.097   6.694   2.720  1.9701  1.0420 -2.7798
 6361WAT     H226165   4.125   6.635   2.841 -2.1243 -0.3388 -2.3368
 6361WAT    EPW26166   4.144   6.683   2.782 -0.1159  0.4327 -1.1670
 6362WAT      O26167   0.230   5.202   0.351 -0.4173 -0.3930 -0.3021
 6362WAT     H126168   0.201   5.176   0.430  0.8103 -4.2946 -0.9326
 6362WAT     H226169   0.228   5.290   0.357 -2.4282 -0.4642  3.2345
 6362WAT    EPW26170   0.225   5.211   0.364 -0.5330 -0.9798  0.1272
 6363WAT      O26171   2.662   3.994   6.456 -0.0188 -0.4224  0.8865
 6363WAT     H126172   2.649   3.921   6.502  1.0379  0.4721  2.7518
 6363WAT     H226173   2.582   4.027   6.447 -0.4748 -1.6357  0.2659
 6363WAT    EPW26174   2.649   3.988   6.461  0.0700 -0.4695  1.0704
 6364WAT      O26175   6.531   5.855   2.100  0.0539 -0.9404 -0.2950
 6364WAT     H126176   6.597   5.896   2.060  0.7614 -0.5618  1.1838
 6364WAT     H226177   6.466   5.913   2.098  0.1536 -0.8380 -0.6523
 6364WAT    EPW26178   6.531   5.870   2.093  0.1731 -0.8694 -0.1293
 6365WAT      O26179   1.938   6.466   3.023 -0.0582  0.0050 -0.0980
 6365WAT     H126180   1.965   6.400   2.972  0.5086  0.3951 -0.3114
 6365WAT     H226181   1.925   6.531   2.967 -3.0087 -0.5957 -0.2379
 6365WAT    EPW26182   1.940   6.466   3.007 -0.4103 -0.0261 -0.1502
 6366WAT      O26183   0.805   2.609   2.713 -0.2755  0.4426 -0.1777
 6366WAT     H126184   0.886   2.612   2.743  0.0438 -0.4580 -0.8908
 6366WAT     H226185   0.761   2.566   2.775 -0.1547  0.6774  0.0738
 6366WAT    EPW26186   0.810   2.603   2.726 -0.2105  0.3443 -0.2459
 6367WAT      O26187   4.579   0.195   1.397  0.2433  0.2567 -0.6921
 6367WAT     H126188   4.560   0.238   1.470  0.3527 -0.1609 -0.4103
 6367WAT     H226189   4.666   0.196   1.395  0.2145  1.3822 -1.5002
 6367WAT    EPW26190   4.589   0.201   1.408  0.2552  0.3613 -0.7699
 6368WAT      O26191   6.040   4.635   4.336 -0.2897 -0.6558 -0.3393
 6368WAT     H126192   6.069   4.588   4.404  2.0252  0.3128 -0.5965
 6368WAT     H226193   5.967   4.592   4.312  0.4618 -2.7599  0.8660
 6368WAT    EPW26194   6.033   4.622   4.343  0.1632 -0.8236 -0.1993
 6369WAT      O26195   0.670   4.451   1.666  0.0741  0.6598  0.2879
 6369WAT     H126196   0.725   4.497   1.616 -1.1400  1.3234 -0.4875
 6369WAT     H226197   0.634   4.512   1.717  0.2146  0.1938  0.9502
 6369WAT    EPW26198   0.673   4.467   1.666 -0.0845  0.6890  0.2712
 6370WAT      O26199   6.115   2.232   5.042 -0.0812 -0.2804  0.3108
 6370WAT     H126200   6.067   2.172   5.000 -1.1677  0.2966  0.6829
 6370WAT     H226201   6.062   2.301   5.046  0.1028 -0.1822  2.2699
 6370WAT    EPW26202   6.100   2.233   5.036 -0.2145 -0.1807  0.6552
 6371WAT      O26203   6.235   0.268   7.136 -0.2418 -0.3456 -0.1108
 6371WAT     H126204   6.301   0.212   7.126 -0.7125 -0.9655  0.1637
 6371WAT     H226205   6.274   0.345   7.138  0.5940 -0.7615  1.0152
 6371WAT    EPW26206   6.250   0.271   7.135 -0.1879 -0.4986  0.0961
 6372WAT      O26207   0.737   0.017   5.288 -0.1337  0.1706  0.3255
 6372WAT     H126208   0.736  -0.049   5.345 -1.1613 -0.8445 -0.7998
 6372WAT     H226209   0.821   0.023   5.264 -0.1832 -1.6548 -0.5224
 6372WAT    EPW26210   0.749   0.008   5.293 -0.2928 -0.2490  0.0340
 6373WAT      O26211   3.668   0.381   2.404  0.1965  0.1662 -0.3796
 6373WAT     H126212   3.648   0.377   2.489 -0.1317  1.4180 -0.3867
 6373WAT     H226213   3.715   0.454   2.397 -2.0322  1.5815 -1.6984
 6373WAT    EPW26214   3.672   0.391   2.415 -0.1812  0.5602 -0.5755
 6374WAT      O26215   1.800   1.827   3.901  0.3040 -0.1307 -0.4639
 6374WAT     H126216   1.815   1.871   3.828  1.5976  2.3096  1.1661
 6374WAT     H226217   1.743   1.877   3.944  2.0431  0.2130  1.5847
 6374WAT    EPW26218   1.794   1.841   3.897  0.7520  0.2806  0.0795
 6375WAT      O26219   0.213   5.853   7.137  0.4648 -0.2259 -0.1512
 6375WAT     H126220   0.214   5.921   7.083  1.8993 -1.1539 -1.3662
 6375WAT     H226221   0.294   5.851   7.170 -0.1542 -0.1549  1.4407
 6375WAT    EPW26222   0.225   5.863   7.134  0.5853 -0.3525 -0.0955
 6376WAT      O26223   3.451   2.996   7.129 -0.1713 -0.3200 -0.3576
 6376WAT     H126224   3.534   3.011   7.107 -0.4450 -0.3496 -1.4721
 6376WAT     H226225   3.451   2.911   7.149  0.5166  0.1571  1.8945
 6376WAT    EPW26226   3.463   2.986   7.129 -0.1101 -0.2539 -0.1895
 6377WAT      O26227   2.181   4.727   2.673  0.5008  0.6992 -0.2440
 6377WAT     H126228   2.246   4.678   2.644 -1.1010 -1.7656  0.0103
 6377WAT     H226229   2.134   4.744   2.602 -0.1704 -0.1346 -0.0130
 6377WAT    EPW26230   2.183   4.723   2.658  0.1650  0.2120 -0.1724
 6378WAT      O26231   4.205   0.147   4.334 -0.3480  0.1602  0.7109
 6378WAT     H126232   4.198   0.234   4.331  1.5591  0.3506  0.5744
 6378WAT     H226233   4.165   0.120   4.262 -1.4446  0.8667  1.0336
 6378WAT    EPW26234   4.198   0.156   4.323 -0.2283  0.2927  0.7384
 6379WAT      O26235   4.195   1.260   5.650 -0.4370 -0.2840 -0.2134
 6379WAT     H126236   4.214   1.278   5.567  0.1524  3.5187  0.5562
 6379WAT     H226237   4.112   1.285   5.657 -0.9285 -1.9163  0.0779
 6379WAT    EPW26238   4.186   1.266   5.639 -0.4225  0.0366 -0.0567
 6380WAT      O26239   0.837   0.637   5.143  0.0597  0.3953  0.0060
 6380WAT     H126240   0.876   0.627   5.066 -0.5054  1.1661 -0.3960
 6380WAT     H226241   0.876   0.707   5.177 -1.2323  1.4566 -0.5992
 6380WAT    EPW26242   0.848   0.646   5.137 -0.2146  0.6659 -0.1428
 6381WAT      O26243   1.306   4.169   4.970 -0.0993 -0.2203  0.4196
 6381WAT     H126244   1.350   4.242   4.950 -0.0222 -0.4841 -0.4142
 6381WAT     H226245   1.364   4.106   4.955 -0.8779 -0.6083 -1.1098
 6381WAT    EPW26246   1.321   4.170   4.965 -0.2030 -0.3166  0.0705
 6382WAT      O26247   1.680   0.594   1.664  0.1705 -0.1726 -0.1305
 6382WAT     H126248   1.650   0.676   1.667 -1.5198 -0.7260  3.4310
 6382WAT     H226249   1.725   0.586   1.738 -1.4139 -2.9529  0.6637
 6382WAT    EPW26250   1.682   0.605   1.675 -0.3132 -0.6651  0.5130
 6383WAT      O26251   4.369   0.333   0.602 -0.1092 -0.4231  0.4546
 6383WAT     H126252   4.325   0.345   0.676 -0.0400  0.4830  0.3525
 6383WAT     H226253   4.451   0.320   0.629 -0.1067 -0.2236  0.5432
 6383WAT    EPW26254   4.375   0.333   0.617 -0.0986 -0.2598  0.4526
 6384WAT      O26255   4.055   2.427   2.715 -0.3017 -0.2681 -0.2703
 6384WAT     H126256   4.018   2.375   2.775 -0.0067  0.7185  0.7980
 6384WAT     H226257   4.032   2.507   2.740  0.6551  0.2283 -0.9246
 6384WAT    EPW26258   4.046   2.431   2.727 -0.1168 -0.0490 -0.2091
 6385WAT      O26259   6.623   2.465   6.538  0.2856  0.4862 -0.4793
 6385WAT     H126260   6.657   2.473   6.458  3.3274  0.5743  0.6992
 6385WAT     H226261   6.646   2.539   6.578  0.4585 -0.3166  0.9977
 6385WAT    EPW26262   6.632   2.477   6.532  0.7605  0.3807 -0.0870
 6386WAT      O26263   1.216   5.641   3.175  0.1608 -0.7189 -0.1626
 6386WAT     H126264   1.293   5.682   3.166 -0.1291 -0.2518 -0.5809
 6386WAT     H226265   1.238   5.557   3.175  0.5373 -0.6758 -2.0373
 6386WAT    EPW26266   1.231   5.635   3.173  0.1736 -0.6435 -0.5013
 6387WAT      O26267   1.773   1.156   2.185  0.2845  0.0298 -0.0942
 6387WAT     H126268   1.782   1.209   2.254  1.2419 -0.1905 -0.0401
 6387WAT     H226269   1.847   1.111   2.183  0.1150 -0.2401 -1.0485
 6387WAT    EPW26270   1.785   1.157   2.195  0.4009 -0.0426 -0.2272
 6388WAT      O26271   2.675   6.646   6.570  0.6329  0.2209 -0.2786
 6388WAT     H126272   2.668   6.602   6.496  1.6623  1.5900 -1.2311
 6388WAT     H226273   2.623   6.603   6.625  3.5174 -3.8152 -0.2908
 6388WAT    EPW26274   2.666   6.633   6.567  1.2111 -0.1731 -0.4211
 6389WAT      O26275   0.202   3.727   7.195 -0.7564 -0.1176 -0.2483
 6389WAT     H126276   0.159   3.746   7.269  0.4747 -0.1996  0.5095
 6389WAT     H226277   0.145   3.750   7.132 -1.2124  1.4484  0.6804
 6389WAT    EPW26278   0.187   3.733   7.197 -0.6419  0.1016  0.0008
 6390WAT      O26279   6.374   6.527   0.713  0.0810  0.0552  0.0671
 6390WAT     H126280   6.340   6.588   0.766  1.1502 -0.0736  0.9370
 6390WAT     H226281   6.413   6.472   0.768  0.4228 -0.5947 -0.8082
 6390WAT    EPW26282   6.375   6.528   0.729  0.2895 -0.0598  0.0663
 6391WAT      O26283   4.259   1.477   4.491  0.4165 -0.0671 -0.1059
 6391WAT     H126284   4.278   1.493   4.575  2.1282 -0.8068 -0.3125
 6391WAT     H226285   4.336   1.461   4.455 -0.4713 -2.1205 -1.3154
 6391WAT    EPW26286   4.273   1.477   4.498  0.5382 -0.4797 -0.3151
 6392WAT      O26287   3.800   6.070   2.857 -0.1811  0.4710 -0.5196
 6392WAT     H126288   3.717   6.048   2.844 -0.2388  0.6286 -0.4206
 6392WAT     H226289   3.796   6.128   2.922 -0.0963  1.2081 -1.1554
 6392WAT    EPW26290   3.787   6.075   2.865 -0.1771  0.6032 -0.5989
 6393WAT      O26291   3.971   7.156   5.380  0.0454  0.0590  0.7726
 6393WAT     H126292   4.052   7.124   5.388  0.5051  0.2415 -2.1494
 6393WAT     H226293   3.929   7.094   5.334 -0.9990  0.7385  0.7755
 6393WAT    EPW26294   3.976   7.142   5.374 -0.0410  0.1863  0.3414
 6394WAT      O26295   0.806   1.279   6.207 -0.1540 -0.4484  0.0011
 6394WAT     H126296   0.815   1.204   6.162  1.8770  0.6600 -1.6026
 6394WAT     H226297   0.731   1.311   6.177  0.9891  0.1169 -2.5897
 6394WAT    EPW26298   0.796   1.272   6.196  0.3149 -0.2012 -0.6185
 6395WAT      O26299   6.477   0.348   6.303  0.3703 -1.1384  0.5784
 6395WAT     H126300   6.396   0.316   6.297  0.4693 -1.4771  0.9390
 6395WAT     H226301   6.523   0.281   6.337  0.9412 -1.1786 -0.2315
 6395WAT    EPW26302   6.472   0.333   6.307  0.4693 -1.1944  0.5120
 6396WAT      O26303   1.167   6.822   5.689 -0.1060  0.1107 -0.5020
 6396WAT     H126304   1.173   6.759   5.628 -1.4522 -0.2321 -0.3104
 6396WAT     H226305   1.244   6.818   5.730  0.5322 -0.1720 -1.6656
 6396WAT    EPW26306   1.179   6.812   5.686 -0.2106  0.0183 -0.6456
 6397WAT      O26307   1.154   1.458   1.058 -0.3994 -0.1364  0.2375
 6397WAT     H126308   1.113   1.398   1.008  0.2861 -0.2084 -0.2540
 6397WAT     H226309   1.141   1.532   1.015 -0.5941 -0.0500  0.4438
 6397WAT    EPW26310   1.146   1.460   1.044 -0.3269 -0.1343  0.1953
 6398WAT      O26311   2.999   4.475   1.222 -0.4933  0.8180 -0.2688
 6398WAT     H126312   3.015   4.555   1.192 -0.8169  0.9922  0.0104
 6398WAT     H226313   2.913   4.475   1.235 -0.4586  0.5126 -0.0226
 6398WAT    EPW26314   2.989   4.487   1.220 -0.5360  0.7987 -0.1912
 6399WAT      O26315   5.330   2.415   5.085 -0.1060 -0.1484  0.0254
 6399WAT     H126316   5.334   2.404   5.171  2.5829  0.6619  0.0860
 6399WAT     H226317   5.251   2.449   5.073 -1.0500 -1.4321  1.9774
 6399WAT    EPW26318   5.319   2.418   5.096  0.1518 -0.2183  0.3227
 6400WAT      O26319   0.479   2.750   3.871 -0.3755 -0.4884  0.4053
 6400WAT     H126320   0.431   2.686   3.835  0.5483 -0.7272 -0.4633
 6400WAT     H226321   0.503   2.798   3.802 -0.0806  0.1124  0.9199
 6400WAT    EPW26322   0.475   2.748   3.855 -0.1955 -0.4349  0.3530
 6401WAT      O26323   5.228   2.487   1.007 -0.4173 -0.4637 -0.0108
 6401WAT     H126324   5.176   2.419   0.991 -1.3404 -0.1428  1.4703
 6401WAT     H226325   5.187   2.554   0.970 -0.2782 -0.4627 -0.1639
 6401WAT    EPW26326   5.214   2.486   0.999 -0.5331 -0.4161  0.1854
 6402WAT      O26327   5.671   2.075   3.123 -0.0946 -0.3956 -0.2604
 6402WAT     H126328   5.694   2.150   3.161 -2.9497  0.1373  0.7035
 6402WAT     H226329   5.659   2.097   3.039 -0.9310  0.2981  0.0154
 6402WAT    EPW26330   5.672   2.089   3.116 -0.6399 -0.2144 -0.0773
 6403WAT      O26331   4.118   0.252   2.878  0.2973  0.0047 -0.0875
 6403WAT     H126332   4.101   0.335   2.894 -2.2456 -0.5716  0.6542
 6403WAT     H226333   4.141   0.220   2.956  0.0433 -0.2165 -0.0987
 6403WAT    EPW26334   4.119   0.259   2.892 -0.1159 -0.1131  0.0204
 6404WAT      O26335   4.911   4.458   0.416 -0.6751  0.0377 -0.2824
 6404WAT     H126336   4.922   4.435   0.499 -1.5642  2.4484  0.6083
 6404WAT     H226337   4.986   4.433   0.378  0.8051  0.9749  1.7879
 6404WAT    EPW26338   4.924   4.451   0.422 -0.5878  0.5323  0.1550
 6405WAT      O26339   0.525   6.188   1.979  0.3484 -0.4766  0.4258
 6405WAT     H126340   0.541   6.105   2.001 -0.2351 -0.4734  0.9081
 6405WAT     H226341   0.464   6.181   1.917  1.0275 -0.4356 -0.2619
 6405WAT    EPW26342   0.518   6.174   1.973  0.3625 -0.4700  0.3955
 6406WAT      O26343   3.922   2.574   5.000  0.2385  0.6309  1.0121
 6406WAT     H126344   3.933   2.586   4.914  0.3422  2.6749  1.2577
 6406WAT     H226345   3.949   2.492   5.013  0.5081  0.3769 -0.8468
 6406WAT    EPW26346   3.927   2.564   4.989  0.2936  0.8953  0.7738
 6407WAT      O26347   0.867   4.141   1.421  0.5678  0.2824 -0.7498
 6407WAT     H126348   0.921   4.142   1.490 -0.5024 -0.7129  0.1598
 6407WAT     H226349   0.921   4.134   1.353  1.6620  1.2350 -0.0275
 6407WAT    EPW26350   0.883   4.140   1.421  0.5713  0.2761 -0.5087
 6408WAT      O26351   3.234   4.272   7.260 -0.5411  0.2502  0.5745
 6408WAT     H126352   3.297   4.325   7.231 -0.9691  1.5665  1.9483
 6408WAT     H226353   3.272   4.194   7.259  0.4197  0.6928 -0.6346
 6408WAT    EPW26354   3.249   4.269   7.256 -0.4624  0.5100  0.5989
 6409WAT      O26355   3.330   7.131   7.206 -0.1243 -0.7030 -0.2146
 6409WAT     H126356   3.347   7.157   7.287 -0.5269 -0.6922 -0.1345
 6409WAT     H226357   3.297   7.051   7.216 -2.9746  0.3768 -0.1248
 6409WAT    EPW26358   3.328   7.123   7.219 -0.6048 -0.5419 -0.1895
 6410WAT      O26359   1.517   6.911   0.585 -0.2330 -0.1105 -0.1468
 6410WAT     H126360   1.445   6.909   0.536 -0.2106  0.4905 -0.2120
 6410WAT     H226361   1.577   6.945   0.532 -0.1962  0.4914  0.2694
 6410WAT    EPW26362   1.515   6.916   0.570 -0.2242  0.0672 -0.0949
 6411WAT      O26363   1.170   2.166   4.865 -0.1536 -0.4649 -0.4826
 6411WAT     H126364   1.240   2.120   4.891 -1.3905 -2.3747 -0.2953
 6411WAT     H226365   1.184   2.178   4.780  1.2715  0.8689 -0.0934
 6411WAT    EPW26366   1.183   2.161   4.856 -0.1258 -0.5500 -0.3974
 6412WAT      O26367   3.132   2.155   3.380 -0.1637  0.1470 -0.1857
 6412WAT     H126368   3.112   2.078   3.345  1.5262 -0.0915 -0.6891
 6412WAT     H226369   3.163   2.201   3.313 -0.2248  0.9221  0.3081
 6412WAT    EPW26370   3.133   2.150   3.365  0.0769  0.2262 -0.1871
 6413WAT      O26371   5.386   7.062   6.602 -0.9545 -0.1722 -0.7543
 6413WAT     H126372   5.446   7.041   6.661 -0.3959 -2.6822 -2.0832
 6413WAT     H226373   5.323   7.101   6.649  1.0531  1.3748  0.8627
 6413WAT    EPW26374   5.386   7.065   6.617 -0.5754 -0.3145 -0.7118
 6414WAT      O26375   0.400   3.068   3.600 -0.0808  0.0233 -0.6633
 6414WAT     H126376   0.339   3.019   3.638  1.1924 -1.3654 -0.3221
 6414WAT     H226377   0.370   3.150   3.610 -1.3348 -0.5403  0.4536
 6414WAT    EPW26378   0.387   3.073   3.607 -0.0780 -0.2651 -0.4479
 6415WAT      O26379   4.434   2.936   3.474 -0.0045 -0.1546  0.5679
 6415WAT     H126380   4.377   2.983   3.521  0.4213  1.2334 -0.2565
 6415WAT     H226381   4.449   2.867   3.524 -1.4140  0.0885  1.3879
 6415WAT    EPW26382   4.427   2.933   3.488 -0.1498  0.0863  0.5672
 6416WAT      O26383   1.423   7.143   2.837 -0.0737  0.4547 -0.0317
 6416WAT     H126384   1.352   7.193   2.851 -1.6073 -1.2416 -1.2709
 6416WAT     H226385   1.420   7.085   2.903  0.1254  0.3323 -0.1305
 6416WAT    EPW26386   1.412   7.142   2.849 -0.2708  0.1860 -0.2294
 6417WAT      O26387   2.430   2.918   4.643  0.5005 -0.4148 -0.0928
 6417WAT     H126388   2.488   2.875   4.692  2.2113  0.9105 -0.8368
 6417WAT     H226389   2.380   2.960   4.701  0.2058 -1.6476  0.5686
 6417WAT    EPW26390   2.432   2.918   4.659  0.7097 -0.4012 -0.1050
 6418WAT      O26391   5.939   0.769   2.481 -0.3782  0.3991  0.4832
 6418WAT     H126392   5.899   0.842   2.453 -2.0107 -0.8027 -0.5047
 6418WAT     H226393   5.872   0.717   2.505  0.5226 -1.7535 -1.3221
 6418WAT    EPW26394   5.923   0.772   2.480 -0.4863 -0.0964  0.0706
 6419WAT      O26395   5.393   5.204   0.339  0.0495  0.8451  0.3012
 6419WAT     H126396   5.435   5.200   0.415  0.0192 -0.1030  0.2797
 6419WAT     H226397   5.310   5.188   0.360  0.1284 -0.0207  0.0094
 6419WAT    EPW26398   5.387   5.201   0.353  0.0567  0.5771  0.2550
 6420WAT      O26399   2.513   2.807   0.011  0.5432  0.2610  0.4427
 6420WAT     H126400   2.570   2.766   0.062  3.3659  0.5881 -2.1675
 6420WAT     H226401   2.516   2.889   0.038 -0.4027 -0.0828  1.6833
 6420WAT    EPW26402   2.522   2.813   0.022  0.8204  0.2585  0.2404
 6421WAT      O26403   1.632   5.884   1.512 -0.2816  0.0338  0.2081
 6421WAT     H126404   1.669   5.905   1.588  2.0785 -0.5623 -0.6757
 6421WAT     H226405   1.641   5.797   1.508  0.2920  0.1220 -1.0317
 6421WAT    EPW26406   1.639   5.874   1.523  0.1518 -0.0412 -0.1056
 6422WAT      O26407   6.625   0.872   3.349 -0.0273  0.5651 -0.3604
 6422WAT     H126408   6.655   0.827   3.417  0.2388  0.1428 -0.7522
 6422WAT     H226409   6.622   0.954   3.379  1.0268  0.5413 -0.1469
 6422WAT    EPW26410   6.629   0.878   3.364  0.1677  0.4992 -0.3867
 6423WAT      O26411   5.085   6.882   5.702 -0.6285 -0.0975 -0.7166
 6423WAT     H126412   5.033   6.951   5.708  1.1641  1.3289 -0.9445
 6423WAT     H226413   5.145   6.895   5.764 -1.0738 -2.2367  0.2637
 6423WAT    EPW26414   5.087   6.894   5.712 -0.4295 -0.2028 -0.6055
 6424WAT      O26415   5.675   2.387   6.896 -0.3550 -0.1545 -0.2763
 6424WAT     H126416   5.640   2.461   6.925 -1.1473 -0.0372 -1.4649
 6424WAT     H226417   5.652   2.329   6.958 -1.9518  0.0954 -0.5757
 6424WAT    EPW26418   5.666   2.389   6.910 -0.7079 -0.1003 -0.4961
 6425WAT      O26419   1.265   3.860   6.854 -0.1648  0.0292  0.4258
 6425WAT     H126420   1.340   3.819   6.874  0.4557  0.7038 -0.4487
 6425WAT     H226421   1.289   3.943   6.846 -0.7880  0.0903 -1.0040
 6425WAT    EPW26422   1.280   3.866   6.856 -0.1652  0.1379  0.0854
 6426WAT      O26423   4.765   2.318   4.179  0.2145 -0.6453  0.0712
 6426WAT     H126424   4.687   2.286   4.203  0.5963 -0.6721  1.3483
 6426WAT     H226425   4.768   2.395   4.219  1.1315 -0.9428  0.5938
 6426WAT    EPW26426   4.754   2.325   4.188  0.4064 -0.6932  0.3371
 6427WAT      O26427   3.909   2.405   1.376  0.1810 -0.1442 -0.1302
 6427WAT     H126428   3.883   2.465   1.433  1.2328  0.0863  0.1302
 6427WAT     H226429   3.991   2.429   1.356  0.0438 -0.5640 -1.2693
 6427WAT    EPW26430   3.917   2.417   1.381  0.3161 -0.1722 -0.2600
 6428WAT      O26431   6.625   5.533   2.007 -0.3743  0.0386 -0.0705
 6428WAT     H126432   6.565   5.510   1.948 -0.7864  0.7804  0.0384
 6428WAT     H226433   6.688   5.570   1.958 -0.5528  0.3337 -0.0784
 6428WAT    EPW26434   6.626   5.535   1.991 -0.4615  0.1918 -0.0556
 6429WAT      O26435   4.528   4.151   1.751  0.2230 -0.5134 -0.1445
 6429WAT     H126436   4.460   4.194   1.784  0.2149 -0.7757  0.1793
 6429WAT     H226437   4.512   4.150   1.665 -0.1830 -0.5823 -0.0701
 6429WAT    EPW26438   4.516   4.157   1.743  0.1618 -0.5623 -0.0857
 6430WAT      O26439   0.818   3.985   3.572 -1.1786  0.6407 -0.4414
 6430WAT     H126440   0.848   3.952   3.497  0.0285  0.1746  0.2237
 6430WAT     H226441   0.794   4.067   3.551 -0.2905  0.7157 -1.1982
 6430WAT    EPW26442   0.819   3.992   3.557 -0.8691  0.5829 -0.4550
 6431WAT      O26443   0.009   1.961   1.593  0.7636  0.4528  0.5802
 6431WAT     H126444  -0.073   1.942   1.618 -0.3268  0.7402 -2.3652
 6431WAT     H226445   0.011   2.049   1.597  0.5713  0.5038 -0.1981
 6431WAT    EPW26446  -0.003   1.972   1.597  0.5741  0.5028  0.0301
 6432WAT      O26447   3.355   6.724   3.068 -0.8093  0.5018  0.1246
 6432WAT     H126448   3.297   6.736   3.005 -0.0123 -0.6097 -0.8604
 6432WAT     H226449   3.408   6.793   3.061  0.8359 -0.8557 -2.2409
 6432WAT    EPW26450   3.355   6.736   3.058 -0.4485  0.1371 -0.3704
 6433WAT      O26451   3.148   3.653   0.903  0.4982 -0.2500  0.2240
 6433WAT     H126452   3.089   3.715   0.890  0.2635 -0.7210 -1.1299
 6433WAT     H226453   3.201   3.687   0.962 -0.0680  0.9305  0.0780
 6433WAT    EPW26454   3.147   3.667   0.909  0.3799 -0.1452  0.0024
 6434WAT      O26455   1.152   0.561   0.886 -0.1637  0.6460  0.2830
 6434WAT     H126456   1.107   0.574   0.813  2.2831  1.9539 -1.1080
 6434WAT     H226457   1.199   0.489   0.870  1.1109  1.4831  0.1402
 6434WAT    EPW26458   1.152   0.552   0.873  0.3860  0.9629  0.0564
 6435WAT      O26459   1.397   6.968   2.114 -0.4868  0.2120  0.6707
 6435WAT     H126460   1.460   6.966   2.053 -1.4775 -0.9483 -0.3688
 6435WAT     H226461   1.362   7.048   2.104 -1.5046 -0.3950 -1.2807
 6435WAT    EPW26462   1.401   6.980   2.103 -0.7835 -0.0490  0.2289
 6436WAT      O26463   2.976   6.548   0.180  0.0860  0.8831 -0.3755
 6436WAT     H126464   3.008   6.524   0.258  0.9969  1.5959 -0.5010
 6436WAT     H226465   3.047   6.575   0.137 -0.3386  0.0596 -1.6266
 6436WAT    EPW26466   2.992   6.549   0.185  0.1578  0.8668 -0.5788
 6437WAT      O26467   0.506   6.141   3.306  0.0114  0.5451 -0.5330
 6437WAT     H126468   0.515   6.185   3.231  1.6984  0.8560 -0.1964
 6437WAT     H226469   0.533   6.061   3.287 -0.3124  0.4075 -0.4335
 6437WAT    EPW26470   0.511   6.136   3.292  0.2128  0.5707 -0.4686
 6438WAT      O26471   1.082   4.453   4.939  0.1490  0.1643 -0.3069
 6438WAT     H126472   1.070   4.393   5.001  0.6679 -0.1751 -0.5326
 6438WAT     H226473   1.042   4.524   4.971  0.7926  0.1254  0.6090
 6438WAT    EPW26474   1.074   4.454   4.953  0.3207  0.1084 -0.2049
 6439WAT      O26475   3.203   1.971   0.567 -0.5602  0.1813 -0.2277
 6439WAT     H126476   3.182   2.006   0.490  0.3278  0.3857 -0.3825
 6439WAT     H226477   3.160   2.020   0.625 -0.4396  0.6510 -0.5317
 6439WAT    EPW26478   3.193   1.983   0.565 -0.4112  0.2809 -0.2955
 6440WAT      O26479   0.307   4.909   6.636  0.1821 -0.0002  0.2397
 6440WAT     H126480   0.393   4.896   6.626  0.4423  0.8648  1.2603
 6440WAT     H226481   0.302   4.969   6.698 -1.2055 -0.6758  0.8210
 6440WAT    EPW26482   0.319   4.916   6.643  0.0156  0.0278  0.4763
 6441WAT      O26483   3.440   6.864   0.187  0.0107 -0.0767  0.3520
 6441WAT     H126484   3.402   6.826   0.255  0.1743 -0.9210 -0.0119
 6441WAT     H226485   3.482   6.798   0.147 -0.5070  0.2871 -0.8493
 6441WAT    EPW26486   3.441   6.849   0.191 -0.0416 -0.1477  0.1208
 6442WAT      O26487   6.408   2.065   5.378  0.3233  0.2436 -0.3385
 6442WAT     H126488   6.427   2.047   5.461 -0.0244 -1.1170 -0.5274
 6442WAT     H226489   6.336   2.114   5.382  0.4723  0.4203  0.1638
 6442WAT    EPW26490   6.400   2.070   5.391  0.2939  0.0687 -0.2922
 6443WAT      O26491   1.573   0.249   6.172 -0.3791  0.2214  0.4170
 6443WAT     H126492   1.630   0.315   6.174 -0.4537  0.4044 -1.5279
 6443WAT     H226493   1.576   0.216   6.252  0.8230  1.6155  0.9756
 6443WAT    EPW26494   1.582   0.254   6.184 -0.2125  0.4544  0.2122
 6444WAT      O26495   1.036   1.284   0.232 -0.0800  0.6305 -0.3539
 6444WAT     H126496   1.076   1.236   0.170  0.7007  1.0865 -0.2239
 6444WAT     H226497   1.070   1.253   0.306  2.8725  3.3139 -0.3221
 6444WAT    EPW26498   1.047   1.272   0.234  0.4715  1.0942 -0.3300
 6445WAT      O26499   6.364   7.027   7.142  0.1383 -0.0520 -0.1294
 6445WAT     H126500   6.317   7.010   7.214 -0.7013 -0.1260 -0.6763
 6445WAT     H226501   6.374   6.948   7.106  0.2826  0.0268 -0.2599
 6445WAT    EPW26502   6.358   7.013   7.147  0.0356 -0.0513 -0.2295
 6446WAT      O26503   6.478   3.227   1.983  1.2715  0.5102  0.2969
 6446WAT     H126504   6.510   3.146   1.990 -0.2274 -0.0680  0.9975
 6446WAT     H226505   6.458   3.247   2.065  0.2505  0.9946 -0.0628
 6446WAT    EPW26506   6.480   3.218   1.996  0.8993  0.4964  0.3473
 6447WAT      O26507   7.140   6.721   2.615 -0.3679 -0.0477  0.1535
 6447WAT     H126508   7.190   6.753   2.679  1.7822 -0.7931 -1.0451
 6447WAT     H226509   7.072   6.776   2.612  1.8919  2.9698 -0.1781
 6447WAT    EPW26510   7.137   6.734   2.624  0.2835  0.2879 -0.0725
 6448WAT      O26511   6.026   2.298   0.475 -0.5932  0.2573 -0.5176
 6448WAT     H126512   6.109   2.275   0.486 -1.0141 -1.5019 -0.6189
 6448WAT     H226513   5.982   2.239   0.522 -1.8166  0.5705 -1.2149
 6448WAT    EPW26514   6.031   2.286   0.484 -0.8361  0.0437 -0.6356
 6449WAT      O26515   4.510   6.342   4.117  0.0921 -0.3524  0.0774
 6449WAT     H126516   4.578   6.392   4.138  0.9689 -1.7672  0.7970
 6449WAT     H226517   4.473   6.324   4.194  0.1281 -1.2402 -0.1029
 6449WAT    EPW26518   4.515   6.347   4.131  0.2269 -0.6926  0.1571
 6450WAT      O26519   6.340   4.398   0.464 -0.1435  0.4914  0.5178
 6450WAT     H126520   6.360   4.430   0.386 -2.3012 -1.1705 -0.8503
 6450WAT     H226521   6.360   4.462   0.519  0.8650  1.9549 -1.4519
 6450WAT    EPW26522   6.346   4.412   0.461 -0.3133  0.4621  0.0247
 6451WAT      O26523   5.251   5.526   0.374  0.0781  0.7407  0.6471
 6451WAT     H126524   5.183   5.556   0.420 -1.2750  1.0775 -1.4580
 6451WAT     H226525   5.214   5.487   0.305  2.0035 -0.2141  0.0724
 6451WAT    EPW26526   5.236   5.525   0.371  0.1626  0.6494  0.2512
 6452WAT      O26527   7.164   3.624   3.613  0.2517  0.1650  0.0073
 6452WAT     H126528   7.249   3.617   3.628  0.4730  0.9119 -0.8180
 6452WAT     H226529   7.132   3.547   3.640  1.5585 -1.1956 -2.0339
 6452WAT    EPW26530   7.171   3.612   3.619  0.4774  0.0744 -0.4161
 6453WAT      O26531   4.824   5.565   2.621 -0.6055  0.4094  0.0559
 6453WAT     H126532   4.845   5.490   2.584  0.1593  0.3595  0.5766
 6453WAT     H226533   4.811   5.544   2.705 -1.9471  0.5817 -0.0800
 6453WAT    EPW26534   4.825   5.551   2.628 -0.6907  0.4275  0.1128
 6454WAT      O26535   4.490   4.908   2.977 -0.0444 -0.3294 -0.2716
 6454WAT     H126536   4.468   4.833   3.015 -0.1224  0.4010  1.1727
 6454WAT     H226537   4.428   4.918   2.916  0.6660 -2.0096 -1.3413
 6454WAT    EPW26538   4.477   4.898   2.973  0.0490 -0.4697 -0.2163
 6455WAT      O26539   2.440   0.447   0.650  0.4234  0.4897  0.5530
 6455WAT     H126540   2.445   0.361   0.641  3.0481  0.4509  1.6651
 6455WAT     H226541   2.523   0.473   0.658 -0.3437  2.6880  3.5904
 6455WAT    EPW26542   2.453   0.438   0.650  0.6978  0.8087  1.1660
 6456WAT      O26543   6.010   2.669   4.861 -0.0914  0.1580  0.4154
 6456WAT     H126544   6.059   2.610   4.821 -0.5014 -0.2429  0.5016
 6456WAT     H226545   5.928   2.647   4.839 -0.2141  1.2544 -0.3436
 6456WAT    EPW26546   6.005   2.657   4.852 -0.1701  0.2607  0.3160
 6457WAT      O26547   5.755   5.254   0.854 -0.2455 -0.7694  0.6184
 6457WAT     H126548   5.785   5.185   0.810 -1.3469 -0.4644 -0.6736
 6457WAT     H226549   5.769   5.321   0.799 -0.8859 -0.2502  1.0772
 6457WAT    EPW26550   5.762   5.253   0.839 -0.5028 -0.6477  0.4953
 6458WAT      O26551   4.897   0.364   1.801  0.2921 -0.1692 -0.3596
 6458WAT     H126552   4.928   0.358   1.882  2.6408 -1.9037 -1.2861
 6458WAT     H226553   4.948   0.424   1.763 -0.3485  0.1322 -0.7691
 6458WAT    EPW26554   4.909   0.372   1.807  0.5444 -0.3809 -0.5570
 6459WAT      O26555   1.321   4.057   2.536  0.1569  0.4861 -0.6209
 6459WAT     H126556   1.393   4.100   2.514  0.3122  0.5918  0.0844
 6459WAT     H226557   1.350   3.993   2.587 -0.4086  1.6005  1.1783
 6459WAT    EPW26558   1.336   4.054   2.540  0.0963  0.6664 -0.2509
 6460WAT      O26559   4.927   5.372   0.479  0.2329  0.3446  0.2600
 6460WAT     H126560   4.863   5.377   0.420  1.2154  1.5951 -0.7589
 6460WAT     H226561   4.964   5.451   0.477  2.8678 -0.7776 -0.4677
 6460WAT    EPW26562   4.923   5.384   0.470  0.7672  0.3636  0.0020
 6461WAT      O26563   5.774   6.469   4.040 -0.7898 -0.2572  0.0024
 6461WAT     H126564   5.797   6.554   4.039 -1.2240 -0.1159  0.7260
 6461WAT     H226565   5.800   6.443   4.119 -1.2895 -0.6166  0.0505
 6461WAT    EPW26566   5.781   6.478   4.052 -0.9278 -0.2894  0.1164
 6462WAT      O26567   1.959   0.501   4.561  0.1354  0.4608  0.3918
 6462WAT     H126568   1.928   0.557   4.620 -0.5735  1.4061 -0.8259
 6462WAT     H226569   2.046   0.508   4.570  0.0511  1.6396  0.3860
 6462WAT    EPW26570   1.967   0.510   4.571  0.0182  0.7746  0.2111
 6463WAT      O26571   1.705   4.939   6.471  0.6110  0.3098  0.0360
 6463WAT     H126572   1.735   5.009   6.429  0.5026  0.4111  0.1280
 6463WAT     H226573   1.777   4.903   6.505  0.4122  1.8820  2.3253
 6463WAT    EPW26574   1.720   4.944   6.469  0.5656  0.5570  0.3877
 6464WAT      O26575   5.043   3.035   1.369  0.9916 -0.0011 -0.4837
 6464WAT     H126576   5.037   3.072   1.289 -0.5872 -1.2744 -0.9895
 6464WAT     H226577   4.976   3.069   1.412  1.9824  0.8691  0.4435
 6464WAT    EPW26578   5.032   3.046   1.363  0.9048 -0.0607 -0.4215
 6465WAT      O26579   4.974   7.182   0.181 -0.4776  0.2684 -0.4338
 6465WAT     H126580   4.915   7.128   0.146 -2.1237  0.8463  1.2381
 6465WAT     H226581   4.962   7.172   0.267  1.6761  0.6844 -0.0318
 6465WAT    EPW26582   4.963   7.173   0.189 -0.4026  0.4152 -0.1274
 6466WAT      O26583   6.302   5.947   4.203 -0.3026 -0.3517 -0.8208
 6466WAT     H126584   6.326   5.885   4.259  1.6180  0.4541 -0.7000
 6466WAT     H226585   6.228   5.979   4.238  0.0273 -0.8987  0.4091
 6466WAT    EPW26586   6.294   5.942   4.216  0.0299 -0.3135 -0.6213
 6467WAT      O26587   2.386   0.323   2.133 -0.0234 -0.3897  0.1577
 6467WAT     H126588   2.384   0.409   2.149  1.0485 -0.6600  2.0923
 6467WAT     H226589   2.463   0.311   2.094  0.4764 -0.6253  1.1823
 6467WAT    EPW26590   2.397   0.334   2.130  0.2088 -0.4644  0.5949
 6468WAT      O26591   4.766   5.847   1.037 -0.4015  0.2166 -0.1341
 6468WAT     H126592   4.701   5.793   1.016 -2.3370  2.4027 -0.1438
 6468WAT     H226593   4.792   5.819   1.115 -1.6994 -0.4606  0.0818
 6468WAT    EPW26594   4.760   5.835   1.046 -0.8791  0.4395 -0.1036
 6469WAT      O26595   6.396   0.172   5.009  0.4323  0.2456  0.7371
 6469WAT     H126596   6.471   0.187   5.050  2.1532 -0.3498 -1.9215
 6469WAT     H226597   6.397   0.229   4.943 -0.9210 -0.4976  0.0170
 6469WAT    EPW26598   6.407   0.183   5.005  0.4866  0.0479  0.2380
 6470WAT      O26599   7.033   3.693   0.062  0.1371  0.4234  0.2765
 6470WAT     H126600   7.026   3.755   0.124 -2.4658  0.3427  0.2036
 6470WAT     H226601   7.009   3.735  -0.011 -0.1545 -0.2936 -0.0458
 6470WAT    EPW26602   7.028   3.709   0.060 -0.2905  0.3056  0.2181
 6471WAT      O26603   3.336   2.583   3.369 -0.4281  0.6448  0.4918
 6471WAT     H126604   3.355   2.649   3.316  0.1547 -0.0156 -0.1425
 6471WAT     H226605   3.249   2.580   3.368 -0.4199  0.1655 -1.0591
 6471WAT    EPW26606   3.326   2.592   3.361 -0.3408  0.4764  0.1690
 6472WAT      O26607   1.302   3.735   3.486  0.0526  0.3921 -0.2087
 6472WAT     H126608   1.350   3.803   3.512 -0.0638  0.3953 -0.0010
 6472WAT     H226609   1.354   3.667   3.500  0.9096  0.5843 -2.1918
 6472WAT    EPW26610   1.317   3.735   3.492  0.1620  0.4210 -0.4710
 6473WAT      O26611   5.911   5.466   2.808  0.4557 -0.3029  1.0031
 6473WAT     H126612   5.937   5.396   2.763 -1.2566  0.3771 -1.2340
 6473WAT     H226613   5.976   5.523   2.794  1.4365 -1.1016  2.0977
 6473WAT    EPW26614   5.925   5.464   2.799  0.3476 -0.3204  0.8343
 6474WAT      O26615   2.226   5.275   3.946  0.2094 -0.0674  0.2081
 6474WAT     H126616   2.153   5.299   3.906  0.4893  0.8322  0.2088
 6474WAT     H226617   2.227   5.324   4.019 -1.2107 -2.9372  2.3339
 6474WAT    EPW26618   2.215   5.286   3.951  0.0409 -0.3584  0.5222
 6475WAT      O26619   3.400   1.077   3.694  0.4838  0.3290  0.6320
 6475WAT     H126620   3.423   1.161   3.696  0.4048  0.3506  0.6245
 6475WAT     H226621   3.476   1.035   3.681  0.2583  0.5175 -1.7225
 6475WAT    EPW26622   3.415   1.083   3.692  0.4388  0.3601  0.2831
 6476WAT      O26623   0.525   4.745   5.614 -0.3637 -0.3801  0.4117
 6476WAT     H126624   0.491   4.747   5.694  0.7365 -0.4281  0.8895
 6476WAT     H226625   0.586   4.684   5.618  0.1274  0.0465 -0.2891
 6476WAT    EPW26626   0.529   4.736   5.626 -0.1286 -0.3242  0.3787
 6477WAT      O26627   2.563   6.664   7.221 -0.1930 -0.1976 -0.3090
 6477WAT     H126628   2.490   6.644   7.264 -0.6476 -2.3048 -1.8921
 6477WAT     H226629   2.626   6.630   7.271 -0.4835 -0.2302  0.0395
 6477WAT    EPW26630   2.561   6.656   7.234 -0.3031 -0.5137 -0.4913
 6478WAT      O26631   0.467   0.450   1.891 -0.1160  0.4350 -0.2599
 6478WAT     H126632   0.461   0.377   1.939 -0.1467  0.3985 -0.3191
 6478WAT     H226633   0.454   0.514   1.948  0.3340  0.4116 -0.1249
 6478WAT    EPW26634   0.464   0.449   1.906 -0.0541  0.4262 -0.2487
 6479WAT      O26635   4.149   2.930   1.657  0.0446 -0.0401  0.2983
 6479WAT     H126636   4.111   2.943   1.735  2.4724  2.1941  1.2842
 6479WAT     H226637   4.234   2.926   1.677  0.7282  0.3134 -2.2276
 6479WAT    EPW26638   4.156   2.931   1.672  0.5043  0.3421  0.0708
 6480WAT      O26639   3.438   3.542   4.857 -0.2790 -0.4627 -0.5447
 6480WAT     H126640   3.364   3.496   4.855  0.7796 -2.2566 -0.5843
 6480WAT     H226641   3.421   3.612   4.808 -2.2742 -0.2768  0.3333
 6480WAT    EPW26642   3.425   3.545   4.849 -0.4174 -0.7002 -0.4208
 6481WAT      O26643   3.359   7.087   2.278  0.2046 -0.3859  0.4591
 6481WAT     H126644   3.335   7.003   2.286  1.1997 -0.6675  0.6353
 6481WAT     H226645   3.348   7.103   2.193 -0.8490 -0.4194  0.5813
 6481WAT    EPW26646   3.354   7.077   2.267  0.1960 -0.4325  0.5032
 6482WAT      O26647   0.509   5.516   2.118 -0.2178  0.0011 -0.0840
 6482WAT     H126648   0.548   5.562   2.182 -0.5168  0.3868 -0.1722
 6482WAT     H226649   0.499   5.437   2.152  0.2260  0.0247  0.1079
 6482WAT    EPW26650   0.514   5.511   2.132 -0.1965  0.0615 -0.0687
 6483WAT      O26651   5.470   5.237   4.558  0.4660  0.0500 -0.3524
 6483WAT     H126652   5.460   5.250   4.472 -0.3125  1.9102 -0.0301
 6483WAT     H226653   5.511   5.309   4.585  0.8379 -0.5787  0.8437
 6483WAT    EPW26654   5.475   5.249   4.549  0.4059  0.2319 -0.1281
 6484WAT      O26655   6.227   0.481   2.973 -0.2519 -0.0733 -0.1210
 6484WAT     H126656   6.178   0.486   2.901  1.1360 -1.5479 -1.2575
 6484WAT     H226657   6.204   0.552   3.019 -1.3615  0.7823 -1.8874
 6484WAT    EPW26658   6.216   0.492   2.969 -0.2108 -0.1647 -0.5498
 6485WAT      O26659   4.783   5.276   3.827  0.2865  0.5394  0.1484
 6485WAT     H126660   4.806   5.345   3.779  0.6884 -0.7613 -1.6570
 6485WAT     H226661   4.855   5.228   3.831 -0.3350 -0.4274  0.1833
 6485WAT    EPW26662   4.797   5.279   3.820  0.2541  0.2045 -0.1131
 6486WAT      O26663   3.121   3.787   1.332 -0.0499 -0.1358  0.6712
 6486WAT     H126664   3.187   3.840   1.311 -0.4017 -0.5534 -1.7384
 6486WAT     H226665   3.117   3.793   1.419  0.2597  3.3712  0.5861
 6486WAT    EPW26666   3.130   3.796   1.342 -0.0561  0.3206  0.3027
 6487WAT      O26667   1.783   6.179   5.822 -0.3609  0.7023  0.4106
 6487WAT     H126668   1.854   6.189   5.872 -0.2831  1.3032  0.1890
 6487WAT     H226669   1.741   6.112   5.859  1.4904 -1.2923 -0.8179
 6487WAT    EPW26670   1.787   6.171   5.835 -0.0759  0.4964  0.1964
 6488WAT      O26671   3.046   3.051   1.707 -0.0550  0.8069 -0.0181
 6488WAT     H126672   3.113   3.028   1.657 -0.5958  1.2496 -0.9806
 6488WAT     H226673   3.064   3.015   1.784  1.4161  1.1506 -0.1761
 6488WAT    EPW26674   3.058   3.043   1.711  0.0824  0.9231 -0.1836
 6489WAT      O26675   0.085   3.193   0.482  0.2284  0.0562  0.7726
 6489WAT     H126676   0.154   3.149   0.452  0.7830  0.2901  1.6845
 6489WAT     H226677   0.024   3.179   0.421  0.9786 -0.4074  0.1113
 6489WAT    EPW26678   0.086   3.184   0.469  0.4212  0.0222  0.8096
 6490WAT      O26679   3.810   2.538   2.294 -0.5176 -0.2846  0.6767
 6490WAT     H126680   3.860   2.474   2.325  0.5937 -0.2967 -0.9784
 6490WAT     H226681   3.782   2.579   2.365  1.2293 -0.7850  1.7138
 6490WAT    EPW26682   3.814   2.535   2.309 -0.0954 -0.3603  0.5854
 6491WAT      O26683   4.399   1.434   1.384  0.4519 -0.2389 -0.0764
 6491WAT     H126684   4.353   1.508   1.386 -1.1054 -1.1212 -0.9214
 6491WAT     H226685   4.467   1.454   1.333  0.6004  0.8782  0.5338
 6491WAT    EPW26686   4.403   1.447   1.377  0.2438 -0.2042 -0.1111
 6492WAT      O26687   1.247   5.702   6.749 -0.0456 -0.3204 -0.3103
 6492WAT     H126688   1.280   5.627   6.780 -1.3959 -1.1601 -0.8198
 6492WAT     H226689   1.233   5.749   6.820 -1.9291 -1.7324  0.3326
 6492WAT    EPW26690   1.250   5.698   6.764 -0.5233 -0.6530 -0.2906
 6493WAT      O26691   3.515   5.990   3.925 -0.3729  0.5397 -0.0640
 6493WAT     H126692   3.450   5.958   3.974  0.8053 -2.6850 -0.3704
 6493WAT     H226693   3.578   6.005   3.983 -0.3010  0.5187 -0.1370
 6493WAT    EPW26694   3.515   5.987   3.941 -0.1882  0.0602 -0.1201
 6494WAT      O26695   1.661   3.900   2.101  0.3988 -0.4261  0.2424
 6494WAT     H126696   1.612   3.828   2.109  2.2511 -1.6650  1.1489
 6494WAT     H226697   1.714   3.896   2.170  3.8677 -0.9060 -2.1812
 6494WAT    EPW26698   1.662   3.889   2.113  1.1848 -0.6800  0.0183
 6495WAT      O26699   2.195   7.199   5.805 -0.2354 -0.4129 -0.2874
 6495WAT     H126700   2.117   7.236   5.814  0.4332  1.4513 -1.4479
 6495WAT     H226701   2.211   7.206   5.719  2.2550  1.7297  0.1939
 6495WAT    EPW26702   2.186   7.205   5.793  0.2313  0.1790 -0.3877
 6496WAT      O26703   4.633   5.550   1.275 -0.1444 -0.3368  0.2192
 6496WAT     H126704   4.704   5.517   1.237  0.9485  0.6169  1.3603
 6496WAT     H226705   4.659   5.627   1.305 -0.9106 -0.9971  2.8843
 6496WAT    EPW26706   4.647   5.557   1.274 -0.0961 -0.2934  0.7815
 6497WAT      O26707   4.792   3.973   2.257 -0.6547  0.1031 -0.7922
 6497WAT     H126708   4.844   4.015   2.201 -0.6650  2.7272  1.0112
 6497WAT     H226709   4.847   3.946   2.319 -1.0641  0.1425 -0.4101
 6497WAT    EPW26710   4.808   3.975   2.258 -0.7167  0.4965 -0.4693
 6498WAT      O26711   3.057   1.298   6.626  0.0727 -0.1643 -0.4268
 6498WAT     H126712   2.998   1.235   6.613  0.7473 -1.0433  0.6345
 6498WAT     H226713   3.009   1.364   6.657 -0.1080 -1.8952  3.6222
 6498WAT    EPW26714   3.041   1.298   6.629  0.1456 -0.5498  0.3281
 6499WAT      O26715   5.840   2.171   5.659  0.1896 -0.1496  0.1395
 6499WAT     H126716   5.854   2.257   5.666  0.7472 -0.1532 -0.8089
 6499WAT     H226717   5.816   2.148   5.740 -2.0445  1.2634 -0.0331
 6499WAT    EPW26718   5.838   2.181   5.672 -0.0580  0.0586 -0.0261
 6500WAT      O26719   2.921   2.685   0.396  0.1875 -0.5733 -0.2143
 6500WAT     H126720   2.995   2.684   0.442  1.0857 -2.2940 -1.5881
 6500WAT     H226721   2.897   2.601   0.392 -0.2991 -0.4090 -2.1096
 6500WAT    EPW26722   2.928   2.673   0.402  0.2483 -0.8032 -0.6972
 6501WAT      O26723   3.684   5.136   1.161  0.2947 -0.5742 -0.1597
 6501WAT     H126724   3.749   5.194   1.166  0.7247 -1.0485 -0.2381
 6501WAT     H226725   3.708   5.084   1.096  0.1233 -1.1072  0.2006
 6501WAT    EPW26726   3.697   5.137   1.153  0.3329 -0.7230 -0.1181
 6502WAT      O26727   4.436   2.984   5.239 -0.5082 -0.4888 -0.1200
 6502WAT     H126728   4.380   2.954   5.299 -0.6623 -0.5445 -0.2946
 6502WAT     H226729   4.433   2.924   5.176 -1.5349  0.3473 -0.9071
 6502WAT    EPW26730   4.427   2.971   5.239 -0.6826 -0.3735 -0.2621
 6503WAT      O26731   1.916   5.656   3.997  0.1442  0.1766 -0.1758
 6503WAT     H126732   1.980   5.690   4.045 -0.1806  0.2586  0.1990
 6503WAT     H226733   1.857   5.720   3.993 -0.8294 -0.6012  1.2064
 6503WAT    EPW26734   1.917   5.670   4.004 -0.0476  0.0738  0.0838
 6504WAT      O26735   3.171   0.563   1.283 -0.2244  0.1004  0.1914
 6504WAT     H126736   3.105   0.619   1.275 -0.1572 -0.0227 -1.5819
 6504WAT     H226737   3.237   0.603   1.242  0.6184 -0.1275  1.2439
 6504WAT    EPW26738   3.171   0.577   1.276 -0.0899  0.0486  0.0849
 6505WAT      O26739   3.750   3.233   3.581  0.3533 -0.2207  0.6541
 6505WAT     H126740   3.690   3.170   3.570  0.9035 -0.3921 -1.9520
 6505WAT     H226741   3.702   3.306   3.587 -0.1774 -0.4660 -0.3996
 6505WAT    EPW26742   3.734   3.235   3.580  0.3562 -0.2822  0.1134
 6506WAT      O26743   7.014   0.003   3.975  0.4613  0.1819 -0.2284
 6506WAT     H126744   6.947  -0.051   3.958  0.5199  0.0810 -0.1340
 6506WAT     H226745   6.995   0.036   4.053  1.3487 -1.0965  0.5482
 6506WAT    EPW26746   7.001  -0.000   3.984  0.6011 -0.0218 -0.0997
 6507WAT      O26747   2.777   5.960   2.034  0.7328 -0.1112  0.0298
 6507WAT     H126748   2.693   5.980   2.027 -0.0137 -2.7717  0.4789
 6507WAT     H226749   2.816   6.038   2.044 -1.6374  1.1751 -0.1483
 6507WAT    EPW26750   2.771   5.974   2.034  0.2724 -0.3142  0.0698
 6508WAT      O26751   7.066   6.857   0.797  0.2195 -0.0873 -0.0729
 6508WAT     H126752   7.081   6.818   0.720  0.2664  1.6569 -1.0211
 6508WAT     H226753   6.982   6.880   0.793 -0.2999 -1.5945  1.2286
 6508WAT    EPW26754   7.056   6.855   0.785  0.1497 -0.0523 -0.0207
 6509WAT      O26755   5.996   2.804   6.559  0.0204 -0.5098 -0.0621
 6509WAT     H126756   5.995   2.769   6.639  1.1843  0.9981  0.6763
 6509WAT     H226757   6.003   2.890   6.575 -2.7941  0.1537 -1.7709
 6509WAT    EPW26758   5.997   2.812   6.573 -0.2234 -0.1891 -0.2055
 6510WAT      O26759   3.437   4.895   0.228  0.1258 -0.1996 -0.1059
 6510WAT     H126760   3.517   4.890   0.195 -1.1070  2.1711 -4.1912
 6510WAT     H226761   3.396   4.825   0.194  0.1319 -0.9006  1.2348
 6510WAT    EPW26762   3.442   4.884   0.218 -0.0554  0.0471 -0.5113
 6511WAT      O26763   1.979   3.195   5.414 -0.0366 -0.0475  0.5320
 6511WAT     H126764   2.037   3.136   5.386 -1.4725 -2.2021  1.7939
 6511WAT     H226765   2.026   3.250   5.462  1.1557 -0.9430  0.4174
 6511WAT    EPW26766   1.994   3.195   5.417 -0.0726 -0.4981  0.7015
 6512WAT      O26767   0.091   2.735   5.896 -0.0206  0.4160  0.1272
 6512WAT     H126768   0.015   2.712   5.860 -0.0711  1.8617 -0.7892
 6512WAT     H226769   0.083   2.822   5.905  0.6140  0.3148  2.2400
 6512WAT    EPW26770   0.078   2.744   5.892  0.0657  0.6146  0.3040
 6513WAT      O26771   6.580   2.435   1.645  0.5861  0.5453 -0.2891
 6513WAT     H126772   6.559   2.498   1.701 -0.7896 -0.8595  0.8463
 6513WAT     H226773   6.520   2.374   1.659  2.6768 -1.6538 -0.3214
 6513WAT    EPW26774   6.568   2.436   1.655  0.6917  0.0129 -0.1262
 6514WAT      O26775   7.205   3.346   1.230  0.0906 -0.0331  0.1718
 6514WAT     H126776   7.261   3.379   1.171  0.2523 -0.3753  0.1284
 6514WAT     H226777   7.189   3.266   1.199 -1.9099  0.7082 -0.8539
 6514WAT    EPW26778   7.211   3.339   1.217 -0.1811  0.0258  0.0139
 6515WAT      O26779   1.076   5.978   4.007 -0.1266 -0.0940 -0.0420
 6515WAT     H126780   1.114   5.914   4.053  1.6606  0.8157 -0.1599
 6515WAT     H226781   1.124   5.982   3.934 -0.4640  1.0808 -0.2174
 6515WAT    EPW26782   1.089   5.969   4.003  0.0875  0.2139 -0.0853
 6516WAT      O26783   4.769   2.242   7.147 -0.5827  0.0636  0.5175
 6516WAT     H126784   4.700   2.188   7.149  0.1019 -0.9781 -1.4149
 6516WAT     H226785   4.837   2.189   7.135 -0.0426  1.3056 -3.2436
 6516WAT    EPW26786   4.769   2.227   7.145 -0.4018  0.0932 -0.3235
 6517WAT      O26787   3.581   6.037   6.327 -0.5788  0.1772 -0.3604
 6517WAT     H126788   3.513   6.072   6.369 -1.3384 -1.8947  0.2524
 6517WAT     H226789   3.549   6.020   6.247  0.1655  1.9519 -1.0815
 6517WAT    EPW26790   3.566   6.040   6.321 -0.5811  0.1333 -0.3764
 6518WAT      O26791   2.122   6.465   4.249  0.3256 -0.0043  0.8270
 6518WAT     H126792   2.057   6.489   4.196  0.8318  2.2741  1.1031
 6518WAT     H226793   2.117   6.378   4.252 -1.7160  0.0296 -0.3800
 6518WAT    EPW26794   2.112   6.456   4.242  0.0988  0.3373  0.6895
 6519WAT      O26795   5.121   2.199   6.795  0.1876 -0.1848  0.2354
 6519WAT     H126796   5.066   2.132   6.784 -0.4223  0.2929  0.2863
 6519WAT     H226797   5.087   2.261   6.743  0.8961 -0.0079 -0.0193
 6519WAT    EPW26798   5.108   2.199   6.786  0.2021 -0.0881  0.2053
 6520WAT      O26799   1.909   3.945   0.900  0.0695 -0.5539 -0.5062
 6520WAT     H126800   1.943   3.943   0.980 -1.1476  4.2475  0.4340
 6520WAT     H226801   1.979   3.940   0.848  1.3857  0.6895  1.0622
 6520WAT    EPW26802   1.924   3.944   0.904  0.0841  0.3390 -0.1356
 6521WAT      O26803   6.879   2.468   4.125 -0.2871  0.1433 -0.0289
 6521WAT     H126804   6.903   2.403   4.178 -1.0280  0.3685  0.6159
 6521WAT     H226805   6.807   2.499   4.164 -1.4819 -0.3520 -1.6987
 6521WAT    EPW26806   6.872   2.463   4.139 -0.5730  0.1034 -0.1803
 6522WAT      O26807   5.726   2.921   4.347 -0.4072  0.4615  0.4736
 6522WAT     H126808   5.732   2.843   4.387 -0.3924  0.5853  0.7163
 6522WAT     H226809   5.725   2.900   4.263 -0.5538  0.1885  0.5409
 6522WAT    EPW26810   5.727   2.906   4.341 -0.4267  0.4394  0.5194
 6523WAT      O26811   3.613   4.267   3.823 -0.1199  0.2387 -0.3686
 6523WAT     H126812   3.608   4.332   3.881 -0.5163 -0.7738  0.7805
 6523WAT     H226813   3.534   4.231   3.826 -0.6448  1.0564 -2.6808
 6523WAT    EPW26814   3.600   4.271   3.832 -0.2560  0.2100 -0.5404
 6524WAT      O26815   6.222   0.787   6.882 -0.3918  0.6075 -0.1460
 6524WAT     H126816   6.245   0.734   6.817  1.6619  1.1032  0.1021
 6524WAT     H226817   6.188   0.856   6.841 -3.0119 -0.7383 -0.4734
 6524WAT    EPW26818   6.220   0.789   6.866 -0.4755  0.4819 -0.1577
 6525WAT      O26819   5.098   3.294   5.016  0.1530  0.2096 -0.0747
 6525WAT     H126820   5.130   3.288   4.935  1.7573  0.4651  0.4991
 6525WAT     H226821   5.128   3.222   5.056  0.2369  0.5940  0.5706
 6525WAT    EPW26822   5.107   3.282   5.010  0.4024  0.3041  0.1054
 6526WAT      O26823   7.138   2.879   4.083 -0.0613 -0.2122 -0.0364
 6526WAT     H126824   7.062   2.851   4.116  0.3400  0.1029  1.2217
 6526WAT     H226825   7.196   2.824   4.118  0.4277  0.3797  0.0856
 6526WAT    EPW26826   7.135   2.867   4.093  0.0702 -0.0782  0.1675
 6527WAT      O26827   5.198   0.424   6.737  0.0466  0.2616 -0.3891
 6527WAT     H126828   5.193   0.428   6.824  1.1639 -0.6220 -0.2536
 6527WAT     H226829   5.125   0.462   6.710 -0.3624  0.4614  0.9434
 6527WAT    EPW26830   5.187   0.430   6.746  0.1512  0.1606 -0.1723
 6528WAT      O26831   7.019   5.768   3.578 -0.4884  0.6492  0.1101
 6528WAT     H126832   7.081   5.806   3.530 -1.1829  0.7704 -0.7164
 6528WAT     H226833   6.973   5.723   3.519 -0.7310 -0.0634  0.8233
 6528WAT    EPW26834   7.022   5.767   3.562 -0.6269  0.5618  0.0933
 6529WAT      O26835   0.133   1.836   1.801  0.0095 -0.5180 -0.0571
 6529WAT     H126836   0.106   1.878   1.730  0.2967 -0.0841  0.0818
 6529WAT     H226837   0.068   1.780   1.819  0.5416 -1.6290 -1.4646
 6529WAT    EPW26838   0.119   1.834   1.793  0.1306 -0.6180 -0.2445
 6530WAT      O26839   1.205   3.686   6.205  0.2984 -0.1683  0.3203
 6530WAT     H126840   1.235   3.743   6.146  0.9548  0.7761  1.5087
 6530WAT     H226841   1.265   3.690   6.269 -0.2442 -1.3506  0.9275
 6530WAT    EPW26842   1.218   3.695   6.206  0.3152 -0.2035  0.5856
 6531WAT      O26843   2.185   1.144   4.061  0.0385 -0.6104  0.0948
 6531WAT     H126844   2.242   1.173   4.120  1.6752  0.3392 -1.8078
 6531WAT     H226845   2.212   1.181   3.987 -1.7983 -1.8602 -1.3013
 6531WAT    EPW26846   2.197   1.154   4.059  0.0089 -0.6548 -0.3925
 6532WAT      O26847   6.017   0.986   4.081  0.0101 -0.3399  0.8492
 6532WAT     H126848   6.066   1.042   4.127 -0.7501 -0.4179  1.7907
 6532WAT     H226849   6.008   0.918   4.134 -1.5550 -0.1034  0.9512
 6532WAT    EPW26850   6.023   0.984   4.095 -0.3334 -0.3165  1.0033
 6533WAT      O26851   2.751   5.313   6.702 -1.0008  0.1272 -0.2939
 6533WAT     H126852   2.775   5.318   6.786 -1.6437  0.0766 -0.0981
 6533WAT     H226853   2.727   5.394   6.682 -2.9825 -0.2629  0.2553
 6533WAT    EPW26854   2.751   5.326   6.712 -1.3885  0.0621 -0.1839
 6534WAT      O26855   0.566   4.022   0.685 -0.1926  0.5792  0.3369
 6534WAT     H126856   0.574   3.938   0.704 -1.7827  0.5945  1.3439
 6534WAT     H226857   0.489   4.043   0.721 -2.5096  1.2088 -4.3142
 6534WAT    EPW26858   0.555   4.013   0.693 -0.7698  0.6745 -0.2014
 6535WAT      O26859   5.751   5.834   4.643 -0.3965  0.4021 -0.0568
 6535WAT     H126860   5.820   5.886   4.653 -0.6545  0.8044 -0.3410
 6535WAT     H226861   5.742   5.797   4.721  0.8594 -0.5574 -0.3341
 6535WAT    EPW26862   5.760   5.836   4.656 -0.2491  0.3198 -0.1398
 6536WAT      O26863   5.589   0.399   3.749 -0.3297  0.0282 -0.1570
 6536WAT     H126864   5.639   0.353   3.693  0.4076  1.6098 -0.8495
 6536WAT     H226865   5.638   0.406   3.820 -1.3529 -2.1706  0.8565
 6536WAT    EPW26866   5.603   0.393   3.751 -0.3720 -0.0630 -0.1096
 6537WAT      O26867   0.562   4.578   7.243 -0.1110 -0.0413 -0.5831
 6537WAT     H126868   0.549   4.504   7.288 -1.3833  0.8239  0.5448
 6537WAT     H226869   0.634   4.562   7.197  0.9184 -1.1901  1.3168
 6537WAT    EPW26870   0.571   4.565   7.243 -0.1469 -0.0832 -0.1358
 6538WAT      O26871   5.381   4.919   1.885 -0.4283 -0.9819 -0.4826
 6538WAT     H126872   5.365   4.876   1.959 -2.8831 -0.2965 -0.5386
 6538WAT     H226873   5.437   4.867   1.842  0.8557 -1.5028  1.6867
 6538WAT    EPW26874   5.387   4.905   1.889 -0.6012 -0.9576 -0.1704
 6539WAT      O26875   0.869   6.791   2.330 -0.0389  0.4500  1.1128
 6539WAT     H126876   0.810   6.844   2.367 -0.4090  0.3692  0.6413
 6539WAT     H226877   0.919   6.767   2.397 -0.7024  0.3134  1.5690
 6539WAT    EPW26878   0.867   6.795   2.345 -0.1916  0.4179  1.1106
 6540WAT      O26879   6.860   0.723   2.081  0.0526  0.2418 -0.1118
 6540WAT     H126880   6.879   0.769   2.153 -0.1494  0.5465 -0.2548
 6540WAT     H226881   6.923   0.747   2.025 -1.2082  1.9363 -0.8968
 6540WAT    EPW26882   6.872   0.733   2.083 -0.1635  0.5371 -0.2489
 6541WAT      O26883   4.790   4.249   4.127  0.0615  0.6415  0.2913
 6541WAT     H126884   4.856   4.193   4.136 -1.3634 -1.1867 -0.0114
 6541WAT     H226885   4.746   4.241   4.202  0.1559  1.8740  0.5116
 6541WAT    EPW26886   4.793   4.240   4.139 -0.1350  0.5535  0.2791
 6542WAT      O26887   2.742   4.807   4.168  0.2385 -0.2650 -0.0352
 6542WAT     H126888   2.697   4.878   4.144  1.5092  0.2389 -1.0631
 6542WAT     H226889   2.728   4.751   4.102  0.1743 -0.5374  0.2089
 6542WAT    EPW26890   2.733   4.809   4.155  0.4167 -0.2308 -0.1510
 6543WAT      O26891   1.982   4.430   4.028  0.3462 -0.0823 -0.1973
 6543WAT     H126892   2.057   4.386   4.035  0.0784 -0.8671 -1.8187
 6543WAT     H226893   1.943   4.416   4.105  0.8804 -1.5647 -0.1580
 6543WAT    EPW26894   1.987   4.421   4.040  0.3855 -0.4172 -0.4310
 6544WAT      O26895   0.043   0.300   0.973 -0.8842  0.1207  0.3857
 6544WAT     H126896   0.014   0.379   0.952 -1.8035 -0.2520  0.2051
 6544WAT     H226897   0.125   0.299   0.945 -1.4518  0.3413 -1.3515
 6544WAT    EPW26898   0.051   0.311   0.966 -1.1039  0.0982  0.1024
 6545WAT      O26899   1.528   2.580   5.579 -0.1042 -0.1004 -0.1605
 6545WAT     H126900   1.562   2.577   5.659 -1.1186 -0.3935  0.2740
 6545WAT     H226901   1.453   2.538   5.587 -0.9429  1.1762 -0.9139
 6545WAT    EPW26902   1.522   2.574   5.592 -0.3779  0.0449 -0.2076
 6546WAT      O26903   2.291   2.391   1.945  0.7154  0.1622 -0.2962
 6546WAT     H126904   2.279   2.461   1.997  0.6929 -0.3756  0.4416
 6546WAT     H226905   2.378   2.383   1.942  0.6989 -0.2391  0.2546
 6546WAT    EPW26906   2.302   2.400   1.952  0.7096  0.0234 -0.1058
 6547WAT      O26907   1.768   3.404   4.882 -0.0134 -0.0110  0.1904
 6547WAT     H126908   1.822   3.386   4.816 -0.1606 -1.0511  0.3367
 6547WAT     H226909   1.712   3.336   4.882 -1.1404  0.8846  0.2379
 6547WAT    EPW26910   1.768   3.391   4.872 -0.2016 -0.0324  0.2190
 6548WAT      O26911   4.268   6.009   1.624  0.2764 -0.6784  0.7198
 6548WAT     H126912   4.317   6.025   1.553 -0.3132  3.3429  0.9655
 6548WAT     H226913   4.326   6.007   1.689  0.4921 -0.1837  0.5496
 6548WAT    EPW26914   4.284   6.011   1.623  0.2212 -0.0113  0.7310
 6549WAT      O26915   4.440   5.416   2.624 -0.8047  0.4453  0.0480
 6549WAT     H126916   4.467   5.370   2.555 -1.1595 -0.6548  0.6241
 6549WAT     H226917   4.472   5.496   2.609  2.4839 -0.6200  0.4369
 6549WAT    EPW26918   4.449   5.421   2.612 -0.3713  0.1254  0.1906
 6550WAT      O26919   2.135   6.460   1.700  0.3956 -0.1103  0.3919
 6550WAT     H126920   2.163   6.390   1.656 -0.6946  0.4134 -1.2130
 6550WAT     H226921   2.124   6.430   1.781  1.5930 -1.3387  0.1381
 6550WAT    EPW26922   2.138   6.445   1.705  0.4114 -0.2144  0.1174
 6551WAT      O26923   6.758   6.764   2.975 -0.1496  0.0297  0.0089
 6551WAT     H126924   6.804   6.819   3.024 -1.2141 -1.0648  2.3780
 6551WAT     H226925   6.811   6.695   2.966 -0.1790 -0.0140  0.1639
 6551WAT    EPW26926   6.772   6.762   2.981 -0.3112 -0.1384  0.3818
 6552WAT      O26927   0.195   3.599   5.317 -0.2899 -0.1887 -0.2952
 6552WAT     H126928   0.265   3.600   5.264  1.6054  3.3530  1.8412
 6552WAT     H226929   0.229   3.574   5.393 -2.0283 -1.0267  0.2427
 6552WAT    EPW26930   0.211   3.595   5.320 -0.2667  0.2107  0.0999
 6553WAT      O26931   1.575   5.641   4.473 -0.0962 -0.2819  0.0558
 6553WAT     H126932   1.502   5.675   4.439  0.5208  1.5247  0.3944
 6553WAT     H226933   1.599   5.582   4.414 -1.8990 -1.0339  0.0169
 6553WAT    EPW26934   1.568   5.638   4.460 -0.2713 -0.1261  0.1001
 6554WAT      O26935   3.450   6.440   1.015 -0.6123  0.0465 -0.1482
 6554WAT     H126936   3.483   6.484   1.083  0.5812 -0.2646 -0.4991
 6554WAT     H226937   3.402   6.499   0.973  0.1579  0.7380 -0.0663
 6554WAT    EPW26938   3.448   6.455   1.019 -0.3222  0.1027 -0.1879
 6555WAT      O26939   2.043   7.105   2.904 -0.0914  0.0152  0.2064
 6555WAT     H126940   2.104   7.167   2.908 -1.1472  1.2716 -1.7905
 6555WAT     H226941   2.076   7.041   2.955  3.5685  0.0385 -1.7429
 6555WAT    EPW26942   2.057   7.104   2.912  0.2933  0.2042 -0.3766
 6556WAT      O26943   1.523   5.725   2.370  0.0674 -0.1658 -0.0718
 6556WAT     H126944   1.547   5.752   2.291 -3.7300 -0.9752 -1.6871
 6556WAT     H226945   1.551   5.643   2.374  1.8326  0.4042  0.2677
 6556WAT    EPW26946   1.531   5.717   2.359 -0.2328 -0.2012 -0.2603
 6557WAT      O26947   7.187   2.202   1.974 -0.4528  0.0008  0.5904
 6557WAT     H126948   7.272   2.203   1.956 -0.6661  0.4057 -0.5280
 6557WAT     H226949   7.162   2.284   1.955 -0.9891  0.0398  1.4371
 6557WAT    EPW26950   7.196   2.215   1.968 -0.5636  0.0664  0.5503
 6558WAT      O26951   1.282   1.289   2.811 -0.2233 -0.1580 -0.0841
 6558WAT     H126952   1.197   1.307   2.818 -0.2513  0.1281 -1.0174
 6558WAT     H226953   1.290   1.254   2.732  0.6292  0.4520 -0.2881
 6558WAT    EPW26954   1.271   1.287   2.800 -0.1015 -0.0257 -0.2521
 6559WAT      O26955   1.271   0.481   3.283  0.0836  0.3986  0.5763
 6559WAT     H126956   1.196   0.446   3.312  0.5727 -1.3230 -0.0883
 6559WAT     H226957   1.330   0.452   3.340  0.2767  1.7661  1.1062
 6559WAT    EPW26958   1.268   0.471   3.295  0.1844  0.3463  0.5564
 6560WAT      O26959   2.874   5.911   6.820 -0.2945 -0.4365  0.0540
 6560WAT     H126960   2.865   5.904   6.906  0.4928 -2.4644  0.0360
 6560WAT     H226961   2.897   5.830   6.795  1.7339  0.5974 -1.7829
 6560WAT    EPW26962   2.876   5.898   6.829  0.1215 -0.5834 -0.2200
 6561WAT      O26963   6.570   4.364   1.917 -0.6067 -0.0705 -0.0894
 6561WAT     H126964   6.624   4.432   1.910 -2.8801  1.6416 -2.7763
 6561WAT     H226965   6.554   4.360   2.003  1.5553  1.0462  0.4550
 6561WAT    EPW26966   6.576   4.373   1.929 -0.6232  0.3474 -0.4059
 6562WAT      O26967   3.653   6.126   7.306 -0.3757 -0.4042  0.1735
 6562WAT     H126968   3.722   6.127   7.252 -1.2399  0.2631 -0.9332
 6562WAT     H226969   3.605   6.194   7.280 -1.3762 -0.7518  1.0511
 6562WAT    EPW26970   3.656   6.136   7.294 -0.6511 -0.3570  0.1397
 6563WAT      O26971   5.448   0.168   0.061 -0.0783 -0.1880  0.2950
 6563WAT     H126972   5.381   0.144   0.009 -0.9304  0.6462  0.9581
 6563WAT     H226973   5.505   0.104   0.052  0.1585  0.2761 -2.2888
 6563WAT    EPW26974   5.446   0.155   0.052 -0.1692  0.0037  0.0113
 6564WAT      O26975   5.998   6.606   5.546  0.1679 -0.9710 -0.1595
 6564WAT     H126976   6.013   6.648   5.621 -1.9998  1.3309 -0.9051
 6564WAT     H226977   5.963   6.530   5.572  1.1247 -0.9981  1.1547
 6564WAT    EPW26978   5.995   6.601   5.561 -0.0110 -0.6350 -0.0755
 6565WAT      O26979   5.944   1.714   4.236  0.2861 -0.1188 -0.1231
 6565WAT     H126980   5.983   1.648   4.278  1.6180  1.3664  1.1448
 6565WAT     H226981   5.866   1.721   4.276  1.2552  0.8140  1.7641
 6565WAT    EPW26982   5.938   1.705   4.248  0.6260  0.2384  0.3430
 6566WAT      O26983   7.013   1.764   5.826  0.0036 -0.0133 -0.3707
 6566WAT     H126984   6.991   1.847   5.808  0.2228  0.4214  1.2218
 6566WAT     H226985   6.980   1.751   5.905 -1.8052 -2.1507 -1.3436
 6566WAT    EPW26986   7.005   1.774   5.835 -0.2312 -0.2649 -0.2791
 6567WAT      O26987   3.144   6.673   1.619 -0.1084 -0.6352 -0.5332
 6567WAT     H126988   3.079   6.727   1.640  0.2030 -0.3549 -0.2865
 6567WAT     H226989   3.106   6.617   1.563 -0.0774  0.6617 -1.8966
 6567WAT    EPW26990   3.129   6.672   1.614 -0.0578 -0.4022 -0.6982
 6568WAT      O26991   3.486   1.996   5.993  0.0377  0.1133 -0.6331
 6568WAT     H126992   3.415   2.027   5.953 -0.1654 -0.9218 -1.1079
 6568WAT     H226993   3.503   1.922   5.950 -0.2360 -1.0947  1.2684
 6568WAT    EPW26994   3.478   1.990   5.981 -0.0328 -0.2180 -0.4224
 6569WAT      O26995   1.319   2.985   1.848  0.8314 -0.2524 -0.1554
 6569WAT     H126996   1.375   3.003   1.784  0.8160  0.0356 -0.0867
 6569WAT     H226997   1.241   3.006   1.813  0.9743  1.7184  0.6006
 6569WAT    EPW26998   1.316   2.990   1.833  0.8502  0.0813 -0.0335
 6570WAT      O26999   3.497   0.432   2.883 -0.2053 -0.6689  0.1952
 6570WAT     H127000   3.555   0.396   2.937 -1.3999  0.4477  2.3351
 6570WAT     H227001   3.528   0.512   2.868 -0.3096 -0.6828 -0.1160
 6570WAT    EPW27002   3.510   0.438   2.888 -0.3972 -0.5060  0.4653
 6571WAT      O27003   0.471   2.559   5.291 -0.7920 -0.2281 -0.1860
 6571WAT     H127004   0.469   2.520   5.213  0.3009  0.8732 -0.7974
 6571WAT     H227005   0.451   2.642   5.274 -0.7664 -0.0121  0.7350
 6571WAT    EPW27006   0.468   2.565   5.277 -0.6267 -0.0335 -0.1403
 6572WAT      O27007   3.612   1.365   6.568  0.0340  0.0739 -0.0299
 6572WAT     H127008   3.582   1.285   6.553 -1.8816  0.3814  1.7147
 6572WAT     H227009   3.547   1.403   6.613  0.8915  2.5962 -0.7639
 6572WAT    EPW27010   3.598   1.359   6.572 -0.1223  0.4919  0.1194
 6573WAT      O27011   3.553   3.582   4.072 -0.1018 -0.1840 -0.4823
 6573WAT     H127012   3.541   3.514   4.126  1.1704 -0.4630 -0.5054
 6573WAT     H227013   3.492   3.639   4.096 -1.7152 -1.6427 -0.9796
 6573WAT    EPW27014   3.542   3.580   4.083 -0.1522 -0.4407 -0.5591
 6574WAT      O27015   0.897   2.628   4.213 -0.2367  0.4159  0.3433
 6574WAT     H127016   0.899   2.716   4.216 -0.8485  0.4170  1.5502
 6574WAT     H227017   0.830   2.611   4.160 -0.4515  0.6905  0.5204
 6574WAT    EPW27018   0.887   2.639   4.206 -0.3588  0.4566  0.5477
 6575WAT      O27019   0.429   2.703   3.546  0.4557 -0.3027 -0.5050
 6575WAT     H127020   0.408   2.642   3.487  0.2506 -2.5735  1.7716
 6575WAT     H227021   0.352   2.741   3.563  0.2020 -0.8450 -0.4192
 6575WAT    EPW27022   0.414   2.699   3.540  0.3879 -0.7183 -0.1560
 6576WAT      O27023   6.982   4.926   3.087  0.2030 -0.4057 -0.1103
 6576WAT     H127024   7.027   4.911   3.160 -0.8783 -2.7417  0.1625
 6576WAT     H227025   7.029   4.886   3.025 -0.9765 -2.1027  0.0377
 6576WAT    EPW27026   6.996   4.918   3.088 -0.1310 -1.0015 -0.0481
 6577WAT      O27027   1.921   1.475   0.484 -0.0656  0.6372 -0.3133
 6577WAT     H127028   1.840   1.507   0.473  0.1888  1.3174 -0.2503
 6577WAT     H227029   1.972   1.545   0.475  0.5215  0.2128 -0.3422
 6577WAT    EPW27030   1.917   1.490   0.481  0.0587  0.6750 -0.3082
 6578WAT      O27031   3.646   5.192   2.803 -0.2819 -0.2704 -0.2591
 6578WAT     H127032   3.580   5.235   2.841  0.9931  0.8685  0.7529
 6578WAT     H227033   3.710   5.251   2.799  0.5666 -1.2246 -1.5727
 6578WAT    EPW27034   3.646   5.207   2.808  0.0318 -0.2431 -0.3037
 6579WAT      O27035   6.414   0.424   2.275 -0.1703  0.2433 -0.6080
 6579WAT     H127036   6.357   0.381   2.324  0.9156 -0.5347  0.0220
 6579WAT     H227037   6.372   0.498   2.254 -0.7991  0.4714  1.2504
 6579WAT    EPW27038   6.399   0.429   2.279 -0.1028  0.1621 -0.2404
 6580WAT      O27039   1.821   0.519   4.888 -0.0940 -0.3068  0.5019
 6580WAT     H127040   1.885   0.466   4.861  0.4970  0.3654  0.5681
 6580WAT     H227041   1.835   0.592   4.843  0.0649  0.3541  1.6032
 6580WAT    EPW27042   1.832   0.522   4.877  0.0167 -0.1099  0.6744
 6581WAT      O27043   1.217   3.233   6.715 -0.5538  0.2571  0.3182
 6581WAT     H127044   1.197   3.282   6.646  0.2807  0.0063 -0.1155
 6581WAT     H227045   1.255   3.288   6.771  0.4709  0.1105 -0.2081
 6581WAT    EPW27046   1.220   3.248   6.713 -0.2792  0.1984  0.1764
 6582WAT      O27047   5.862   1.974   6.463  0.1224  0.4697  0.5910
 6582WAT     H127048   5.885   1.934   6.537 -0.8727 -4.2035 -1.2514
 6582WAT     H227049   5.913   1.937   6.402 -1.5526  1.4109 -1.5306
 6582WAT    EPW27050   5.873   1.963   6.465 -0.2721 -0.0816  0.0054
 6583WAT      O27051   6.442   0.625   5.415 -0.4128  0.5539 -0.8262
 6583WAT     H127052   6.434   0.712   5.414  1.0327  0.7448  0.6905
 6583WAT     H227053   6.524   0.612   5.389 -0.8380 -0.4227 -1.7369
 6583WAT    EPW27054   6.453   0.636   5.411 -0.2621  0.4378 -0.7367
 6584WAT      O27055   6.383   5.579   2.567 -0.3938  0.0414 -0.2121
 6584WAT     H127056   6.385   5.494   2.584 -0.2402  0.0623 -0.1277
 6584WAT     H227057   6.428   5.587   2.493 -0.9922 -0.0370 -0.5940
 6584WAT    EPW27058   6.390   5.568   2.559 -0.4595  0.0329 -0.2561
 6585WAT      O27059   7.149   1.753   3.415  0.1906  0.3900 -0.3549
 6585WAT     H127060   7.126   1.673   3.389  1.4832 -0.8494  1.9877
 6585WAT     H227061   7.208   1.738   3.478  1.1191  3.2113 -0.3941
 6585WAT    EPW27062   7.155   1.739   3.420  0.5187  0.6237 -0.0146
 6586WAT      O27063   1.370   4.464   4.894 -0.0750 -0.0963 -0.3780
 6586WAT     H127064   1.290   4.470   4.928  0.3712 -0.7565  0.8408
 6586WAT     H227065   1.403   4.544   4.906 -0.7138  0.3397 -1.3791
 6586WAT    EPW27066   1.363   4.477   4.901 -0.1035 -0.1294 -0.3458
 6587WAT      O27067   3.277   0.162   4.777  1.0428 -0.1186 -0.4594
 6587WAT     H127068   3.268   0.127   4.856 -0.9441  1.0147 -0.1184
 6587WAT     H227069   3.216   0.122   4.729 -0.0254  1.4864 -0.5216
 6587WAT    EPW27070   3.267   0.151   4.781  0.5915  0.2859 -0.4182
 6588WAT      O27071   2.748   2.187   6.191  0.0358 -0.5934 -0.0810
 6588WAT     H127072   2.677   2.161   6.148  0.8171 -0.8074 -1.2686
 6588WAT     H227073   2.813   2.144   6.153  1.0837  1.2442 -0.5138
 6588WAT    EPW27074   2.747   2.177   6.179  0.3060 -0.3535 -0.3203
 6589WAT      O27075   2.350   4.344   0.261  0.2995 -0.8580 -0.3856
 6589WAT     H127076   2.417   4.327   0.208  0.0732 -0.7669 -0.7113
 6589WAT     H227077   2.358   4.286   0.325  3.0318  1.5958  1.8119
 6589WAT    EPW27078   2.361   4.333   0.262  0.6697 -0.4821 -0.1091
 6590WAT      O27079   5.652   3.413   3.483  0.0047 -0.2804 -0.1389
 6590WAT     H127080   5.609   3.342   3.456 -0.7953 -0.9250  2.5266
 6590WAT     H227081   5.597   3.478   3.464 -0.2932 -0.6445 -0.5523
 6590WAT    EPW27082   5.637   3.412   3.476 -0.1575 -0.4294  0.1937
 6591WAT      O27083   5.032   1.321   6.609  0.0044 -0.3721  0.4472
 6591WAT     H127084   5.059   1.354   6.533 -0.1577  1.0264  0.9699
 6591WAT     H227085   4.967   1.267   6.586 -0.2733  0.2927 -0.3929
 6591WAT    EPW27086   5.026   1.318   6.594 -0.0605 -0.0673  0.4003
 6592WAT      O27087   2.800   0.767   0.480  0.2748 -0.7434 -0.3144
 6592WAT     H127088   2.729   0.773   0.530 -0.2932  0.7745 -1.2288
 6592WAT     H227089   2.768   0.744   0.402  1.0880 -2.5657 -0.1600
 6592WAT    EPW27090   2.785   0.764   0.476  0.3110 -0.7883 -0.4267
 6593WAT      O27091   1.642   3.963   6.715 -0.4000 -0.3888 -0.1351
 6593WAT     H127092   1.683   3.985   6.641 -2.2858 -0.4964 -1.2645
 6593WAT     H227093   1.635   3.876   6.710  0.6537 -0.5521  0.8528
 6593WAT    EPW27094   1.647   3.954   6.703 -0.5229 -0.4288 -0.1560
 6594WAT      O27095   1.514   5.561   4.912 -0.3190  0.3688  0.3300
 6594WAT     H127096   1.486   5.486   4.877 -0.9197  0.5176  0.4806
 6594WAT     H227097   1.513   5.546   4.998 -2.1018  1.0710  0.4919
 6594WAT    EPW27098   1.509   5.548   4.919 -0.6711  0.4945  0.3762
 6595WAT      O27099   6.013   5.951   3.289  0.2431  0.1806 -0.1641
 6595WAT     H127100   6.035   6.032   3.312 -2.1243  0.6087  0.8656
 6595WAT     H227101   5.984   5.959   3.208  1.7464 -0.0291 -0.7627
 6595WAT    EPW27102   6.012   5.964   3.281  0.1155  0.2128 -0.1004
 6596WAT      O27103   1.078   7.170   3.082  0.0758 -0.7721  0.1670
 6596WAT     H127104   1.057   7.103   3.031 -0.3006  0.0739 -0.8287
 6596WAT     H227105   1.121   7.224   3.028  0.7287 -0.3812  1.0455
 6596WAT    EPW27106   1.082   7.168   3.067  0.1167 -0.5893  0.1497
 6597WAT      O27107   6.315   2.693   0.922 -0.3411 -0.7267  0.2875
 6597WAT     H127108   6.342   2.772   0.898 -0.5489 -0.7158  0.0941
 6597WAT     H227109   6.356   2.680   0.998  0.2582 -0.7330 -0.0291
 6597WAT    EPW27110   6.325   2.703   0.930 -0.2832 -0.7260  0.2122
 6598WAT      O27111   2.137   2.413   1.423 -0.2137 -0.6219  0.1007
 6598WAT     H127112   2.123   2.456   1.349  0.5095 -1.3651 -0.4839
 6598WAT     H227113   2.181   2.342   1.398 -1.5842 -1.8540  0.9992
 6598WAT    EPW27114   2.142   2.409   1.409 -0.3093 -0.9137  0.1471
 6599WAT      O27115   0.695   1.059   1.496 -0.6181  0.4060 -0.5869
 6599WAT     H127116   0.677   0.974   1.489 -1.1417  0.3452  1.1587
 6599WAT     H227117   0.729   1.066   1.576  0.8542  1.6178 -1.2715
 6599WAT    EPW27118   0.697   1.047   1.507 -0.4779  0.5761 -0.4302
 6600WAT      O27119   5.001   4.228   5.661 -0.3272  0.7239  0.2285
 6600WAT     H127120   4.917   4.207   5.654 -0.7555  2.5812 -1.1733
 6600WAT     H227121   5.041   4.169   5.610 -1.2875  2.0699 -2.2671
 6600WAT    EPW27122   4.994   4.216   5.652 -0.5323  1.1971 -0.3472
 6601WAT      O27123   0.012   3.845   2.611  0.1604 -0.2996 -0.3155
 6601WAT     H127124   0.029   3.765   2.580 -0.1286 -0.9865  1.1869
 6601WAT     H227125  -0.059   3.833   2.660 -0.8344  1.2162 -1.3128
 6601WAT    EPW27126   0.004   3.831   2.614 -0.0292 -0.1772 -0.2409
 6602WAT      O27127   1.563   6.453   2.502 -0.1738 -0.2121  0.1477
 6602WAT     H127128   1.517   6.385   2.530  0.7452 -0.9057  0.0303
 6602WAT     H227129   1.617   6.470   2.568  0.7935 -0.7305 -0.4743
 6602WAT    EPW27130   1.564   6.446   2.516  0.1049 -0.3912  0.0385
 6603WAT      O27131   4.013   5.449   0.128  0.0393 -0.9419  0.0950
 6603WAT     H127132   3.977   5.528   0.132  2.3942  0.1855  3.1451
 6603WAT     H227133   3.945   5.397   0.110 -2.5474  1.3227  2.2664
 6603WAT    EPW27134   3.998   5.453   0.126  0.0051 -0.4409  0.8663
 6604WAT      O27135   1.380   3.002   3.577 -0.0094 -0.0854  0.4039
 6604WAT     H127136   1.316   2.944   3.575  0.8907 -1.1015 -1.6122
 6604WAT     H227137   1.395   3.020   3.493  1.1085  1.5489  0.8866
 6604WAT    EPW27138   1.373   2.996   3.564  0.2887  0.0059  0.1774
 6605WAT      O27139   5.791   0.897   4.715 -0.3857  0.2804  0.0457
 6605WAT     H127140   5.764   0.831   4.664  0.3220 -1.1537  1.4537
 6605WAT     H227141   5.877   0.889   4.716 -0.2381  1.6181 -0.2155
 6605WAT    EPW27142   5.799   0.886   4.708 -0.2593  0.2661  0.2151
 6606WAT      O27143   6.706   0.103   1.033 -0.3270  0.3814 -0.4532
 6606WAT     H127144   6.647   0.140   0.981 -0.6534  0.6346  0.0903
 6606WAT     H227145   6.673   0.113   1.113  0.8630  1.3142 -0.0449
 6606WAT    EPW27146   6.693   0.110   1.037 -0.1994  0.5566 -0.3126
 6607WAT      O27147   5.782   6.719   2.929 -0.3185 -0.3779  0.1029
 6607WAT     H127148   5.722   6.700   2.869 -0.1988 -0.2645 -0.0555
 6607WAT     H227149   5.764   6.802   2.951  1.6802  0.8133 -2.2654
 6607WAT    EPW27150   5.771   6.729   2.923 -0.0056 -0.1852 -0.2704
 6608WAT      O27151   3.882   2.042   0.002 -0.0497 -0.0261 -0.6005
 6608WAT     H127152   3.876   2.119   0.042 -0.5827 -0.8808  1.0620
 6608WAT     H227153   3.882   2.063  -0.083  0.7163  1.8447 -0.1990
 6608WAT    EPW27154   3.881   2.056  -0.005 -0.0153  0.1240 -0.2956
 6609WAT      O27155   1.441   2.251   0.867 -0.6167 -0.3422  0.3770
 6609WAT     H127156   1.462   2.317   0.814 -0.4577 -0.1721  0.6526
 6609WAT     H227157   1.354   2.244   0.858 -0.6007 -0.2611  0.1566
 6609WAT    EPW27158   1.431   2.260   0.858 -0.5909 -0.3051  0.3852
 6610WAT      O27159   2.449   1.090   0.817  0.2365 -0.4969 -0.3194
 6610WAT     H127160   2.393   1.071   0.753  0.9655  2.0230 -1.8716
 6610WAT     H227161   2.512   1.135   0.776  1.5237 -0.0673  1.9524
 6610WAT    EPW27162   2.450   1.094   0.801  0.5343 -0.0612 -0.2131
 6611WAT      O27163   2.157   2.668   7.283 -0.0965  0.5835 -0.0126
 6611WAT     H127164   2.182   2.683   7.365  0.6000 -2.2836  0.4075
 6611WAT     H227165   2.124   2.587   7.286  0.7147  0.0424 -2.6772
 6611WAT    EPW27166   2.156   2.658   7.296  0.1262  0.0800 -0.3441
 6612WAT      O27167   1.104   4.139   2.658  0.2582  0.4732  0.8160
 6612WAT     H127168   1.070   4.212   2.625  1.5987  1.2190  1.0062
 6612WAT     H227169   1.181   4.132   2.618 -0.1069 -1.1819  0.3619
 6612WAT    EPW27170   1.111   4.149   2.647  0.4023  0.3389  0.7770
 6613WAT      O27171   1.419   6.407   1.120  0.1251  0.1045 -0.3025
 6613WAT     H127172   1.344   6.369   1.143  0.0835  0.3112 -0.0876
 6613WAT     H227173   1.469   6.397   1.191  0.4574 -0.4329 -0.6084
 6613WAT    EPW27174   1.415   6.400   1.134  0.1681  0.0556 -0.3160
 6614WAT      O27175   6.209   1.802   4.888 -0.4130  0.3517  0.5454
 6614WAT     H127176   6.146   1.814   4.948  0.5791  0.0703  1.6802
 6614WAT     H227177   6.202   1.873   4.838 -0.4289  1.2735  1.7945
 6614WAT    EPW27178   6.199   1.814   4.890 -0.2688  0.4463  0.8975
 6615WAT      O27179   1.567   6.473   6.608  0.1535  0.2813 -0.0587
 6615WAT     H127180   1.541   6.394   6.583  1.9881  0.0923 -1.5678
 6615WAT     H227181   1.591   6.512   6.534  2.1587  1.1315  0.9429
 6615WAT    EPW27182   1.567   6.467   6.594  0.7207  0.3789 -0.1337
 6616WAT      O27183   4.113   3.706   3.881 -0.4939  0.0001 -0.1662
 6616WAT     H127184   4.111   3.790   3.857 -2.0463 -0.0436 -0.3175
 6616WAT     H227185   4.142   3.708   3.963  0.4983  0.5720 -0.5140
 6616WAT    EPW27186   4.117   3.719   3.889 -0.5766  0.0781 -0.2399
 6617WAT      O27187   0.561   2.925   6.370  0.5652 -0.2065  0.6424
 6617WAT     H127188   0.480   2.908   6.341  1.1548  0.3273 -1.4911
 6617WAT     H227189   0.548   2.952   6.451 -1.2073 -2.0695  1.0747
 6617WAT    EPW27190   0.547   2.926   6.377  0.3904 -0.4029  0.3911
 6618WAT      O27191   4.003   1.309   1.523  0.4050 -0.4189  0.4519
 6618WAT     H127192   4.005   1.295   1.437  1.1268 -0.8587  0.5313
 6618WAT     H227193   4.035   1.390   1.531 -0.9918  0.1996  0.2196
 6618WAT    EPW27194   4.008   1.319   1.512  0.3053 -0.3925  0.4293
 6619WAT      O27195   4.808   1.208   4.484 -0.7269 -1.0333  0.1744
 6619WAT     H127196   4.793   1.284   4.526  1.7571 -0.2704 -0.1829
 6619WAT     H227197   4.861   1.166   4.539 -1.6698 -2.3428  0.1195
 6619WAT    EPW27198   4.814   1.213   4.499 -0.4993 -1.1140  0.1135
 6620WAT      O27199   1.317   3.129   0.619  0.5549 -0.0234 -0.3922
 6620WAT     H127200   1.356   3.201   0.588 -0.0167  1.2799  1.7239
 6620WAT     H227201   1.233   3.152   0.624  0.3044 -0.9902 -0.0532
 6620WAT    EPW27202   1.311   3.143   0.615  0.4335  0.0263 -0.0295
 6621WAT      O27203   6.083   1.834   0.118  0.1045  0.1974  0.0019
 6621WAT     H127204   6.091   1.747   0.121 -0.0951  0.0877 -1.7824
 6621WAT     H227205   6.020   1.846   0.059 -0.1392  1.5590  0.5184
 6621WAT    EPW27206   6.075   1.823   0.110  0.0390  0.3823 -0.1854
 6622WAT      O27207   1.369   4.540   6.171 -0.1883 -0.9862 -0.3939
 6622WAT     H127208   1.416   4.519   6.242 -0.1214 -1.2559 -0.5151
 6622WAT     H227209   1.295   4.571   6.203  0.8304  1.4271 -0.1226
 6622WAT    EPW27210   1.365   4.542   6.186 -0.0279 -0.6695 -0.3718
 6623WAT      O27211   1.236   0.698   6.921  0.0991  0.1980 -0.0850
 6623WAT     H127212   1.240   0.740   6.997  2.3773  0.0103 -0.0256
 6623WAT     H227213   1.236   0.763   6.862  0.6340  0.3242  0.0494
 6623WAT    EPW27214   1.237   0.714   6.924  0.5146  0.1889 -0.0563
 6624WAT      O27215   2.883   3.938   2.384  0.3005  0.6576  0.6983
 6624WAT     H127216   2.844   3.986   2.322  1.0859 -0.2557 -0.5391
 6624WAT     H227217   2.817   3.897   2.423 -0.1307  0.4353 -0.2450
 6624WAT    EPW27218   2.867   3.939   2.381  0.3528  0.4899  0.3762
 6625WAT      O27219   1.304   2.081   1.834  0.1045  0.6763  0.0649
 6625WAT     H127220   1.322   2.047   1.756 -0.5924  0.1179  0.1423
 6625WAT     H227221   1.334   2.163   1.828  0.1621  0.6028 -0.7440
 6625WAT    EPW27222   1.311   2.088   1.822  0.0100  0.5830 -0.0432
 6626WAT      O27223   1.174   0.117   4.967  0.0245  0.7145 -0.1206
 6626WAT     H127224   1.228   0.165   4.918  1.2860  0.8181  1.2981
 6626WAT     H227225   1.184   0.036   4.936  0.8010  0.7782 -0.0467
 6626WAT    EPW27226   1.183   0.112   4.956  0.3255  0.7392  0.0999
 6627WAT      O27227   0.632   6.808   0.418 -0.6524 -0.1107  0.0726
 6627WAT     H127228   0.603   6.887   0.441  0.5225  0.9769 -1.9364
 6627WAT     H227229   0.584   6.754   0.467 -0.3757  1.8433  2.7158
 6627WAT    EPW27230   0.620   6.812   0.428 -0.4380  0.3386  0.1663
 6628WAT      O27231   4.295   3.326   5.191 -0.5820  0.3190  0.3181
 6628WAT     H127232   4.211   3.322   5.217 -0.0687 -0.9496  1.9769
 6628WAT     H227233   4.299   3.264   5.130 -1.2405  1.6553 -1.1474
 6628WAT    EPW27234   4.283   3.316   5.186 -0.6035  0.3290  0.3467
 6629WAT      O27235   3.877   2.145   4.155  0.2111 -0.2450  0.3461
 6629WAT     H127236   3.907   2.065   4.176  0.0171 -0.1300  1.1049
 6629WAT     H227237   3.914   2.161   4.078 -0.6930 -1.5749 -0.4103
 6629WAT    EPW27238   3.887   2.135   4.147  0.0489 -0.4244  0.3464
 6630WAT      O27239   5.455   6.107   3.931  0.5703 -0.2944 -0.0449
 6630WAT     H127240   5.490   6.186   3.923 -1.9655  1.1063  1.4226
 6630WAT     H227241   5.400   6.102   3.863  3.0839 -2.3138 -2.1217
 6630WAT    EPW27242   5.452   6.118   3.920  0.5670 -0.3858 -0.1349
 6631WAT      O27243   0.380   2.130   4.192 -0.0395 -0.1460  0.1954
 6631WAT     H127244   0.403   2.085   4.263  1.1221  0.3641  0.1707
 6631WAT     H227245   0.423   2.090   4.127 -0.3088 -0.0119 -0.0685
 6631WAT    EPW27246   0.390   2.118   4.193  0.0923 -0.0509  0.1527
 6632WAT      O27247   5.245   6.115   3.722  0.5624 -0.0701  0.0272
 6632WAT     H127248   5.163   6.110   3.754  0.8094  1.3754  1.0119
 6632WAT     H227249   5.238   6.174   3.659  0.9110  0.3476  0.3769
 6632WAT    EPW27250   5.232   6.123   3.718  0.6504  0.2051  0.2244
 6633WAT      O27251   4.933   0.176   0.016 -0.2384  0.5377 -0.4976
 6633WAT     H127252   4.973   0.115   0.065 -2.0811  0.4298  1.0139
 6633WAT     H227253   4.941   0.145  -0.065  0.8184 -0.5665 -0.0137
 6633WAT    EPW27254   4.940   0.162   0.011 -0.3545  0.3586 -0.2028
 6634WAT      O27255   4.693   5.861   0.618  0.3898  0.3579  0.5091
 6634WAT     H127256   4.756   5.841   0.675  0.7232  0.3628  0.1482
 6634WAT     H227257   4.687   5.948   0.624  1.3514  0.5149 -0.4021
 6634WAT    EPW27258   4.702   5.871   0.628  0.5811  0.3818  0.3212
 6635WAT      O27259   2.881   0.145   6.161  0.2803 -0.1702  0.0918
 6635WAT     H127260   2.854   0.183   6.087 -1.4702 -1.6793 -0.1213
 6635WAT     H227261   2.919   0.209   6.204 -0.1869  1.1728 -1.3956
 6635WAT    EPW27262   2.882   0.160   6.156 -0.0473 -0.1947 -0.1594
 6636WAT      O27263   7.223   3.501   5.218 -0.1637  0.1762 -0.0656
 6636WAT     H127264   7.210   3.582   5.188  0.3871  0.5511  0.6622
 6636WAT     H227265   7.301   3.506   5.257  1.2223 -1.4237 -2.3971
 6636WAT    EPW27266   7.233   3.514   5.219  0.1224 -0.0047 -0.3025
 6637WAT      O27267   6.698   3.284   1.338  0.4905  0.1262 -0.3906
 6637WAT     H127268   6.649   3.355   1.354 -2.0569 -1.6064 -0.0144
 6637WAT     H227269   6.645   3.218   1.357  3.4994 -1.9670  1.5584
 6637WAT    EPW27270   6.683   3.285   1.343  0.5587 -0.4390 -0.0471
 6638WAT      O27271   6.188   3.612   5.156 -0.5163 -0.4522 -0.1575
 6638WAT     H127272   6.217   3.619   5.074  0.0230 -0.1968  0.0432
 6638WAT     H227273   6.260   3.628   5.204 -0.3982 -2.3727  0.3707
 6638WAT    EPW27274   6.203   3.616   5.151 -0.4192 -0.6982 -0.0498
 6639WAT      O27275   0.842   3.279   2.516  0.2121 -0.0677 -0.6287
 6639WAT     H127276   0.816   3.359   2.490  1.7692  0.4737 -0.6464
 6639WAT     H227277   0.792   3.263   2.586  0.6432  1.4437  0.0693
 6639WAT    EPW27278   0.830   3.289   2.522  0.5058  0.2355 -0.5282
 6640WAT      O27279   3.623   2.286   3.660 -0.3779 -0.4809  0.1161
 6640WAT     H127280   3.559   2.332   3.622 -0.7770 -0.5856  0.6506
 6640WAT     H227281   3.695   2.327   3.634 -0.6590 -0.3315 -0.4553
 6640WAT    EPW27282   3.624   2.299   3.650 -0.4784 -0.4743  0.1106
 6641WAT      O27283   1.212   3.689   5.519 -0.1153  0.2535  0.4512
 6641WAT     H127284   1.147   3.631   5.528 -0.8031  0.9077 -0.1864
 6641WAT     H227285   1.236   3.681   5.436 -0.0167  0.6722  0.4374
 6641WAT    EPW27286   1.206   3.680   5.508 -0.2024  0.4120  0.3550
 6642WAT      O27287   6.319   3.717   7.010  0.3825 -0.0895 -0.4165
 6642WAT     H127288   6.311   3.630   7.006 -1.5951 -0.0333  1.0894
 6642WAT     H227289   6.374   3.730   7.076 -0.3964 -0.1812  0.2558
 6642WAT    EPW27290   6.326   3.706   7.019 -0.0247 -0.0947 -0.0947
 6643WAT      O27291   4.705   7.223   5.188  0.2455 -0.1059  0.0253
 6643WAT     H127292   4.772   7.193   5.141 -0.7606 -1.8882 -0.3752
 6643WAT     H227293   4.642   7.233   5.128 -0.8255 -1.6804  0.8045
 6643WAT    EPW27294   4.705   7.220   5.172 -0.0613 -0.6018  0.0813
 6644WAT      O27295   1.600   3.162   4.904 -0.0202  0.8148  0.3745
 6644WAT     H127296   1.526   3.147   4.859  0.5455  0.8788 -0.6011
 6644WAT     H227297   1.627   3.082   4.925 -0.4246  0.7951  0.8486
 6644WAT    EPW27298   1.593   3.148   4.901  0.0036  0.8214  0.3004
 6645WAT      O27299   3.703   0.725   0.589  0.3006  0.0180 -0.4009
 6645WAT     H127300   3.662   0.801   0.593  0.2758  0.0061 -0.4292
 6645WAT     H227301   3.679   0.692   0.511  0.5079  0.0930 -0.4963
 6645WAT    EPW27302   3.694   0.731   0.578  0.3276  0.0273 -0.4192
 6646WAT      O27303   3.778   4.919   3.749  0.3465  0.0595 -0.6837
 6646WAT     H127304   3.698   4.900   3.779  0.7803 -0.8735 -0.0351
 6646WAT     H227305   3.818   4.841   3.750  1.7567  0.7708  0.5561
 6646WAT    EPW27306   3.772   4.904   3.754  0.6189  0.0268 -0.4047
 6647WAT      O27307   2.799   0.921   0.845 -0.1208 -0.2570 -0.0560
 6647WAT     H127308   2.756   0.881   0.781 -2.0552 -2.3289  2.3425
 6647WAT     H227309   2.854   0.859   0.874  0.9518  0.7542  0.1420
 6647WAT    EPW27310   2.801   0.906   0.840 -0.2481 -0.4137  0.3276
 6648WAT      O27311   0.806   3.976   7.236  0.1973 -0.0318 -0.2629
 6648WAT     H127312   0.874   4.031   7.238  0.3852 -0.2034  2.4235
 6648WAT     H227313   0.839   3.902   7.271 -1.1232 -0.4111  0.2357
 6648WAT    EPW27314   0.821   3.973   7.241  0.0300 -0.1132  0.2076
 6649WAT      O27315   0.064   4.195   1.548 -0.3168 -0.4169 -0.1495
 6649WAT     H127316   0.071   4.116   1.513  0.8812 -0.4691  0.1691
 6649WAT     H227317   0.022   4.241   1.487 -0.9075 -1.2568 -0.3893
 6649WAT    EPW27318   0.059   4.190   1.534 -0.2271 -0.5487 -0.1378
 6650WAT      O27319   1.840   2.856   2.120  0.6652 -0.0178 -0.0124
 6650WAT     H127320   1.755   2.837   2.118  0.6772 -0.0306 -0.5754
 6650WAT     H227321   1.860   2.851   2.205  0.1048 -0.0097  0.1249
 6650WAT    EPW27322   1.831   2.852   2.132  0.5842 -0.0185 -0.0753
 6651WAT      O27323   6.764   0.874   5.517  0.1948  0.1982  0.2046
 6651WAT     H127324   6.732   0.833   5.587  1.9798  0.1392  1.0540
 6651WAT     H227325   6.744   0.958   5.530 -0.6978  0.0097  0.0684
 6651WAT    EPW27326   6.757   0.880   5.529  0.3266  0.1617  0.3100
 6652WAT      O27327   6.143   3.700   4.601 -0.0319  0.4477  0.3520
 6652WAT     H127328   6.102   3.776   4.590 -0.0078  0.4406  0.2145
 6652WAT     H227329   6.220   3.712   4.563 -0.4212  0.0125 -0.6316
 6652WAT    EPW27330   6.148   3.713   4.594 -0.0859  0.3824  0.1864
 6653WAT      O27331   0.895   7.133   2.403 -0.4965 -0.2962  0.1609
 6653WAT     H127332   0.962   7.105   2.451  1.4112 -0.4459 -2.4417
 6653WAT     H227333   0.831   7.077   2.424  0.7923 -1.4741  1.1483
 6653WAT    EPW27334   0.895   7.121   2.414 -0.0243 -0.4923 -0.0777
 6654WAT      O27335   1.990   4.057   0.002  0.4480 -0.3200  0.2331
 6654WAT     H127336   2.048   4.033  -0.059  0.1489 -0.5564  0.0371
 6654WAT     H227337   1.950   4.125  -0.035 -0.1872 -0.8738 -0.1166
 6654WAT    EPW27338   1.993   4.064  -0.013  0.3100 -0.4367  0.1525
 6655WAT      O27339   6.416   3.691   3.216 -0.1770  0.0945  0.3752
 6655WAT     H127340   6.402   3.684   3.130 -0.0022  0.7446  0.2890
 6655WAT     H227341   6.496   3.656   3.227 -0.3214 -0.2546  0.3188
 6655WAT    EPW27342   6.426   3.685   3.205 -0.1725  0.1389  0.3542
 6656WAT      O27343   3.176   1.215   4.807  0.0440 -0.1961  0.3574
 6656WAT     H127344   3.206   1.286   4.847  0.5158 -0.2857  0.1740
 6656WAT     H227345   3.229   1.151   4.836 -1.6428 -0.8900  2.1588
 6656WAT    EPW27346   3.188   1.216   4.817 -0.1355 -0.3119  0.5964
 6657WAT      O27347   5.210   3.081   6.041 -0.2881 -0.0315  0.1936
 6657WAT     H127348   5.150   3.143   6.054  0.3803  1.2158 -2.1008
 6657WAT     H227349   5.201   3.029   6.111 -1.7283  1.9417  1.6029
 6657WAT    EPW27350   5.200   3.083   6.053 -0.4021  0.4442  0.0629
 6658WAT      O27351   1.869   1.805   7.171  0.0749 -0.4787 -0.5694
 6658WAT     H127352   1.864   1.806   7.258 -0.7733 -0.4544 -0.6162
 6658WAT     H227353   1.925   1.739   7.155  1.9837  0.9108  0.0454
 6658WAT    EPW27354   1.877   1.795   7.181  0.2316 -0.2698 -0.4855
 6659WAT      O27355   1.726   5.172   1.169  0.6267  0.3359  0.4370
 6659WAT     H127356   1.773   5.137   1.104  0.3199  0.9205 -0.1151
 6659WAT     H227357   1.786   5.207   1.222  0.8485  4.0708 -1.9412
 6659WAT    EPW27358   1.742   5.172   1.167  0.6141  0.9740  0.0042
 6660WAT      O27359   4.482   0.892   3.651  0.3629 -0.1121 -0.1917
 6660WAT     H127360   4.502   0.865   3.570  0.5517  0.0689 -0.2067
 6660WAT     H227361   4.555   0.934   3.676  0.5078 -0.6446  0.2770
 6660WAT    EPW27362   4.496   0.894   3.642  0.4122 -0.1640 -0.1247
 6661WAT      O27363   4.830   4.878   1.467  0.0173 -0.2066 -0.2420
 6661WAT     H127364   4.809   4.890   1.550  1.6315  1.3872  0.0008
 6661WAT     H227365   4.874   4.802   1.467 -0.2884 -0.3832  0.3004
 6661WAT    EPW27366   4.834   4.869   1.479  0.2106  0.0027 -0.1260
 6662WAT      O27367   4.542   7.188   1.549 -0.1099  0.2756 -0.2014
 6662WAT     H127368   4.624   7.171   1.571 -0.2139 -1.9083 -1.2724
 6662WAT     H227369   4.549   7.250   1.488  1.0710 -1.9909 -2.5761
 6662WAT    EPW27370   4.555   7.194   1.543  0.0492 -0.3818 -0.7104
 6663WAT      O27371   0.902   5.198   7.246 -0.0807 -0.5654 -0.1666
 6663WAT     H127372   0.910   5.123   7.202 -1.9312 -1.2362  0.5254
 6663WAT     H227373   0.960   5.251   7.208  1.5538 -2.4315 -0.4427
 6663WAT    EPW27374   0.912   5.195   7.234 -0.1126 -0.9402 -0.1052
 6664WAT      O27375   6.316   1.095   2.312 -0.6826 -0.1587  0.0293
 6664WAT     H127376   6.326   1.126   2.231  0.1862 -1.9821 -0.6086
 6664WAT     H227377   6.356   1.154   2.361 -0.5128  0.5780 -0.9530
 6664WAT    EPW27378   6.323   1.108   2.307 -0.5291 -0.3193 -0.2100
 6665WAT      O27379   6.443   0.103   0.459  0.4115  0.2913 -0.2048
 6665WAT     H127380   6.359   0.093   0.484 -0.6070  2.0214 -2.5569
 6665WAT     H227381   6.461   0.027   0.420  0.3924 -0.5406  1.2998
 6665WAT    EPW27382   6.433   0.090   0.457  0.2582  0.4240 -0.3300
 6666WAT      O27383   4.159   1.811   2.345  0.2126 -0.4173 -0.1820
 6666WAT     H127384   4.111   1.784   2.277  0.5074 -2.0855  0.2266
 6666WAT     H227385   4.173   1.895   2.328 -1.9352 -0.1423 -0.8392
 6666WAT    EPW27386   4.154   1.819   2.332 -0.0611 -0.6231 -0.2187
 6667WAT      O27387   6.018   6.437   1.727 -0.5793 -0.4146 -0.1582
 6667WAT     H127388   6.037   6.387   1.796  0.5104 -0.5933 -0.5813
 6667WAT     H227389   5.991   6.512   1.763  2.1931  0.3514  0.5016
 6667WAT    EPW27390   6.017   6.440   1.743 -0.0088 -0.3279 -0.1233
 6668WAT      O27391   2.110   5.118   1.613  0.2024  0.2036 -0.0425
 6668WAT     H127392   2.146   5.195   1.593  1.0922  0.0743  0.9489
 6668WAT     H227393   2.142   5.064   1.552  0.5911  0.3695  0.0121
 6668WAT    EPW27394   2.120   5.121   1.601  0.3912  0.2090  0.1120
 6669WAT      O27395   4.184   3.548   2.152 -0.2191  0.8634 -0.2281
 6669WAT     H127396   4.257   3.596   2.149  1.0196 -0.9021 -0.0683
 6669WAT     H227397   4.191   3.495   2.083 -0.7316 -0.1511  0.4740
 6669WAT    EPW27398   4.196   3.547   2.142 -0.1118  0.4527 -0.1008
 6670WAT      O27399   6.024   0.828   1.707 -0.8212  0.0703  0.5369
 6670WAT     H127400   6.053   0.904   1.675 -0.8703  0.0861  0.5308
 6670WAT     H227401   5.956   0.809   1.656  1.0094 -1.5208 -1.5452
 6670WAT    EPW27402   6.018   0.836   1.695 -0.5580 -0.1624  0.2284
 6671WAT      O27403   3.621   5.773   2.414 -0.3857 -0.1340  0.0809
 6671WAT     H127404   3.677   5.806   2.357 -0.6786  0.9304  0.3870
 6671WAT     H227405   3.549   5.757   2.367 -0.7807  1.1522  0.2017
 6671WAT    EPW27406   3.619   5.776   2.399 -0.4873  0.2132  0.1440
 6672WAT      O27407   2.522   1.910   1.538  0.2227 -0.2873 -0.2676
 6672WAT     H127408   2.476   1.975   1.503 -0.4820 -0.4658  0.2838
 6672WAT     H227409   2.535   1.855   1.472 -0.9818 -0.5643 -0.2921
 6672WAT    EPW27410   2.517   1.911   1.523 -0.0593 -0.3546 -0.1898
 6673WAT      O27411   4.475   2.074   5.082 -0.4903  0.1452  0.2446
 6673WAT     H127412   4.443   2.046   5.005 -1.1752  0.5041  0.3916
 6673WAT     H227413   4.541   2.126   5.060 -1.2787  1.0063 -0.1479
 6673WAT    EPW27414   4.480   2.077   5.067 -0.7079  0.3254  0.2083
 6674WAT      O27415   6.401   3.177   4.342  0.9602 -0.3892  0.3709
 6674WAT     H127416   6.451   3.161   4.272  0.0620  0.9968 -0.6307
 6674WAT     H227417   6.323   3.145   4.319  0.3530  1.1372  0.2274
 6674WAT    EPW27418   6.397   3.170   4.328  0.7378  0.0410  0.2017
 6675WAT      O27419   4.176   1.557   2.859  0.0037 -0.0804 -0.4792
 6675WAT     H127420   4.253   1.548   2.820 -0.3310  0.2726 -1.2482
 6675WAT     H227421   4.166   1.482   2.902  1.1599  0.2060  0.3359
 6675WAT    EPW27422   4.186   1.545   2.859  0.1250  0.0141 -0.4724
 6676WAT      O27423   5.532   4.010   6.261 -0.2999 -0.4663  0.2808
 6676WAT     H127424   5.562   3.932   6.236 -0.2584 -0.8228  1.3576
 6676WAT     H227425   5.506   3.996   6.344 -1.2919  0.3984  0.1399
 6676WAT    EPW27426   5.532   3.996   6.270 -0.4403 -0.3912  0.4191
 6677WAT      O27427   3.014   0.164   4.436  0.3520  0.3553  0.3846
 6677WAT     H127428   3.100   0.181   4.438  0.6931 -1.2337  2.5293
 6677WAT     H227429   3.004   0.117   4.363  1.0447  1.5896 -0.5441
 6677WAT    EPW27430   3.025   0.160   4.425  0.5047  0.3029  0.5643
 6678WAT      O27431   5.904   2.242   7.147 -0.3145 -0.0409  0.3011
 6678WAT     H127432   5.828   2.201   7.137 -0.8818  0.6564  1.5299
 6678WAT     H227433   5.963   2.180   7.132 -1.1308 -0.9397  0.6892
 6678WAT    EPW27434   5.902   2.227   7.143 -0.5189 -0.0707  0.5399
 6679WAT      O27435   0.573   5.399   0.573 -0.2557  0.2686 -0.3765
 6679WAT     H127436   0.617   5.433   0.640  0.7496 -0.5922 -0.5703
 6679WAT     H227437   0.556   5.468   0.522  1.4610  0.5506 -0.6203
 6679WAT    EPW27438   0.577   5.414   0.575  0.1464  0.1831 -0.4412
 6680WAT      O27439   5.968   5.551   4.171 -0.1990 -0.0670  0.5784
 6680WAT     H127440   5.932   5.606   4.229  0.4598  0.1649  0.7813
 6680WAT     H227441   5.900   5.521   4.126 -0.4992  1.6640 -0.1971
 6680WAT    EPW27442   5.952   5.555   4.173 -0.1460  0.2230  0.4938
 6681WAT      O27443   0.989   3.877   6.260 -0.4302 -0.5184 -0.2373
 6681WAT     H127444   1.010   3.901   6.341 -1.5285 -0.1702 -0.0466
 6681WAT     H227445   1.045   3.811   6.244 -2.3254 -2.9311  2.0827
 6681WAT    EPW27446   1.001   3.871   6.270 -0.8724 -0.8234  0.1336
 6682WAT      O27447   3.437   0.435   5.198 -0.0034  0.4068  0.1465
 6682WAT     H127448   3.389   0.438   5.270 -0.6960  1.4156 -0.3314
 6682WAT     H227449   3.391   0.482   5.141  1.5637  1.4799 -0.3079
 6682WAT    EPW27450   3.423   0.443   5.200  0.1258  0.7143  0.0088
 6683WAT      O27451   0.775   2.900   2.611  0.2878  0.7871 -0.1074
 6683WAT     H127452   0.837   2.892   2.673 -1.1023  0.1784  1.2707
 6683WAT     H227453   0.733   2.973   2.634 -1.5576 -0.5370  0.9787
 6683WAT    EPW27454   0.778   2.909   2.624 -0.1902  0.5016  0.2566
 6684WAT      O27455   1.182   5.091   2.961 -0.3197 -0.4456 -0.4566
 6684WAT     H127456   1.143   5.078   2.883 -0.9914 -2.8596  0.1872
 6684WAT     H227457   1.120   5.131   3.008 -0.3927 -0.1855 -0.7692
 6684WAT    EPW27458   1.167   5.095   2.956 -0.4297 -0.7638 -0.4077
 6685WAT      O27459   6.649   4.001   4.268 -0.1887 -0.4084  0.6111
 6685WAT     H127460   6.705   3.951   4.224 -0.0050 -0.5891  1.0575
 6685WAT     H227461   6.667   4.082   4.239 -0.9408 -0.6514 -0.6139
 6685WAT    EPW27462   6.660   4.006   4.257 -0.2727 -0.4710  0.4961
 6686WAT      O27463   6.141   6.671   4.251 -0.6442 -0.1036  0.2221
 6686WAT     H127464   6.138   6.584   4.245 -1.1816 -0.0578 -0.2611
 6686WAT     H227465   6.092   6.688   4.320 -1.0610 -0.1505 -0.0583
 6686WAT    EPW27466   6.134   6.660   4.260 -0.7852 -0.1038  0.1093
 6687WAT      O27467   1.245   4.308   2.371  0.5089 -0.4556 -0.4477
 6687WAT     H127468   1.268   4.231   2.337 -0.3521  0.0875 -2.4406
 6687WAT     H227469   1.260   4.364   2.306  1.6359  1.1798  1.1446
 6687WAT    EPW27470   1.250   4.304   2.356  0.5482 -0.1338 -0.5069
 6688WAT      O27471   5.645   1.387   5.619  0.4621 -0.4707 -0.1414
 6688WAT     H127472   5.710   1.377   5.561 -1.2176 -1.3548 -1.9801
 6688WAT     H227473   5.609   1.463   5.597 -0.1096 -0.7505 -0.1794
 6688WAT    EPW27474   5.649   1.396   5.607  0.1295 -0.6426 -0.4187
 6689WAT      O27475   1.861   0.440   7.287  0.8685 -0.1024 -0.2660
 6689WAT     H127476   1.819   0.501   7.333  0.6210  0.2717 -0.9723
 6689WAT     H227477   1.861   0.472   7.206  0.3094 -1.2471 -0.7350
 6689WAT    EPW27478   1.855   0.454   7.282  0.7494 -0.2162 -0.4396
 6690WAT      O27479   7.284   1.508   0.410 -0.6975 -0.4686  0.4775
 6690WAT     H127480   7.282   1.594   0.424 -2.1248 -0.2809 -0.6463
 6690WAT     H227481   7.239   1.498   0.335  0.1070 -2.1138  0.1647
 6690WAT    EPW27482   7.277   1.519   0.401 -0.7895 -0.6839  0.2653
 6691WAT      O27483   0.595   4.469   4.678 -0.2412  0.1406 -0.1868
 6691WAT     H127484   0.512   4.464   4.706 -0.1721 -1.2247 -0.1400
 6691WAT     H227485   0.631   4.395   4.708  0.8701  0.4799 -0.6247
 6691WAT    EPW27486   0.588   4.457   4.687 -0.0668 -0.0110 -0.2446
 6692WAT      O27487   2.103   0.501   5.781  0.6923  1.0861  0.0016
 6692WAT     H127488   2.172   0.456   5.751  1.1657  2.0244 -0.3692
 6692WAT     H227489   2.058   0.442   5.827  0.9814  0.1017 -0.9451
 6692WAT    EPW27490   2.107   0.485   5.783  0.8049  1.0793 -0.1931
 6693WAT      O27491   1.044   1.065   3.469  0.2221  0.1204  0.1173
 6693WAT     H127492   0.957   1.072   3.462  0.2080 -0.4955 -0.4921
 6693WAT     H227493   1.074   1.115   3.404  0.3321  0.5077  0.4646
 6693WAT    EPW27494   1.035   1.073   3.458  0.2362  0.0866  0.0786
 6694WAT      O27495   5.563   5.841   4.439 -0.3669 -0.3989  0.0159
 6694WAT     H127496   5.615   5.831   4.509  0.0716  0.0688 -0.2342
 6694WAT     H227497   5.484   5.851   4.473 -0.1663 -0.2675  0.4455
 6694WAT    EPW27498   5.559   5.841   4.454 -0.2725 -0.3104  0.0424
 6695WAT      O27499   0.633   7.065   4.018 -0.1394 -0.5069  0.3113
 6695WAT     H127500   0.567   7.052   3.962 -0.3574  0.8775  0.1945
 6695WAT     H227501   0.628   6.997   4.072 -2.4739  0.1535  1.0622
 6695WAT    EPW27502   0.623   7.053   4.018 -0.5165 -0.2049  0.4050
 6696WAT      O27503   0.798   3.617   1.923 -0.5037 -0.0931 -0.2803
 6696WAT     H127504   0.816   3.532   1.923 -2.8403 -0.6702 -1.1740
 6696WAT     H227505   0.746   3.627   1.992 -1.3813  0.2875 -0.9783
 6696WAT    EPW27506   0.793   3.606   1.933 -0.9785 -0.1221 -0.5154
 6697WAT      O27507   2.819   6.216   2.129 -0.3938  0.2792  0.4010
 6697WAT     H127508   2.767   6.279   2.098 -0.2254  0.2865  0.1215
 6697WAT     H227509   2.895   6.256   2.142 -0.3111  0.1569  0.3063
 6697WAT    EPW27510   2.823   6.231   2.126 -0.3567  0.2622  0.3457
 6698WAT      O27511   4.203   4.077   1.500  0.3440 -0.5767 -0.4807
 6698WAT     H127512   4.158   4.151   1.499 -3.8282 -2.8066  0.1756
 6698WAT     H227513   4.283   4.101   1.475 -0.5017  4.1745  0.4814
 6698WAT    EPW27514   4.208   4.091   1.496 -0.3972 -0.2043 -0.2416
 6699WAT      O27515   5.030   1.587   4.051  0.4785 -0.7206 -0.2839
 6699WAT     H127516   4.979   1.517   4.057 -0.2135 -0.1964  0.0528
 6699WAT     H227517   5.055   1.586   3.967 -0.0849 -0.9791 -0.4568
 6699WAT    EPW27518   5.026   1.576   4.039  0.2930 -0.6813 -0.2597
 6700WAT      O27519   5.255   0.014   1.859 -0.4092  0.2994 -0.5342
 6700WAT     H127520   5.271  -0.002   1.775 -1.2093  0.6242 -0.7622
 6700WAT     H227521   5.318  -0.030   1.901 -0.7518 -0.9288 -1.2506
 6700WAT    EPW27522   5.266   0.005   1.853 -0.5780  0.1660 -0.6737
 6701WAT      O27523   1.549   1.937   3.699 -0.3910 -0.1058 -0.3697
 6701WAT     H127524   1.480   1.990   3.709 -0.0538  0.2009  0.4155
 6701WAT     H227525   1.587   1.967   3.626 -0.5859  0.3087 -0.3073
 6701WAT    EPW27526   1.544   1.949   3.689 -0.3700  0.0007 -0.2445
 6702WAT      O27527   3.877   7.092   4.508 -0.3887 -0.2329  0.2980
 6702WAT     H127528   3.921   7.164   4.489  1.4147 -1.1626  0.7003
 6702WAT     H227529   3.932   7.028   4.485 -0.1728 -1.4547  3.6250
 6702WAT    EPW27530   3.891   7.093   4.502 -0.0904 -0.5507  0.8489
 6703WAT      O27531   1.760   0.230   3.950  0.4545  0.5675  0.0479
 6703WAT     H127532   1.724   0.219   3.872  0.6424  2.1585 -0.2971
 6703WAT     H227533   1.696   0.265   3.998  0.8571  1.2768  0.0806
 6703WAT    EPW27534   1.746   0.233   3.945  0.5417  0.9073  0.0018
 6704WAT      O27535   0.291   5.635   0.887  0.5692  0.4437  0.0608
 6704WAT     H127536   0.315   5.643   0.971  0.7836  1.2169 -0.0652
 6704WAT     H227537   0.284   5.718   0.860  1.3245  0.2060 -0.9233
 6704WAT    EPW27538   0.294   5.648   0.896  0.7124  0.5228 -0.1032
 6705WAT      O27539   1.425   5.781   5.658 -0.0769 -0.5366 -0.1494
 6705WAT     H127540   1.374   5.728   5.611  0.5809 -1.8891  0.5940
 6705WAT     H227541   1.503   5.744   5.653  0.6670  1.0098 -0.5320
 6705WAT    EPW27542   1.429   5.768   5.651  0.1302 -0.5080 -0.0961
 6706WAT      O27543   1.735   6.460   2.726  0.4683 -0.3000  0.2558
 6706WAT     H127544   1.711   6.419   2.800  1.0761 -1.4615 -0.1746
 6706WAT     H227545   1.809   6.501   2.748  1.1378 -1.3776  0.0718
 6706WAT    EPW27546   1.742   6.460   2.740  0.6570 -0.6308  0.1651
 6707WAT      O27547   6.007   7.063   0.689 -0.1313 -0.1677 -0.2981
 6707WAT     H127548   6.066   7.111   0.645 -0.9182  4.9505  3.3284
 6707WAT     H227549   5.936   7.069   0.639  0.5536 -0.0964 -1.3083
 6707WAT    EPW27550   6.006   7.071   0.675 -0.1464  0.5989  0.0884
 6708WAT      O27551   6.767   0.121   2.784  0.3388  0.2411  0.0851
 6708WAT     H127552   6.765   0.127   2.871  0.5387 -0.0946  0.1146
 6708WAT     H227553   6.787   0.037   2.770  0.1702  0.2627 -0.2855
 6708WAT    EPW27554   6.770   0.109   2.795  0.3434  0.1947  0.0348
 6709WAT      O27555   0.920   4.798   0.467 -0.3847 -0.5953  0.0941
 6709WAT     H127556   0.872   4.861   0.430 -0.6673  0.0979  1.5726
 6709WAT     H227557   0.927   4.739   0.404  0.9927  1.4344 -1.8087
 6709WAT    EPW27558   0.914   4.799   0.452 -0.2230 -0.1931  0.0314
 6710WAT      O27559   3.230   4.464   2.143  0.0513 -0.5300  0.4791
 6710WAT     H127560   3.296   4.513   2.115  0.0688 -1.0205 -0.3527
 6710WAT     H227561   3.269   4.396   2.180  0.0124 -0.5402  0.5021
 6710WAT    EPW27562   3.245   4.461   2.144  0.0481 -0.6039  0.3596
 6711WAT      O27563   3.425   3.911   2.127  0.2424 -0.0551 -0.4930
 6711WAT     H127564   3.359   3.953   2.088  1.2280  1.6630 -0.4038
 6711WAT     H227565   3.401   3.908   2.211 -0.6170 -1.2652 -0.7616
 6711WAT    EPW27566   3.412   3.917   2.134  0.2611  0.0200 -0.5195
 6712WAT      O27567   3.596   5.076   2.539 -0.2511 -0.2530  0.0782
 6712WAT     H127568   3.614   4.995   2.564 -2.5448 -0.4079  1.5239
 6712WAT     H227569   3.601   5.123   2.612 -1.0135  0.5002 -0.3219
 6712WAT    EPW27570   3.600   5.071   2.553 -0.7026 -0.1646  0.2326
 6713WAT      O27571   1.096   1.841   6.282 -0.3201  0.3011  0.4321
 6713WAT     H127572   1.170   1.888   6.280  0.1911 -0.5076 -0.4880
 6713WAT     H227573   1.075   1.832   6.198 -1.2068  0.0961  0.6674
 6713WAT    EPW27574   1.104   1.847   6.270 -0.3756  0.1513  0.3309
 6714WAT      O27575   2.840   3.247   5.768  0.2731 -0.2907 -0.3733
 6714WAT     H127576   2.886   3.176   5.746 -0.2882 -0.5757 -0.6318
 6714WAT     H227577   2.865   3.307   5.710 -1.6718 -1.2094 -2.3045
 6714WAT    EPW27578   2.850   3.246   5.757 -0.0972 -0.4685 -0.6968
 6715WAT      O27579   1.577   3.588   3.226  0.1425 -0.0174 -0.6352
 6715WAT     H127580   1.654   3.620   3.200  0.4609 -0.4620 -0.2524
 6715WAT     H227581   1.598   3.513   3.265 -0.5596 -0.5169 -1.1858
 6715WAT    EPW27582   1.592   3.582   3.228  0.0858 -0.1569 -0.6600
 6716WAT      O27583   6.790   4.533   1.872 -0.0747  0.5406 -0.7612
 6716WAT     H127584   6.727   4.551   1.815 -1.0140  1.2975  0.4723
 6716WAT     H227585   6.841   4.476   1.829 -2.3129 -1.1950 -1.3253
 6716WAT    EPW27586   6.789   4.527   1.857 -0.5441  0.3960 -0.6623
 6717WAT      O27587   1.759   4.007   4.905  0.1616 -0.0475  0.0561
 6717WAT     H127588   1.712   3.958   4.850 -0.2849  2.3966 -1.9958
 6717WAT     H227589   1.712   4.007   4.978 -0.0688 -2.1707 -0.0463
 6717WAT    EPW27590   1.745   4.000   4.908  0.0616 -0.0001 -0.2621
 6718WAT      O27591   5.203   5.656   1.076  0.1488 -0.1317  0.2009
 6718WAT     H127592   5.190   5.743   1.076 -2.3731 -0.4132 -0.8052
 6718WAT     H227593   5.159   5.629   1.146 -0.3267 -0.7219 -0.3218
 6718WAT    EPW27594   5.195   5.665   1.086 -0.2940 -0.2605 -0.0250
 6719WAT      O27595   5.287   5.684   3.733 -0.4034 -0.3939  0.3031
 6719WAT     H127596   5.366   5.709   3.705  0.9710 -1.6837  2.6560
 6719WAT     H227597   5.300   5.668   3.818 -3.6408  0.9635  1.2199
 6719WAT    EPW27598   5.301   5.686   3.741 -0.6786 -0.3840  0.7861
 6720WAT      O27599   6.837   1.989   2.025 -0.4817 -0.1426  0.4978
 6720WAT     H127600   6.810   2.050   1.969 -1.5912 -1.3371 -0.3396
 6720WAT     H227601   6.810   2.019   2.102 -1.6177  0.1204  0.0262
 6720WAT    EPW27602   6.829   2.003   2.028 -0.8134 -0.2802  0.3045
 6721WAT      O27603   5.049   1.971   4.331  0.0702  0.3823 -0.0746
 6721WAT     H127604   5.094   1.899   4.314 -0.2460 -0.0225  0.7474
 6721WAT     H227605   5.014   1.992   4.254 -0.2905 -0.6623 -0.2067
 6721WAT    EPW27606   5.050   1.964   4.317 -0.0298  0.1682  0.0273
 6722WAT      O27607   6.535   1.563   3.353  0.0942 -0.1300  0.0867
 6722WAT     H127608   6.473   1.587   3.409  0.4118 -1.7838  1.2317
 6722WAT     H227609   6.496   1.502   3.304  0.0997  0.6216 -0.8667
 6722WAT    EPW27610   6.520   1.557   3.354  0.1419 -0.2633  0.1150
 6723WAT      O27611   5.684   2.044   0.061 -0.1901  0.3614  0.1419
 6723WAT     H127612   5.625   2.017   0.003 -1.7148  1.0837  1.2850
 6723WAT     H227613   5.681   2.131   0.054  0.0414  0.4318  0.8572
 6723WAT    EPW27614   5.675   2.052   0.052 -0.3811  0.4785  0.4164
 6724WAT      O27615   5.966   4.195   6.590 -0.0639 -0.3829 -0.0776
 6724WAT     H127616   5.943   4.113   6.608  0.0878 -0.6675 -1.1036
 6724WAT     H227617   5.908   4.243   6.634 -1.9590 -1.0637 -1.6703
 6724WAT    EPW27618   5.954   4.190   6.599 -0.3215 -0.5255 -0.4644
 6725WAT      O27619   6.033   0.809   0.326 -0.4436 -0.4031 -0.7296
 6725WAT     H127620   6.108   0.766   0.318  0.2340  0.5936  0.0124
 6725WAT     H227621   6.025   0.850   0.249  0.1375  0.0353 -0.5636
 6725WAT    EPW27622   6.043   0.809   0.313 -0.2577 -0.1911 -0.5955
 6726WAT      O27623   3.967   6.074   5.865 -0.0693  1.0229  0.2684
 6726WAT     H127624   3.996   6.113   5.937 -0.8945  2.2609 -0.0501
 6726WAT     H227625   3.903   6.022   5.894 -1.5444  2.7657  0.2656
 6726WAT    EPW27626   3.962   6.072   5.880 -0.4091  1.4632  0.2209
 6727WAT      O27627   4.016   0.940   6.852  0.1090 -0.5044 -0.0932
 6727WAT     H127628   4.025   0.889   6.781 -0.1248 -0.3605 -0.2302
 6727WAT     H227629   4.009   0.883   6.918  0.5360 -0.6378 -0.1587
 6727WAT    EPW27630   4.016   0.924   6.851  0.1375 -0.5029 -0.1231
 6728WAT      O27631   2.414   7.117   0.946 -0.1173  0.1079  0.2284
 6728WAT     H127632   2.501   7.111   0.941 -0.0259  0.9394  0.6429
 6728WAT     H227633   2.390   7.124   0.863  0.2667  0.5018  0.1463
 6728WAT    EPW27634   2.424   7.117   0.933 -0.0470  0.2889  0.2775
 6729WAT      O27635   4.717   2.953   4.575 -0.2517 -0.3751 -0.0708
 6729WAT     H127636   4.777   2.956   4.639  0.4130  0.6760 -0.7136
 6729WAT     H227637   4.730   3.028   4.532 -3.0697  0.6529  0.6696
 6729WAT    EPW27638   4.728   2.965   4.578 -0.5698 -0.0679 -0.0564
 6730WAT      O27639   4.301   2.348   2.262 -0.2034 -0.3218  0.2934
 6730WAT     H127640   4.380   2.324   2.233 -0.1615  0.2723 -0.0917
 6730WAT     H227641   4.317   2.383   2.340  0.0523  0.7779 -0.2429
 6730WAT    EPW27642   4.315   2.349   2.269 -0.1595 -0.0716  0.1573
 6731WAT      O27643   7.136   3.770   5.099 -0.4144  0.2935  0.3209
 6731WAT     H127644   7.056   3.794   5.123 -1.2003  0.2201 -2.0038
 6731WAT     H227645   7.178   3.845   5.086 -0.8486  0.3635 -0.7090
 6731WAT    EPW27646   7.130   3.784   5.101 -0.5947  0.2930 -0.1747
 6732WAT      O27647   2.152   4.031   2.403 -0.0829  0.0850  0.0527
 6732WAT     H127648   2.121   3.951   2.418 -1.3014  0.7347  1.1486
 6732WAT     H227649   2.203   4.020   2.333  0.1010 -1.7143  0.4126
 6732WAT    EPW27650   2.155   4.018   2.395 -0.2357 -0.0848  0.2677
 6733WAT      O27651   0.502   4.911   0.461 -0.0816 -0.5181 -0.6647
 6733WAT     H127652   0.524   4.995   0.456  2.1049 -0.8036  2.0878
 6733WAT     H227653   0.423   4.912   0.497 -0.4824  0.3318 -1.5173
 6733WAT    EPW27654   0.494   4.923   0.465  0.1822 -0.4347 -0.3840
 6734WAT      O27655   2.624   2.304   6.441 -0.2410  0.3713 -0.5910
 6734WAT     H127656   2.690   2.356   6.463  0.7873 -0.3923 -1.7182
 6734WAT     H227657   2.652   2.265   6.368 -0.5661 -2.3779  0.5930
 6734WAT    EPW27658   2.638   2.306   6.433 -0.1371 -0.1476 -0.5826
 6735WAT      O27659   3.423   1.144   0.078  0.2251  0.4385 -0.7205
 6735WAT     H127660   3.489   1.089   0.092 -0.5095 -0.3709 -0.3673
 6735WAT     H227661   3.460   1.223   0.085  0.9019  0.0095  0.7298
 6735WAT    EPW27662   3.438   1.148   0.081  0.2165  0.2556 -0.4541
 6736WAT      O27663   5.943   5.070   6.679 -0.3862 -0.2843 -0.0328
 6736WAT     H127664   5.877   5.037   6.632 -1.6483 -0.3450  1.7015
 6736WAT     H227665   5.910   5.142   6.713  0.7541  0.1535  0.1960
 6736WAT    EPW27666   5.929   5.076   6.677 -0.4042 -0.2286  0.2572
 6737WAT      O27667   4.742   1.892   0.066 -0.3117  0.4352 -0.4976
 6737WAT     H127668   4.771   1.822   0.109  0.1422  1.1908  0.4640
 6737WAT     H227669   4.677   1.922   0.117 -0.4495  0.7588 -0.8578
 6737WAT    EPW27670   4.736   1.886   0.080 -0.2650  0.5946 -0.4088
 6738WAT      O27671   4.685   3.240   0.789  0.2432 -0.3528 -0.0035
 6738WAT     H127672   4.698   3.310   0.840  0.9061 -2.0202  2.2689
 6738WAT     H227673   4.598   3.241   0.775  0.4120  1.6775 -1.2886
 6738WAT    EPW27674   4.674   3.251   0.794  0.3660 -0.2992  0.1423
 6739WAT      O27675   1.093   4.947   4.217 -0.2577  1.0185 -0.2933
 6739WAT     H127676   1.165   4.939   4.168  0.1833  0.8307  0.3775
 6739WAT     H227677   1.036   4.893   4.179  0.1888  0.6195 -0.4040
 6739WAT    EPW27678   1.095   4.938   4.204 -0.1266  0.9318 -0.2105
 6740WAT      O27679   6.671   2.695   6.677 -0.0539  0.2807  0.0977
 6740WAT     H127680   6.750   2.728   6.660 -0.9312  1.6152 -1.6719
 6740WAT     H227681   6.631   2.759   6.720 -0.2255 -0.3805  0.9610
 6740WAT    EPW27682   6.677   2.709   6.681 -0.2089  0.3801 -0.0362
 6741WAT      O27683   3.488   0.891   4.062 -0.1302 -0.5324  0.9992
 6741WAT     H127684   3.432   0.834   4.027  0.1785 -0.9461  1.1739
 6741WAT     H227685   3.437   0.958   4.087 -0.2021  0.5562 -1.7172
 6741WAT    EPW27686   3.472   0.893   4.060 -0.0952 -0.4327  0.6237
 6742WAT      O27687   2.153   2.172   4.167 -0.7776 -0.1405 -0.2260
 6742WAT     H127688   2.153   2.251   4.129  0.2008 -0.5926 -1.2176
 6742WAT     H227689   2.077   2.138   4.143 -0.4174 -0.1963 -1.3522
 6742WAT    EPW27690   2.142   2.179   4.157 -0.5799 -0.2155 -0.5388
 6743WAT      O27691   0.279   1.522   0.062 -0.2193 -0.0660 -0.0664
 6743WAT     H127692   0.232   1.450   0.077  1.2996 -0.9346  0.7092
 6743WAT     H227693   0.329   1.500  -0.007  1.0908 -0.2077  0.9005
 6743WAT    EPW27694   0.279   1.508   0.054  0.1986 -0.2152  0.1910
 6744WAT      O27695   6.951   6.175   1.182  0.2877  0.3769  0.0555
 6744WAT     H127696   7.010   6.215   1.232 -0.0222  1.3952 -0.3725
 6744WAT     H227697   6.960   6.213   1.105  0.2950 -0.7140 -0.5094
 6744WAT    EPW27698   6.961   6.186   1.178  0.2430  0.3662 -0.0912
 6745WAT      O27699   2.164   4.408   4.913 -0.4744 -0.1429  0.2402
 6745WAT     H127700   2.202   4.485   4.897 -1.3206  0.1428 -0.4371
 6745WAT     H227701   2.095   4.428   4.962 -0.7035 -0.4634  0.0576
 6745WAT    EPW27702   2.160   4.422   4.918 -0.6333 -0.1481  0.1132
 6746WAT      O27703   4.907   6.864   7.100  0.1265 -0.5587 -0.1035
 6746WAT     H127704   4.963   6.799   7.114 -0.1687 -0.6881  0.5118
 6746WAT     H227705   4.836   6.823   7.070  0.8002 -0.2765 -2.2577
 6746WAT    EPW27706   4.905   6.848   7.098  0.1824 -0.5361 -0.3308
 6747WAT      O27707   5.004   2.444   6.663 -0.0207  0.3165 -0.2023
 6747WAT     H127708   5.081   2.487   6.666 -0.7316  1.5825  1.2105
 6747WAT     H227709   4.946   2.508   6.655 -1.1860 -0.2091  2.7640
 6747WAT    EPW27710   5.007   2.460   6.662 -0.2978  0.4259  0.4446
 6748WAT      O27711   3.884   2.285   5.015 -0.2769 -0.1022  0.4094
 6748WAT     H127712   3.961   2.268   5.052 -0.9190 -1.0820  1.3542
 6748WAT     H227713   3.863   2.210   4.976 -0.1598  0.5614 -0.9908
 6748WAT    EPW27714   3.892   2.271   5.015 -0.3544 -0.1489  0.3421
 6749WAT      O27715   0.658   5.715   4.254 -0.6902 -0.5224 -0.2213
 6749WAT     H127716   0.615   5.669   4.194  0.4398  0.9971 -2.3361
 6749WAT     H227717   0.639   5.798   4.234  1.6466  0.1226 -0.0945
 6749WAT    EPW27718   0.649   5.721   4.242 -0.1781 -0.2027 -0.5150
 6750WAT      O27719   2.806   3.515   6.155  0.2552 -0.0299  0.1376
 6750WAT     H127720   2.789   3.580   6.099 -1.7805 -0.1839  0.4897
 6750WAT     H227721   2.863   3.466   6.112  1.0437  1.4140 -0.5605
 6750WAT    EPW27722   2.812   3.518   6.140  0.0710  0.1606  0.0865
 6751WAT      O27723   1.632   7.040   1.296 -0.5593  0.1259 -0.2434
 6751WAT     H127724   1.556   7.010   1.264  0.2164 -2.1483 -0.1504
 6751WAT     H227725   1.624   7.027   1.382  0.2638 -1.0504 -0.3220
 6751WAT    EPW27726   1.620   7.033   1.304 -0.3231 -0.3839 -0.2413
 6752WAT      O27727   6.300   1.105   3.276  0.2287 -0.4044 -0.1433
 6752WAT     H127728   6.336   1.073   3.204  1.5522  0.8599 -0.1048
 6752WAT     H227729   6.215   1.088   3.267  0.4862 -1.0413 -1.5658
 6752WAT    EPW27730   6.293   1.098   3.264  0.4623 -0.3117 -0.3477
 6753WAT      O27731   3.461   1.486   2.535 -0.3844 -0.2789 -0.0338
 6753WAT     H127732   3.418   1.486   2.611 -2.0448 -1.0191 -0.9252
 6753WAT     H227733   3.491   1.568   2.530 -1.7122  0.3053  0.6545
 6753WAT    EPW27734   3.459   1.498   2.546 -0.8258 -0.3019 -0.0638
 6754WAT      O27735   4.611   5.832   6.775  0.2768  0.0738  0.0815
 6754WAT     H127736   4.581   5.752   6.757  0.4023  0.3549 -1.4261
 6754WAT     H227737   4.538   5.877   6.793  0.2301 -0.4315  1.3216
 6754WAT    EPW27738   4.596   5.827   6.775  0.2884  0.0407  0.0420
 6755WAT      O27739   2.445   2.204   5.312  0.0771 -0.0472 -0.3124
 6755WAT     H127740   2.452   2.287   5.286 -0.4455  0.4742  1.1003
 6755WAT     H227741   2.485   2.159   5.248  1.8947  1.4061 -0.2831
 6755WAT    EPW27742   2.452   2.210   5.298  0.2684  0.2445 -0.0994
 6756WAT      O27743   2.133   6.608   2.332  0.1827 -0.0049 -0.0905
 6756WAT     H127744   2.088   6.683   2.333 -1.5270 -0.9843  0.7498
 6756WAT     H227745   2.111   6.570   2.407 -1.1428 -2.5349 -1.6019
 6756WAT    EPW27746   2.123   6.614   2.343 -0.2657 -0.5233 -0.1896
 6757WAT      O27747   2.765   6.841   2.362 -0.1699  0.3451  0.2688
 6757WAT     H127748   2.790   6.864   2.282 -3.7328  1.5005 -0.7157
 6757WAT     H227749   2.764   6.754   2.360  0.0270  0.3596 -0.8697
 6757WAT    EPW27750   2.769   6.832   2.350 -0.6671  0.5179 -0.0448
 6758WAT      O27751   0.592   5.958   0.234  0.1763 -0.7728 -0.0776
 6758WAT     H127752   0.507   5.937   0.238 -0.5957  2.0464  0.9453
 6758WAT     H227753   0.620   5.946   0.316  1.5325 -3.9801 -0.8645
 6758WAT    EPW27754   0.584   5.953   0.247  0.2626 -0.8301 -0.0428
 6759WAT      O27755   5.247   4.777   6.304 -0.6379 -0.2229 -0.0822
 6759WAT     H127756   5.172   4.806   6.270  0.6429  1.4101 -1.7176
 6759WAT     H227757   5.298   4.765   6.235  0.4119 -2.1015  0.9181
 6759WAT    EPW27758   5.244   4.779   6.289 -0.2937 -0.2592 -0.1760
 6760WAT      O27759   6.246   5.832   2.299  0.3261 -0.1106  0.4847
 6760WAT     H127760   6.160   5.822   2.312  0.1068  0.6930 -0.2753
 6760WAT     H227761   6.268   5.762   2.252  0.3918 -1.0677  1.8812
 6760WAT    EPW27762   6.237   5.820   2.294  0.3034 -0.1333  0.5787
 6761WAT      O27763   3.915   0.837   2.563 -0.1391  0.2633  0.2744
 6761WAT     H127764   3.997   0.809   2.572 -0.1119  0.0262 -0.5830
 6761WAT     H227765   3.867   0.768   2.585 -0.0866  0.0448 -0.2664
 6761WAT    EPW27766   3.920   0.823   2.567 -0.1273  0.1960  0.0679
 6762WAT      O27767   5.426   5.531   6.575 -0.1173  0.6469 -0.2449
 6762WAT     H127768   5.486   5.580   6.535  0.7091  0.2398  0.4634
 6762WAT     H227769   5.424   5.564   6.656  0.1199 -0.1817  0.1134
 6762WAT    EPW27770   5.435   5.543   6.581  0.0398  0.4643 -0.0873
 6763WAT      O27771   4.932   6.226   6.283 -0.1322  0.2107  0.1190
 6763WAT     H127772   4.946   6.311   6.268  0.0338  0.9119  3.4070
 6763WAT     H227773   5.002   6.187   6.249  0.4683  1.5562 -0.2530
 6763WAT    EPW27774   4.944   6.233   6.276 -0.0190  0.5131  0.5498
 6764WAT      O27775   3.349   6.209   3.790 -0.0350  0.4367  0.3338
 6764WAT     H127776   3.376   6.143   3.841 -0.0861 -0.5145 -0.8204
 6764WAT     H227777   3.298   6.257   3.843  0.9028  0.1893  1.5065
 6764WAT    EPW27778   3.346   6.206   3.806  0.0960  0.2596  0.3365
 6765WAT      O27779   4.761   5.111   0.375 -0.0484 -0.2692  0.1969
 6765WAT     H127780   4.712   5.170   0.417 -1.3188 -0.4367 -0.9946
 6765WAT     H227781   4.783   5.054   0.437 -0.0107  0.6584  1.0679
 6765WAT    EPW27782   4.757   5.112   0.390 -0.2305 -0.1570  0.1495
 6766WAT      O27783   0.537   3.086   7.297 -0.2132  0.4250  0.2979
 6766WAT     H127784   0.532   3.083   7.210  0.7967 -0.3999  0.2479
 6766WAT     H227785   0.617   3.056   7.314 -0.1235  1.2477  1.4871
 6766WAT    EPW27786   0.548   3.081   7.286 -0.0507  0.4247  0.4662
 6767WAT      O27787   6.706   5.295   6.880 -0.2417  0.4851  0.1758
 6767WAT     H127788   6.736   5.279   6.961  1.1688  1.5405 -0.0808
 6767WAT     H227789   6.699   5.216   6.844 -3.3552 -0.2456  2.0811
 6767WAT    EPW27790   6.709   5.281   6.887 -0.4933  0.5331  0.4193
 6768WAT      O27791   0.269   5.648   2.426  0.4762  0.1572 -0.1784
 6768WAT     H127792   0.187   5.678   2.429  0.4194 -0.0298  1.2141
 6768WAT     H227793   0.317   5.720   2.414  0.1867  0.5151  0.6703
 6768WAT    EPW27794   0.264   5.663   2.425  0.4251  0.1825  0.1527
 6769WAT      O27795   6.022   4.842   4.960  0.2320 -0.2336  0.2328
 6769WAT     H127796   6.012   4.812   4.878 -0.9214  0.4479  0.0966
 6769WAT     H227797   5.947   4.819   4.999 -0.2147  1.4188  0.4379
 6769WAT    EPW27798   6.009   4.834   4.954 -0.0044  0.1112  0.2430
 6770WAT      O27799   6.012   4.691   6.497 -0.1702 -0.0626  0.3426
 6770WAT     H127800   6.083   4.681   6.546  0.3476  0.1296 -0.3539
 6770WAT     H227801   6.043   4.718   6.420 -1.0436  0.7154  0.2388
 6770WAT    EPW27802   6.027   4.694   6.493 -0.2227  0.0807  0.2244
 6771WAT      O27803   4.525   2.500   1.001 -0.3118  0.7907 -0.0190
 6771WAT     H127804   4.468   2.465   1.057 -0.2372 -0.3299 -0.6261
 6771WAT     H227805   4.474   2.531   0.938 -0.3125  0.7447 -0.0410
 6771WAT    EPW27806   4.509   2.500   1.000 -0.3009  0.6184 -0.1119
 6772WAT      O27807   0.746   4.416   4.035  0.1315  0.0035 -0.1960
 6772WAT     H127808   0.677   4.455   3.997 -0.5505 -0.9964 -0.0152
 6772WAT     H227809   0.799   4.399   3.968 -0.9399 -1.5017 -0.7085
 6772WAT    EPW27810   0.744   4.420   4.019 -0.1275 -0.3666 -0.2450
 6773WAT      O27811   0.304   6.860   6.663  0.9579  0.1603  0.4336
 6773WAT     H127812   0.266   6.933   6.692 -0.0475 -0.6352  1.2083
 6773WAT     H227813   0.388   6.882   6.657  0.7482  1.2498  1.0931
 6773WAT    EPW27814   0.311   6.874   6.667  0.7784  0.2037  0.6454
 6774WAT      O27815   2.280   6.052   4.406 -0.2658  0.0178  0.1489
 6774WAT     H127816   2.254   5.977   4.442 -1.0247 -0.0008 -0.4138
 6774WAT     H227817   2.365   6.056   4.425 -0.3250 -0.7432  0.5942
 6774WAT    EPW27818   2.289   6.042   4.414 -0.3867 -0.0973  0.1316
 6775WAT      O27819   1.289   3.050   5.887 -0.2296 -0.0149 -0.9542
 6775WAT     H127820   1.207   3.046   5.916  0.0935 -1.0771 -0.1236
 6775WAT     H227821   1.287   3.115   5.828 -1.7066 -0.1761 -1.1162
 6775WAT    EPW27822   1.276   3.059   5.883 -0.4001 -0.1956 -0.8555
 6776WAT      O27823   1.535   1.286   2.585 -0.0882 -0.5457 -0.5127
 6776WAT     H127824   1.468   1.230   2.582 -0.4759 -0.3511  2.4293
 6776WAT     H227825   1.498   1.363   2.599  0.6310  0.0251 -1.6002
 6776WAT    EPW27826   1.520   1.289   2.586 -0.0392 -0.4326 -0.2388
 6777WAT      O27827   4.744   1.615   5.164 -0.1013 -0.2443  0.1371
 6777WAT     H127828   4.671   1.647   5.200 -0.7981 -1.2895 -0.3133
 6777WAT     H227829   4.728   1.618   5.078  0.6303  0.0704  0.0024
 6777WAT    EPW27830   4.731   1.621   5.157 -0.0961 -0.3522  0.0507
 6778WAT      O27831   2.463   3.465   1.915 -0.4139 -0.1755  0.1354
 6778WAT     H127832   2.509   3.487   1.986 -1.0358 -0.5130  0.6546
 6778WAT     H227833   2.491   3.384   1.898 -1.3953 -0.7150  0.9610
 6778WAT    EPW27834   2.474   3.456   1.923 -0.6507 -0.3050  0.3341
 6779WAT      O27835   4.189   4.922   0.699 -0.1380  0.0499 -0.2340
 6779WAT     H127836   4.155   4.906   0.621 -0.8757  0.0734  0.0816
 6779WAT     H227837   4.272   4.943   0.681 -0.4091  0.4421 -1.0380
 6779WAT    EPW27838   4.196   4.922   0.685 -0.2870  0.1113 -0.3061
 6780WAT      O27839   6.623   0.825   6.373  0.5255  0.1027 -0.1040
 6780WAT     H127840   6.542   0.793   6.372  0.3647  0.4409  0.9672
 6780WAT     H227841   6.648   0.821   6.289 -0.4417 -0.3859 -0.3791
 6780WAT    EPW27842   6.615   0.820   6.360  0.3589  0.0805  0.0136
 6781WAT      O27843   4.480   5.281   2.885  0.0449  0.2509 -0.2950
 6781WAT     H127844   4.486   5.324   2.809  1.3349  0.8364  0.1200
 6781WAT     H227845   4.547   5.226   2.883 -0.1475 -0.0083  0.2581
 6781WAT    EPW27846   4.491   5.279   2.873  0.2070  0.2991 -0.1520
 6782WAT      O27847   1.665   2.022   2.440 -0.2402 -0.1248  0.5593
 6782WAT     H127848   1.654   2.004   2.525 -1.9454  1.1549  0.6500
 6782WAT     H227849   1.745   2.056   2.437 -0.3960  0.4245  1.7881
 6782WAT    EPW27850   1.675   2.024   2.453 -0.5151  0.1454  0.7542
 6783WAT      O27851   0.053   6.041   1.567 -0.3627  0.4565 -0.7016
 6783WAT     H127852   0.057   6.127   1.555 -0.1774  0.6003  0.2458
 6783WAT     H227853  -0.029   6.027   1.592 -0.1761  0.4909 -0.0397
 6783WAT    EPW27854   0.042   6.052   1.569 -0.3078  0.4829 -0.4639
 6784WAT      O27855   1.616   5.611   6.738 -0.1467 -0.4163  0.6251
 6784WAT     H127856   1.565   5.657   6.792 -0.3626  0.6128 -0.3906
 6784WAT     H227857   1.582   5.628   6.659  0.5801 -1.2958  0.0982
 6784WAT    EPW27858   1.603   5.620   6.734 -0.0712 -0.3942  0.3972
 6785WAT      O27859   1.925   4.655   5.725  0.1152 -0.2520  0.2514
 6785WAT     H127860   1.956   4.573   5.717 -1.2193 -0.6841 -0.8797
 6785WAT     H227861   1.846   4.643   5.760  0.1997  0.6388  0.7747
 6785WAT    EPW27862   1.918   4.641   5.729 -0.0694 -0.1842  0.1616
 6786WAT      O27863   4.772   0.700   0.223 -0.3920 -0.3302  0.0337
 6786WAT     H127864   4.809   0.632   0.262  0.7098 -0.1525 -0.6684
 6786WAT     H227865   4.798   0.694   0.140  0.9642  1.7151  0.2250
 6786WAT    EPW27866   4.781   0.689   0.216 -0.0289 -0.0018 -0.0417
 6787WAT      O27867   2.533   4.931   1.672  0.1781  0.0414 -0.0433
 6787WAT     H127868   2.455   4.909   1.703  0.4625  1.0387  1.5018
 6787WAT     H227869   2.586   4.924   1.742  2.0446 -3.0242 -1.5405
 6787WAT    EPW27870   2.529   4.927   1.687  0.4958 -0.2641 -0.0362
 6788WAT      O27871   1.405   5.444   5.404  0.1530 -0.5113  0.0912
 6788WAT     H127872   1.480   5.441   5.448  0.0668 -3.3783  0.2211
 6788WAT     H227873   1.429   5.468   5.324  1.0776 -0.5179  0.3562
 6788WAT    EPW27874   1.419   5.447   5.399  0.2769 -0.9358  0.1495
 6789WAT      O27875   4.588   6.771   0.397  0.0597 -0.2963  0.2895
 6789WAT     H127876   4.618   6.703   0.351  2.0578  1.8285 -1.7495
 6789WAT     H227877   4.659   6.801   0.438  0.1799  2.8396 -1.9528
 6789WAT    EPW27878   4.603   6.765   0.396  0.3726  0.4808 -0.3429
 6790WAT      O27879   2.073   2.670   5.949 -0.7159  0.1651  0.3771
 6790WAT     H127880   1.990   2.693   5.961 -0.1316  1.6082  2.2425
 6790WAT     H227881   2.105   2.734   5.899 -0.6498 -0.2542 -0.1285
 6790WAT    EPW27882   2.066   2.683   5.943 -0.6199  0.3164  0.5779
 6791WAT      O27883   1.129   0.129   0.856  0.6760 -0.0158  0.1982
 6791WAT     H127884   1.159   0.059   0.813  1.3921  1.0056 -1.0485
 6791WAT     H227885   1.179   0.131   0.928  2.4874  0.6310 -0.9933
 6791WAT    EPW27886   1.141   0.119   0.861  1.0494  0.2307 -0.1620
 6792WAT      O27887   0.655   3.027   2.092 -0.3278  0.3387  0.2258
 6792WAT     H127888   0.700   3.047   2.164  0.0362  0.6780 -0.0874
 6792WAT     H227889   0.596   2.970   2.120  1.3828 -1.4820  0.3687
 6792WAT    EPW27890   0.653   3.021   2.107 -0.0213  0.1199  0.2007
 6793WAT      O27891   3.081   5.797   7.011  0.1291 -0.1478 -0.1249
 6793WAT     H127892   3.072   5.792   6.925  1.1390 -1.5644 -0.1798
 6793WAT     H227893   3.162   5.825   7.022 -0.6877  2.2161  0.3982
 6793WAT    EPW27894   3.091   5.800   7.000  0.1576 -0.0079 -0.0557
 6794WAT      O27895   0.778   3.734   2.652  0.1520 -0.3385 -0.3723
 6794WAT     H127896   0.710   3.687   2.680  0.7387  0.1155  1.9819
 6794WAT     H227897   0.784   3.799   2.711  2.4060 -0.1726 -0.7109
 6794WAT    EPW27898   0.768   3.737   2.665  0.5716 -0.2469 -0.0746
 6795WAT      O27899   0.898   5.832   1.799 -0.3706  0.1116 -0.0926
 6795WAT     H127900   0.860   5.797   1.870  0.9771  0.0853  0.6497
 6795WAT     H227901   0.939   5.903   1.830  0.4870 -0.0600 -0.7817
 6795WAT    EPW27902   0.899   5.837   1.814 -0.0448  0.0823 -0.0848
 6796WAT      O27903   7.060   4.936   2.114 -0.2854  0.7817  0.3173
 6796WAT     H127904   6.990   4.932   2.062  0.2721  1.5302 -0.5195
 6796WAT     H227905   7.051   5.012   2.155 -0.8086  0.1205  1.4810
 6796WAT    EPW27906   7.048   4.947   2.113 -0.2803  0.7946  0.3656
 6797WAT      O27907   1.811   6.798   0.890  0.4337  0.7533 -0.1891
 6797WAT     H127908   1.782   6.795   0.972  0.0176 -0.6684 -0.3598
 6797WAT     H227909   1.888   6.837   0.897  0.4367  0.5880  0.8941
 6797WAT    EPW27910   1.818   6.803   0.903  0.3727  0.5189 -0.0543
 6798WAT      O27911   5.665   6.215   7.301 -0.2378 -0.1434 -0.1796
 6798WAT     H127912   5.689   6.291   7.267  0.6884 -0.6754 -0.7575
 6798WAT     H227913   5.726   6.200   7.362 -0.2327 -0.5624 -0.2840
 6798WAT    EPW27914   5.678   6.224   7.305 -0.1002 -0.2839 -0.2804
 6799WAT      O27915   6.627   4.865   1.775 -0.0376  0.1638 -0.3393
 6799WAT     H127916   6.699   4.855   1.823  0.2529  0.2617 -0.7473
 6799WAT     H227917   6.658   4.870   1.693 -0.6086 -1.6097 -0.7177
 6799WAT    EPW27918   6.643   4.864   1.770 -0.0790 -0.0837 -0.4555
 6800WAT      O27919   4.305   5.813   4.319 -0.5308  0.4482  0.3178
 6800WAT     H127920   4.290   5.738   4.277 -0.3862 -0.2687  1.5270
 6800WAT     H227921   4.236   5.820   4.372 -0.3691  0.9998  0.4572
 6800WAT    EPW27922   4.292   5.803   4.320 -0.4855  0.4238  0.5170
 6801WAT      O27923   7.098   5.644   5.757  0.2240 -0.3441 -0.1082
 6801WAT     H127924   7.015   5.668   5.764  0.4160  0.3722 -0.2262
 6801WAT     H227925   7.133   5.705   5.705  0.8168 -0.6556 -0.0885
 6801WAT    EPW27926   7.091   5.656   5.750  0.3399 -0.2843 -0.1227
 6802WAT      O27927   6.300   3.438   7.070  1.0149  0.2086 -0.5617
 6802WAT     H127928   6.264   3.411   7.144 -0.8244 -1.1492 -1.8580
 6802WAT     H227929   6.367   3.384   7.059  1.9104  1.0460  0.5498
 6802WAT    EPW27930   6.305   3.426   7.079  0.8755  0.1317 -0.5890
 6803WAT      O27931   4.724   5.477   7.152  0.1301  0.7474 -0.2276
 6803WAT     H127932   4.734   5.537   7.215 -0.3460  1.5167 -0.8554
 6803WAT     H227933   4.733   5.401   7.193 -0.5418  1.2260  0.8348
 6803WAT    EPW27934   4.727   5.475   7.167 -0.0395  0.9318 -0.1634
 6804WAT      O27935   6.776   5.770   6.464  0.2573  0.0183  0.0534
 6804WAT     H127936   6.811   5.707   6.513 -1.9641 -0.9437  0.5711
 6804WAT     H227937   6.829   5.838   6.475  2.1799 -1.4637  0.3000
 6804WAT    EPW27938   6.789   5.771   6.473  0.2131 -0.3427  0.1663
 6805WAT      O27939   6.233   6.748   5.129 -0.0766  0.1818  0.2431
 6805WAT     H127940   6.223   6.762   5.215  0.6611  0.3636  0.3060
 6805WAT     H227941   6.177   6.684   5.112  0.5424 -0.6116  1.0812
 6805WAT    EPW27942   6.223   6.741   5.139  0.1238  0.0914  0.3762
 6806WAT      O27943   0.890   3.131   3.056  0.0969 -0.5588  0.7277
 6806WAT     H127944   0.896   3.072   2.993 -1.0187 -0.4239  0.4837
 6806WAT     H227945   0.814   3.113   3.094 -0.3612  0.8452  0.5156
 6806WAT    EPW27946   0.880   3.119   3.052 -0.1356 -0.3315  0.6603
 6807WAT      O27947   6.609   6.852   0.026 -0.1952  0.5947 -0.2336
 6807WAT     H127948   6.617   6.875  -0.058 -1.1475  0.0723 -0.4816
 6807WAT     H227949   6.553   6.786   0.024 -1.1955  1.3647  0.9371
 6807WAT    EPW27950   6.602   6.846   0.013 -0.4836  0.6313 -0.0973
 6808WAT      O27951   0.372   2.311   1.791 -0.2348 -0.4003 -0.0259
 6808WAT     H127952   0.388   2.396   1.779 -2.8235  0.0970 -0.4464
 6808WAT     H227953   0.372   2.279   1.709 -2.2451 -0.1653 -0.1476
 6808WAT    EPW27954   0.375   2.319   1.777 -0.9142 -0.2921 -0.1060
 6809WAT      O27955   4.793   3.203   4.444 -0.3190 -0.7445 -0.2607
 6809WAT     H127956   4.762   3.217   4.525  1.2698  0.5591  0.1671
 6809WAT     H227957   4.763   3.271   4.399 -0.6280 -1.1072 -0.6035
 6809WAT    EPW27958   4.784   3.215   4.450 -0.1299 -0.6055 -0.2482
 6810WAT      O27959   6.448   1.977   1.151  0.1201  0.1361  0.2942
 6810WAT     H127960   6.417   1.896   1.149 -1.2621  0.6039  0.9765
 6810WAT     H227961   6.457   1.998   1.067 -1.8068  0.0606  0.0075
 6810WAT    EPW27962   6.445   1.968   1.138 -0.3687  0.1941  0.3526
 6811WAT      O27963   2.824   4.843   7.285 -0.1494 -0.3231 -0.6063
 6811WAT     H127964   2.899   4.842   7.240  1.3705  3.9780  1.2092
 6811WAT     H227965   2.847   4.816   7.365 -1.2125 -1.3916 -0.6283
 6811WAT    EPW27966   2.838   4.839   7.290 -0.0820  0.1544 -0.3414
 6812WAT      O27967   1.071   2.049   2.851 -0.2354 -0.2947 -0.1851
 6812WAT     H127968   1.042   2.130   2.862 -0.6500 -0.5389  0.6131
 6812WAT     H227969   0.998   2.002   2.846 -0.0197 -0.8482  1.2858
 6812WAT    EPW27970   1.056   2.054   2.852 -0.2648 -0.4125  0.1501
 6813WAT      O27971   3.296   6.952   2.678 -0.0547 -0.0063 -0.7532
 6813WAT     H127972   3.338   6.881   2.707 -0.2660  0.2210  0.1523
 6813WAT     H227973   3.358   6.996   2.634 -0.2497 -1.3634 -2.4677
 6813WAT    EPW27974   3.312   6.948   2.676 -0.1147 -0.1732 -0.8727
 6814WAT      O27975   1.016   1.970   0.192  0.2848 -0.1755 -0.5605
 6814WAT     H127976   1.080   1.910   0.196  1.0395  0.7061  1.4279
 6814WAT     H227977   0.954   1.938   0.244  0.2853  0.2966 -0.2631
 6814WAT    EPW27978   1.016   1.956   0.200  0.3963  0.0244 -0.2228
 6815WAT      O27979   5.621   1.615   1.600 -0.0729  0.4113 -0.7048
 6815WAT     H127980   5.562   1.680   1.595  0.1235  0.5759 -0.9366
 6815WAT     H227981   5.689   1.647   1.556  0.4888  0.5393  0.2441
 6815WAT    EPW27982   5.622   1.630   1.593  0.0391  0.4545 -0.5988
 6816WAT      O27983   1.142   2.869   3.613  0.4170  0.0255  0.6572
 6816WAT     H127984   1.065   2.908   3.602 -0.0191 -0.3049  2.3216
 6816WAT     H227985   1.132   2.823   3.687  1.2064 -2.5410 -0.6954
 6816WAT    EPW27986   1.129   2.868   3.622  0.4692 -0.4024  0.7033
 6817WAT      O27987   6.638   0.146   6.427 -0.0637 -0.7856 -0.5071
 6817WAT     H127988   6.660   0.067   6.397  0.2927 -0.5630 -0.8404
 6817WAT     H227989   6.655   0.141   6.512 -0.6223 -1.2656 -0.4129
 6817WAT    EPW27990   6.644   0.134   6.435 -0.0935 -0.8236 -0.5424
 6818WAT      O27991   6.161   5.293   2.662 -0.3677 -0.5276  0.1096
 6818WAT     H127992   6.093   5.242   2.680 -0.1668 -0.5353  0.8728
 6818WAT     H227993   6.130   5.349   2.602 -0.6409 -1.4027 -0.5785
 6818WAT    EPW27994   6.146   5.294   2.656 -0.3784 -0.6580  0.1207
 6819WAT      O27995   6.300   4.012   0.011 -0.1828 -0.5461 -0.2592
 6819WAT     H127996   6.330   3.977  -0.063 -0.9003 -0.5965 -0.5433
 6819WAT     H227997   6.353   3.980   0.072 -0.4166 -1.6379 -0.5952
 6819WAT    EPW27998   6.312   4.002   0.009 -0.3234 -0.7148 -0.3508
 6820WAT      O27999   6.895   5.545   5.428 -0.4960  0.8610  0.3533
 6820WAT     H128000   6.944   5.609   5.461  2.7802 -1.5653  0.7230
 6820WAT     H228001   6.930   5.532   5.349  1.0260 -2.2863  1.4048
 6820WAT    EPW28002   6.908   5.553   5.421  0.2128  0.0377  0.5632
 6821WAT      O28003   2.625   3.244   7.272 -0.3449  0.3969  0.2752
 6821WAT     H128004   2.707   3.273   7.273 -0.7681  1.8405 -1.3439
 6821WAT     H228005   2.634   3.159   7.255  0.8366  0.9595 -2.5155
 6821WAT    EPW28006   2.639   3.236   7.270 -0.2329  0.6933 -0.3762
 6822WAT      O28007   3.284   6.756   0.401 -0.0864  0.0156 -0.1534
 6822WAT     H128008   3.263   6.817   0.460  2.4229 -0.2050  1.1124
 6822WAT     H228009   3.300   6.685   0.449  3.3583  0.1760 -0.7690
 6822WAT    EPW28010   3.283   6.755   0.416  0.7931  0.0067 -0.0574
 6823WAT      O28011   5.177   6.410   2.163 -0.2788  0.0384  0.2928
 6823WAT     H128012   5.220   6.458   2.105  1.0540 -0.3654  0.9163
 6823WAT     H228013   5.132   6.354   2.113 -0.8918  1.1079 -0.3976
 6823WAT    EPW28014   5.176   6.408   2.147 -0.1725  0.1367  0.2829
 6824WAT      O28015   7.005   3.794   0.925  0.1923 -0.5855  0.2771
 6824WAT     H128016   7.002   3.707   0.920  0.9077 -0.5808 -0.8069
 6824WAT     H228017   7.028   3.810   1.007 -2.4181 -1.3031  1.2154
 6824WAT    EPW28018   7.008   3.784   0.936 -0.0876 -0.6908  0.2556
 6825WAT      O28019   0.730   5.084   0.066  0.2290 -0.1372  0.9033
 6825WAT     H128020   0.797   5.109   0.017 -0.6082  0.8270  0.2134
 6825WAT     H228021   0.709   5.006   0.034 -2.0027  1.5371 -2.2222
 6825WAT    EPW28022   0.737   5.076   0.054 -0.2244  0.2525  0.3397
 6826WAT      O28023   0.506   3.759   3.130 -0.1940 -0.3170 -0.4759
 6826WAT     H128024   0.558   3.701   3.093  0.6096  0.3973 -0.4923
 6826WAT     H228025   0.502   3.733   3.214 -0.2547 -0.6807 -0.5922
 6826WAT    EPW28026   0.513   3.747   3.137 -0.0843 -0.2652 -0.4955
 6827WAT      O28027   6.755   3.197   2.891 -0.0854  0.2382  0.4472
 6827WAT     H128028   6.748   3.251   2.959 -0.5951  0.3152  0.3406
 6827WAT     H228029   6.712   3.239   2.827 -0.9893 -0.5363  0.5213
 6827WAT    EPW28030   6.747   3.211   2.892 -0.2942  0.1352  0.4424
 6828WAT      O28031   6.790   6.628   0.668  0.0776  0.6720 -0.3119
 6828WAT     H128032   6.851   6.646   0.609 -1.0656  0.2269 -1.6625
 6828WAT     H228033   6.834   6.629   0.744  1.5147  1.4949 -1.1204
 6828WAT    EPW28034   6.805   6.631   0.671  0.1210  0.7278 -0.6308
 6829WAT      O28035   5.049   3.597   5.704  0.0866  0.2856  0.3218
 6829WAT     H128036   5.094   3.635   5.768 -2.0089  1.4521  1.2157
 6829WAT     H228037   5.021   3.664   5.656  1.0897 -0.5382 -1.5026
 6829WAT    EPW28038   5.052   3.612   5.706 -0.0748  0.3362  0.1843
 6830WAT      O28039   3.741   3.446   1.442  0.2086  0.0802 -0.1882
 6830WAT     H128040   3.789   3.378   1.470 -0.0986 -0.3626 -0.7132
 6830WAT     H228041   3.747   3.504   1.507 -0.4725 -0.9083  0.7844
 6830WAT    EPW28042   3.749   3.445   1.456  0.0626 -0.1313 -0.1221
 6831WAT      O28043   6.564   5.463   6.165 -0.2868  0.4307 -0.0766
 6831WAT     H128044   6.547   5.446   6.249  0.6329 -0.0436  0.0319
 6831WAT     H228045   6.625   5.404   6.144 -1.4060 -0.2812 -1.4491
 6831WAT    EPW28046   6.571   5.452   6.175 -0.3163  0.2554 -0.2633
 6832WAT      O28047   4.281   3.064   3.102 -0.2470 -0.0095  0.1020
 6832WAT     H128048   4.289   3.150   3.092 -0.0354 -0.1818 -1.6336
 6832WAT     H228049   4.345   3.044   3.158 -1.3393  1.1252  1.8609
 6832WAT    EPW28050   4.292   3.074   3.109 -0.3771  0.1326  0.1054
 6833WAT      O28051   6.049   5.343   3.376  0.9845 -0.4934  0.4094
 6833WAT     H128052   5.991   5.305   3.430  0.4815 -0.1422  0.1149
 6833WAT     H228053   6.059   5.284   3.313  0.0264 -0.0575 -0.1686
 6833WAT    EPW28054   6.042   5.328   3.375  0.7686 -0.3772  0.2805
 6834WAT      O28055   3.241   3.075   3.517  0.0685  0.6498  0.2678
 6834WAT     H128056   3.320   3.052   3.548  0.1815  0.5677 -0.0701
 6834WAT     H228057   3.235   3.159   3.536  0.2716  0.6735  0.2375
 6834WAT    EPW28058   3.252   3.084   3.524  0.1152  0.6412  0.2134
 6835WAT      O28059   6.468   6.080   3.804  0.2720  0.1764  0.3420
 6835WAT     H128060   6.531   6.139   3.817 -0.2961  0.9281 -0.2311
 6835WAT     H228061   6.412   6.120   3.750 -0.5934 -0.5456  0.6605
 6835WAT    EPW28062   6.469   6.095   3.798  0.0602  0.1808  0.3044
 6836WAT      O28063   4.944   0.272   6.971  0.3644 -0.2603 -0.2764
 6836WAT     H128064   4.872   0.259   6.923  0.7024 -0.1272 -0.8185
 6836WAT     H228065   4.995   0.320   6.920  0.8313 -0.3237  0.1211
 6836WAT    EPW28066   4.941   0.277   6.956  0.4833 -0.2500 -0.2977
 6837WAT      O28067   1.577   5.590   2.918  0.0488 -0.6073  0.5871
 6837WAT     H128068   1.586   5.675   2.933  0.2735 -0.6723  0.8174
 6837WAT     H228069   1.585   5.553   2.997  1.0900 -0.9314  0.3420
 6837WAT    EPW28070   1.579   5.597   2.932  0.2358 -0.6648  0.5849
 6838WAT      O28071   0.109   3.185   4.338  0.0342 -0.0754 -0.1123
 6838WAT     H128072   0.148   3.198   4.415  0.1184 -0.3062 -0.1157
 6838WAT     H228073   0.028   3.162   4.359  0.7839 -2.9209  0.0200
 6838WAT    EPW28074   0.103   3.183   4.352  0.1573 -0.5298 -0.0932
 6839WAT      O28075   3.896   6.339   0.365 -0.1844  0.3937 -0.3205
 6839WAT     H128076   3.868   6.321   0.284 -0.7623 -0.9901  0.1598
 6839WAT     H228077   3.930   6.263   0.391 -0.9266  0.5264  1.1046
 6839WAT    EPW28078   3.897   6.325   0.357 -0.3794  0.2089 -0.0390
 6840WAT      O28079   6.312   2.630   3.891  0.4536 -0.1630  0.8470
 6840WAT     H128080   6.234   2.603   3.919  0.6401 -1.2611  0.3560
 6840WAT     H228081   6.304   2.717   3.889 -0.2183 -0.1543  2.3407
 6840WAT    EPW28082   6.299   2.639   3.895  0.3819 -0.3239  0.9951
 6841WAT      O28083   5.211   1.756   4.250  0.4404 -0.0707 -0.2171
 6841WAT     H128084   5.211   1.714   4.326 -2.4419  1.4496  0.7427
 6841WAT     H228085   5.164   1.703   4.198  0.2011  0.1134 -0.1862
 6841WAT    EPW28086   5.204   1.742   4.253 -0.0207  0.1810 -0.0708
 6842WAT      O28087   3.012   4.016   4.507 -0.8483  0.1483 -0.9954
 6842WAT     H128088   2.967   4.089   4.492 -0.3425  1.1436  1.6714
 6842WAT     H228089   2.951   3.953   4.509 -2.0525  1.2509  1.1605
 6842WAT    EPW28090   2.996   4.017   4.505 -0.9515  0.4582 -0.2830
 6843WAT      O28091   0.259   1.018   6.818  0.0499 -0.1091  0.2022
 6843WAT     H128092   0.201   1.080   6.838  0.2636 -0.4527  2.0225
 6843WAT     H228093   0.215   0.944   6.833 -0.0270 -0.4212 -1.4255
 6843WAT    EPW28094   0.244   1.016   6.823  0.0701 -0.2060  0.2307
 6844WAT      O28095   5.748   5.417   4.416  0.0515 -0.5263  0.1063
 6844WAT     H128096   5.702   5.434   4.488  0.7518  1.2668  0.1833
 6844WAT     H228097   5.710   5.466   4.355  2.1769  1.5712  0.3322
 6844WAT    EPW28098   5.736   5.427   4.418  0.4689  0.0485  0.1510
 6845WAT      O28099   1.342   3.625   2.566  0.0762 -0.0345 -0.9085
 6845WAT     H128100   1.403   3.688   2.557  1.4269 -0.7826  1.9541
 6845WAT     H228101   1.389   3.552   2.576 -1.2534 -0.7140  0.9312
 6845WAT    EPW28102   1.358   3.624   2.566  0.0793 -0.2453 -0.2138
 6846WAT      O28103   3.829   5.132   2.081 -0.4791 -0.0791  0.1549
 6846WAT     H128104   3.809   5.050   2.059 -0.8206 -0.3018  1.2317
 6846WAT     H228105   3.829   5.131   2.168  1.5932  0.5639  0.2222
 6846WAT    EPW28106   3.826   5.120   2.091 -0.2234 -0.0170  0.3239
 6847WAT      O28107   3.222   4.517   6.956  0.6037  0.7935  0.3366
 6847WAT     H128108   3.261   4.488   6.884 -1.2812 -2.1055  0.3066
 6847WAT     H228109   3.275   4.491   7.020 -0.1594 -1.3319  0.1864
 6847WAT    EPW28110   3.235   4.509   6.955  0.2126  0.0513  0.3100
 6848WAT      O28111   3.826   1.576   1.352 -0.3593  0.0385 -0.1042
 6848WAT     H128112   3.900   1.583   1.307 -1.0966 -0.8368 -1.5384
 6848WAT     H228113   3.798   1.495   1.332 -2.0143  0.5805 -0.1359
 6848WAT    EPW28114   3.833   1.565   1.342 -0.7127 -0.0107 -0.3207
 6849WAT      O28115   3.631   5.594   1.382  0.4429 -0.1398 -0.1518
 6849WAT     H128116   3.685   5.662   1.372 -1.3970  1.2343 -1.2546
 6849WAT     H228117   3.685   5.525   1.381  2.4779  1.2906  1.9888
 6849WAT    EPW28118   3.647   5.594   1.380  0.4717  0.2745  0.0015
 6850WAT      O28119   1.182   1.180   5.454  0.4014  0.0280  0.2227
 6850WAT     H128120   1.182   1.119   5.516  1.2292 -0.6882 -0.4591
 6850WAT     H228121   1.121   1.237   5.481 -1.6544 -1.9512  0.0579
 6850WAT    EPW28122   1.173   1.179   5.467  0.2200 -0.3702  0.0976
 6851WAT      O28123   6.371   5.765   2.769 -0.3692 -0.2353  0.3113
 6851WAT     H128124   6.396   5.714   2.702  0.6507 -1.0075  1.2374
 6851WAT     H228125   6.413   5.840   2.754  0.3334 -0.6029  0.3832
 6851WAT    EPW28126   6.381   5.768   2.757 -0.1148 -0.4037  0.4587
 6852WAT      O28127   2.405   6.635   2.314  0.0731 -0.1415  0.5533
 6852WAT     H128128   2.324   6.602   2.306 -0.5303  1.2859  0.4295
 6852WAT     H228129   2.412   6.687   2.244  0.9240  0.0987  0.8112
 6852WAT    EPW28130   2.394   6.638   2.302  0.1097  0.1048  0.5731
 6853WAT      O28131   0.487   0.487   1.136  0.0745 -0.4967 -0.4782
 6853WAT     H128132   0.485   0.524   1.215  1.6618 -0.6856 -0.3325
 6853WAT     H228133   0.420   0.525   1.095  0.0710  0.6322  0.5096
 6853WAT    EPW28134   0.477   0.498   1.141  0.3085 -0.3579 -0.3108
 6854WAT      O28135   2.595   4.224   4.203  0.9985 -0.0251 -0.0458
 6854WAT     H128136   2.566   4.173   4.266 -0.5924 -1.5323 -1.8663
 6854WAT     H228137   2.588   4.305   4.236 -1.6701 -0.6100  1.0097
 6854WAT    EPW28138   2.590   4.229   4.217  0.3693 -0.3341 -0.1588
 6855WAT      O28139   2.299   3.298   5.889  0.0179  0.2301  0.0021
 6855WAT     H128140   2.376   3.308   5.929  0.1813  1.2320 -0.5109
 6855WAT     H228141   2.281   3.214   5.900  0.9475  0.0857  0.5709
 6855WAT    EPW28142   2.308   3.287   5.896  0.1793  0.3568  0.0103
 6856WAT      O28143   1.221   2.195   3.470  0.1463 -0.1692  0.5305
 6856WAT     H128144   1.256   2.185   3.390  2.1587 -1.6564  1.5191
 6856WAT     H228145   1.243   2.277   3.491  1.3750 -0.4092  0.3064
 6856WAT    EPW28146   1.230   2.206   3.461  0.6251 -0.4244  0.6434
 6857WAT      O28147   0.058   5.271   5.121  0.3898  0.0138  0.3686
 6857WAT     H128148   0.139   5.245   5.100  0.3054  1.2093 -1.6999
 6857WAT     H228149   0.007   5.219   5.074 -0.0050 -0.0771  0.8982
 6857WAT    EPW28150   0.063   5.260   5.111  0.3190  0.1769  0.1413
 6858WAT      O28151   4.718   2.942   2.262  0.0426  0.3842 -0.6071
 6858WAT     H128152   4.632   2.957   2.261  0.0348  0.6454  1.0768
 6858WAT     H228153   4.730   2.897   2.336  1.1874 -0.8522 -1.5134
 6858WAT    EPW28154   4.707   2.938   2.273  0.2105  0.2402 -0.4922
 6859WAT      O28155   1.603   2.873   5.590 -0.0321  0.0013 -0.2791
 6859WAT     H128156   1.657   2.942   5.590  0.3358 -0.2729 -0.9711
 6859WAT     H228157   1.657   2.805   5.584 -0.4663 -0.2435 -1.8806
 6859WAT    EPW28158   1.619   2.873   5.589 -0.0419 -0.0754 -0.6179
 6860WAT      O28159   5.408   0.576   0.606 -0.1820  0.3991 -0.3605
 6860WAT     H128160   5.434   0.499   0.638  1.3255  0.7623 -0.6457
 6860WAT     H228161   5.327   0.585   0.639 -0.7031 -1.6360 -0.9200
 6860WAT    EPW28162   5.400   0.566   0.616 -0.0363  0.1521 -0.4853
 6861WAT      O28163   4.294   5.149   1.438  0.6813  0.0252  0.2480
 6861WAT     H128164   4.294   5.231   1.409  0.4147 -0.5882 -1.6241
 6861WAT     H228165   4.293   5.101   1.365 -0.9701 -1.6332  1.2489
 6861WAT    EPW28166   4.294   5.154   1.423  0.3980 -0.3104  0.1193
 6862WAT      O28167   4.239   0.159   1.855  0.4013 -0.3744 -0.0167
 6862WAT     H128168   4.270   0.183   1.777  0.2691 -1.8988 -0.5609
 6862WAT     H228169   4.191   0.228   1.879  0.4375  0.1237 -1.2771
 6862WAT    EPW28170   4.237   0.173   1.847  0.3871 -0.5260 -0.2833
 6863WAT      O28171   3.405   6.663   2.095 -0.0148 -0.1983  0.2710
 6863WAT     H128172   3.478   6.623   2.070  0.5572  0.0194  1.5091
 6863WAT     H228173   3.365   6.682   2.019  0.3125 -1.9121 -0.3801
 6863WAT    EPW28174   3.409   6.660   2.080  0.1180 -0.4193  0.3577
 6864WAT      O28175   5.391   1.332   1.505  0.6298  0.1730  0.2575
 6864WAT     H128176   5.323   1.309   1.455  1.0985  0.9944 -0.7701
 6864WAT     H228177   5.426   1.256   1.528  1.4350 -0.2504 -2.0909
 6864WAT    EPW28178   5.386   1.318   1.501  0.8180  0.2318 -0.2412
 6865WAT      O28179   4.548   0.492   3.654  0.4945 -0.7239 -0.4457
 6865WAT     H128180   4.517   0.467   3.732 -1.8551  0.0896 -1.0131
 6865WAT     H228181   4.599   0.560   3.673 -1.0299  0.2722  0.3539
 6865WAT    EPW28182   4.551   0.498   3.668 -0.0778 -0.4566 -0.4114
 6866WAT      O28183   2.782   1.945   3.913  0.6702  0.1043 -0.3465
 6866WAT     H128184   2.756   1.885   3.971  1.4136 -0.2558 -0.3767
 6866WAT     H228185   2.740   2.017   3.938 -2.8079 -1.0407 -2.1233
 6866WAT    EPW28186   2.772   1.947   3.925  0.2662 -0.1180 -0.6134
 6867WAT      O28187   3.642   1.677   3.936  0.0788  0.2968  0.1288
 6867WAT     H128188   3.649   1.593   3.960  0.2482  0.2094 -0.2266
 6867WAT     H228189   3.568   1.703   3.976  0.4752  0.2202  0.9387
 6867WAT    EPW28190   3.632   1.668   3.946  0.1624  0.2726  0.1959
 6868WAT      O28191   2.960   4.307   3.214 -0.1073  0.0775 -0.4987
 6868WAT     H128192   2.940   4.331   3.295 -1.2564  0.1388 -0.7915
 6868WAT     H228193   2.888   4.326   3.168 -0.1392 -1.6035 -1.2089
 6868WAT    EPW28194   2.947   4.314   3.219 -0.2818 -0.1617 -0.6469
 6869WAT      O28195   4.103   5.086   1.801 -0.2679  0.0590  0.2114
 6869WAT     H128196   4.016   5.082   1.802 -0.2814 -0.4305 -0.8504
 6869WAT     H228197   4.126   5.071   1.884 -1.1539 -1.5370  0.2077
 6869WAT    EPW28198   4.094   5.083   1.813 -0.4008 -0.2491  0.0540
 6870WAT      O28199   1.679   4.929   3.793 -0.0679 -0.0787 -0.3636
 6870WAT     H128200   1.622   4.976   3.839 -1.3964 -1.8405 -0.0624
 6870WAT     H228201   1.755   4.971   3.803 -1.1971  2.0894 -0.3666
 6870WAT    EPW28202   1.682   4.942   3.801 -0.4309 -0.0187 -0.3196
 6871WAT      O28203   2.544   5.402   1.323 -0.3077 -0.0798 -0.5622
 6871WAT     H128204   2.582   5.326   1.302 -0.5898 -0.3671 -0.0279
 6871WAT     H228205   2.460   5.382   1.331 -0.5120  0.4651 -1.2693
 6871WAT    EPW28206   2.537   5.388   1.321 -0.3796 -0.0417 -0.5878
 6872WAT      O28207   5.997   4.486   2.409  0.7138  0.7387 -0.6269
 6872WAT     H128208   5.922   4.503   2.368  1.0317 -1.6085 -2.3603
 6872WAT     H228209   6.029   4.417   2.366  3.1935  0.7898  0.9477
 6872WAT    EPW28210   5.991   4.479   2.397  1.1271  0.3995 -0.6504
 6873WAT      O28211   1.617   4.017   5.157 -0.1820  0.2020  0.1091
 6873WAT     H128212   1.682   3.985   5.206 -0.5225 -0.5117  0.0990
 6873WAT     H228213   1.605   4.098   5.189 -0.9451 -0.5340  1.7577
 6873WAT    EPW28214   1.625   4.025   5.169 -0.3451 -0.0121  0.3512
 6874WAT      O28215   2.326   1.648   5.941  0.6858  0.3169 -0.5123
 6874WAT     H128216   2.292   1.601   5.876 -0.9093 -0.5609  0.8854
 6874WAT     H228217   2.256   1.681   5.982  1.6232  0.8255  0.7697
 6874WAT    EPW28218   2.311   1.646   5.938  0.5886  0.2624 -0.1165
 6875WAT      O28219   1.962   4.930   1.435  0.2192  0.7024  0.4093
 6875WAT     H128220   2.047   4.911   1.438  0.1419  0.4106  0.8391
 6875WAT     H228221   1.928   4.864   1.389 -0.0562 -0.2758  1.9418
 6875WAT    EPW28222   1.970   4.917   1.429  0.1671  0.5148  0.6992
 6876WAT      O28223   6.840   5.411   1.594 -0.1902  0.0132  0.4264
 6876WAT     H128224   6.880   5.361   1.534 -1.2764 -0.7176  0.2738
 6876WAT     H228225   6.810   5.479   1.548  0.2188  0.1891  0.4127
 6876WAT    EPW28226   6.842   5.414   1.578 -0.2902 -0.0688  0.4018
 6877WAT      O28227   5.914   6.120   5.913 -0.0758 -0.2126  0.2257
 6877WAT     H128228   5.969   6.177   5.948 -1.1665  1.3462 -0.4429
 6877WAT     H228229   5.933   6.044   5.952  1.9775  0.4323  0.5505
 6877WAT    EPW28230   5.925   6.117   5.924  0.0664  0.1129  0.1749
 6878WAT      O28231   4.282   0.955   1.459  0.2071  0.3540 -0.2661
 6878WAT     H128232   4.215   0.900   1.444 -0.4783  1.1085 -0.0465
 6878WAT     H228233   4.343   0.904   1.493 -0.3834 -0.2962 -0.1494
 6878WAT    EPW28234   4.281   0.939   1.462  0.0186  0.3694 -0.2164
 6879WAT      O28235   2.873   1.537   0.899 -0.6069 -0.1912 -0.1376
 6879WAT     H128236   2.892   1.466   0.945  1.4779  0.7853  0.6430
 6879WAT     H228237   2.951   1.568   0.875 -1.3671  2.2578  0.2629
 6879WAT    EPW28238   2.887   1.531   0.902 -0.4113  0.3149  0.0369
 6880WAT      O28239   1.966   2.044   2.837 -0.0844 -0.3125 -0.2794
 6880WAT     H128240   2.052   2.032   2.831 -0.2831 -1.8032 -0.6657
 6880WAT     H228241   1.948   2.025   2.920  0.0633  0.9408  0.0590
 6880WAT    EPW28242   1.976   2.039   2.848 -0.0919 -0.3476 -0.2865
 6881WAT      O28243   0.740   4.217   1.828  0.4595 -0.9995 -0.1180
 6881WAT     H128244   0.729   4.287   1.777 -0.5486 -1.9316 -1.2328
 6881WAT     H228245   0.659   4.189   1.842  0.8308 -1.7231  0.6307
 6881WAT    EPW28246   0.726   4.223   1.822  0.3654 -1.2441 -0.1721
 6882WAT      O28247   4.472   1.311   1.988  0.2276  0.3513 -0.5586
 6882WAT     H128248   4.519   1.327   1.916 -1.1331  3.0959 -0.9828
 6882WAT     H228249   4.390   1.311   1.959 -0.2157 -2.0332  0.5254
 6882WAT    EPW28250   4.467   1.314   1.973 -0.0389  0.4045 -0.4612
 6883WAT      O28251   3.811   0.957   3.847  0.9041 -0.2067  0.2193
 6883WAT     H128252   3.850   0.888   3.883  1.3235  0.6352  1.4470
 6883WAT     H228253   3.876   1.012   3.832  0.7129 -0.4615 -1.7521
 6883WAT    EPW28254   3.826   0.955   3.850  0.9378 -0.1200  0.1094
 6884WAT      O28255   6.635   3.918   6.497 -0.4282  0.6477 -0.6348
 6884WAT     H128256   6.621   3.927   6.583  2.2987  0.1386 -0.0207
 6884WAT     H228257   6.593   3.844   6.478 -2.2348  1.4824 -0.1012
 6884WAT    EPW28258   6.627   3.908   6.507 -0.2922  0.6958 -0.4653
 6885WAT      O28259   4.039   6.151   6.125  0.4485  0.1950  0.7546
 6885WAT     H128260   4.086   6.082   6.150  0.1603  0.6728  2.8304
 6885WAT     H228261   3.971   6.151   6.179 -1.5971  0.0096 -1.6339
 6885WAT    EPW28262   4.036   6.141   6.137  0.1037  0.2382  0.7084
 6886WAT      O28263   3.553   2.063   7.082  0.3227  0.4139 -0.0633
 6886WAT     H128264   3.602   2.083   7.013  0.2734 -0.4763 -0.3772
 6886WAT     H228265   3.552   1.975   7.081 -0.4690  0.4050  0.5044
 6886WAT    EPW28266   3.560   2.053   7.072  0.1985  0.2811 -0.0258
 6887WAT      O28267   4.410   1.670   1.908  0.7287 -0.0667  0.1025
 6887WAT     H128268   4.421   1.747   1.870 -0.9419  0.1783  0.0302
 6887WAT     H228269   4.440   1.613   1.849  0.8921  0.4696 -0.3360
 6887WAT    EPW28270   4.416   1.673   1.894  0.5061  0.0487  0.0270
 6888WAT      O28271   6.175   6.207   5.385  0.1322 -0.2491  0.5301
 6888WAT     H128272   6.185   6.267   5.322  0.2561  0.2674  1.0379
 6888WAT     H228273   6.215   6.137   5.352  0.5365  0.1309  0.1834
 6888WAT    EPW28274   6.183   6.206   5.371  0.2103 -0.1166  0.5539
 6889WAT      O28275   5.470   3.297   0.324 -0.2436  0.3782  0.1351
 6889WAT     H128276   5.529   3.238   0.299 -1.4034 -0.9767  0.4951
 6889WAT     H228277   5.509   3.374   0.305  0.3727 -0.4815 -2.5417
 6889WAT    EPW28278   5.485   3.300   0.318 -0.3239  0.0511 -0.2071
 6890WAT      O28279   5.285   7.138   6.067 -0.9650 -0.1037 -0.2068
 6890WAT     H128280   5.298   7.131   6.152 -0.1907  0.8551 -0.2305
 6890WAT     H228281   5.296   7.056   6.037  0.8738 -0.0906  0.3412
 6890WAT    EPW28282   5.288   7.125   6.075 -0.5790  0.0399 -0.1294
 6891WAT      O28283   6.057   7.045   4.966 -0.1695  0.1655 -0.0950
 6891WAT     H128284   6.143   7.052   4.955 -0.4315  0.1919 -2.5219
 6891WAT     H228285   6.026   7.035   4.886 -2.5034  0.6889  0.6512
 6891WAT    EPW28286   6.065   7.045   4.953 -0.5529  0.2467 -0.3432
 6892WAT      O28287   1.818   4.694   4.395 -0.3433  0.0212 -0.3232
 6892WAT     H128288   1.789   4.773   4.415 -0.4124 -0.2810  0.8783
 6892WAT     H228289   1.763   4.641   4.437 -0.0660 -0.6544 -0.7928
 6892WAT    EPW28290   1.806   4.697   4.404 -0.3125 -0.1233 -0.2151
 6893WAT      O28291   6.278   3.355   1.300 -0.6076 -0.1384  0.0153
 6893WAT     H128292   6.239   3.326   1.228  0.8250 -1.3216 -0.3514
 6893WAT     H228293   6.287   3.283   1.349 -3.5449  0.9583  2.4702
 6893WAT    EPW28294   6.274   3.340   1.296 -0.8298 -0.1512  0.3238
 6894WAT      O28295   3.932   5.566   3.926 -0.4011 -0.0036  0.0132
 6894WAT     H128296   4.011   5.532   3.942 -1.7154 -3.3070  0.1369
 6894WAT     H228297   3.921   5.556   3.840 -0.7667  0.3298  0.0137
 6894WAT    EPW28298   3.942   5.560   3.916 -0.6493 -0.4423  0.0316
 6895WAT      O28299   1.525   5.902   2.590 -0.1317 -0.5687 -0.0363
 6895WAT     H128300   1.515   5.862   2.513  1.6629 -1.6521  0.2565
 6895WAT     H228301   1.610   5.893   2.608  0.0723  2.0822  0.7924
 6895WAT    EPW28302   1.536   5.895   2.581  0.1635 -0.3372  0.1294
 6896WAT      O28303   6.879   1.518   3.167 -0.1777 -0.1356 -0.4178
 6896WAT     H128304   6.805   1.476   3.148  0.6465 -1.9953  0.1828
 6896WAT     H228305   6.932   1.498   3.099  0.6652 -1.3171  0.5298
 6896WAT    EPW28306   6.876   1.509   3.154  0.0686 -0.5849 -0.1891
 6897WAT      O28307   5.839   6.651   5.305 -0.2086 -0.9145  0.4294
 6897WAT     H128308   5.893   6.658   5.373 -2.8036  1.1813  2.5160
 6897WAT     H228309   5.834   6.732   5.274 -1.8009 -1.1030  0.0918
 6897WAT    EPW28310   5.846   6.664   5.311 -0.8272 -0.6327  0.6878
 6898WAT      O28311   6.970   6.060   0.561 -0.5534 -0.2421  0.4559
 6898WAT     H128312   6.948   6.036   0.642 -0.4250 -2.0025 -0.0050
 6898WAT     H228313   7.043   6.106   0.573  0.4494 -1.9349  1.2317
 6898WAT    EPW28314   6.977   6.064   0.575 -0.3863 -0.7522  0.5024
 6899WAT      O28315   1.057   5.381   3.865  0.1792 -0.2975  0.7331
 6899WAT     H128316   1.002   5.409   3.803  0.3815  0.9684  1.1143
 6899WAT     H228317   1.062   5.295   3.849 -1.5580 -0.3754  0.4174
 6899WAT    EPW28318   1.050   5.372   3.853 -0.0476 -0.1220  0.7427
 6900WAT      O28319   1.699   1.973   6.052 -0.1456  0.5851 -0.2604
 6900WAT     H128320   1.685   1.963   6.137 -3.1585  0.3042 -0.6897
 6900WAT     H228321   1.773   2.020   6.049  1.6590 -1.7274  2.3575
 6900WAT    EPW28322   1.708   1.978   6.064 -0.3241  0.2020  0.0629
 6901WAT      O28323   0.612   4.204   0.325  0.5113  0.6634  0.1632
 6901WAT     H128324   0.571   4.136   0.288  1.9125  1.2211 -2.6489
 6901WAT     H228325   0.553   4.268   0.320  0.9080  0.9173 -1.9201
 6901WAT    EPW28326   0.597   4.204   0.319  0.7769  0.7833 -0.5600
 6902WAT      O28327   5.669   0.553   5.516  0.1038 -0.1025 -0.0431
 6902WAT     H128328   5.630   0.533   5.592  1.3771  2.4172  1.4167
 6902WAT     H228329   5.739   0.501   5.515  0.4709  0.3265  0.9518
 6902WAT    EPW28330   5.674   0.543   5.527  0.3461  0.3331  0.3195
 6903WAT      O28331   1.728   5.670   0.829  0.1077  0.3937 -0.5481
 6903WAT     H128332   1.751   5.753   0.839 -2.1704  1.0417 -0.1304
 6903WAT     H228333   1.661   5.674   0.773 -2.0162 -0.7716  1.7077
 6903WAT    EPW28334   1.722   5.683   0.822 -0.5426  0.3173 -0.1532
 6904WAT      O28335   6.807   4.612   1.378 -0.3245 -0.3928  0.0221
 6904WAT     H128336   6.756   4.596   1.310 -0.5801 -0.1855  0.1634
 6904WAT     H228337   6.805   4.537   1.423  0.0606 -0.6179 -0.3372
 6904WAT    EPW28338   6.799   4.598   1.375 -0.3053 -0.3955 -0.0101
 6905WAT      O28339   3.866   3.562   2.772 -0.5610 -0.2142 -0.2733
 6905WAT     H128340   3.879   3.517   2.846  0.6191  1.7125  0.7584
 6905WAT     H228341   3.895   3.508   2.710  2.0912 -0.4436  1.0292
 6905WAT    EPW28342   3.872   3.547   2.774  0.0051  0.0365  0.0715
 6906WAT      O28343   4.773   3.574   5.741  1.0306 -0.2097 -0.4079
 6906WAT     H128344   4.726   3.640   5.775  1.4975  1.2831 -2.4512
 6906WAT     H228345   4.855   3.594   5.765  0.9637 -1.3645  0.9082
 6906WAT    EPW28346   4.779   3.587   5.750  1.0897 -0.1598 -0.5153
 6907WAT      O28347   1.533   5.600   6.454  0.3889  0.7374 -0.5983
 6907WAT     H128348   1.453   5.570   6.433 -0.1230  1.2076  0.6205
 6907WAT     H228349   1.533   5.682   6.423 -0.8213  1.8729  2.0760
 6907WAT    EPW28350   1.521   5.608   6.446  0.1345  0.9746 -0.0232
 6908WAT      O28351   6.570   5.896   5.858  0.7453 -0.2092  0.1620
 6908WAT     H128352   6.573   5.928   5.939 -0.7038 -0.3100  0.2790
 6908WAT     H228353   6.587   5.811   5.870 -1.4107 -0.6330  0.6716
 6908WAT    EPW28354   6.573   5.888   5.872  0.2128 -0.2867  0.2546
 6909WAT      O28355   0.136   1.626   3.827  0.1241  0.0195 -0.6537
 6909WAT     H128356   0.193   1.560   3.835  2.1542  1.5966 -1.2349
 6909WAT     H228357   0.080   1.613   3.892  1.9418 -0.9190  0.8171
 6909WAT    EPW28358   0.136   1.614   3.838  0.6925  0.1139 -0.5223
 6910WAT      O28359   2.126   3.435   5.488 -0.0459  0.5080 -0.4954
 6910WAT     H128360   2.148   3.485   5.419  1.5722 -2.3076 -2.2268
 6910WAT     H228361   2.200   3.392   5.506 -0.7336  0.4027  2.4104
 6910WAT    EPW28362   2.140   3.436   5.480  0.0915  0.0765 -0.3219
 6911WAT      O28363   4.091   1.741   4.117 -0.1143 -0.3368  0.1551
 6911WAT     H128364   4.064   1.797   4.055  0.0761 -0.6834 -0.2513
 6911WAT     H228365   4.087   1.788   4.190  0.5525  0.3730 -0.2453
 6911WAT    EPW28366   4.086   1.756   4.118  0.0123 -0.2832  0.0359
 6912WAT      O28367   4.396   7.173   6.656  0.1329  0.8055 -0.5664
 6912WAT     H128368   4.344   7.216   6.711  0.8566 -0.0761  0.8700
 6912WAT     H228369   4.343   7.151   6.591 -1.1644  0.4301  0.5664
 6912WAT    EPW28370   4.381   7.176   6.655  0.0482  0.6198 -0.1869
 6913WAT      O28371   6.344   1.178   4.447  0.4174  0.1403 -0.1299
 6913WAT     H128372   6.398   1.114   4.421 -1.7250 -1.6540 -0.4444
 6913WAT     H228373   6.288   1.138   4.500 -1.0140  1.7626 -0.3047
 6913WAT    EPW28374   6.344   1.163   4.451 -0.1105  0.1149 -0.2022
 6914WAT      O28375   4.160   6.960   5.707 -0.2799 -0.2419  0.2204
 6914WAT     H128376   4.140   7.009   5.637  0.5877 -1.5627 -0.9919
 6914WAT     H228377   4.227   7.003   5.742  1.2504 -1.0922 -1.5037
 6914WAT    EPW28378   4.167   6.974   5.702  0.0743 -0.5626 -0.2133
 6915WAT      O28379   5.706   1.781   2.048  0.3074 -0.8271 -0.6679
 6915WAT     H128380   5.718   1.740   2.124 -0.8502  0.7649  0.4442
 6915WAT     H228381   5.755   1.736   1.992  3.4928 -0.4153  1.5351
 6915WAT    EPW28382   5.715   1.768   2.051  0.6069 -0.5311 -0.1782
 6916WAT      O28383   2.440   3.615   2.661 -0.2009  0.0930 -0.1213
 6916WAT     H128384   2.515   3.570   2.661 -0.2565 -0.0395 -1.7612
 6916WAT     H228385   2.383   3.560   2.696  0.1876 -0.2831 -0.0749
 6916WAT    EPW28386   2.443   3.601   2.666 -0.1517  0.0178 -0.3567
 6917WAT      O28387   3.038   0.120   0.999  0.0939 -0.0550  0.8347
 6917WAT     H128388   3.065   0.086   1.075  0.6246 -1.7816 -0.0580
 6917WAT     H228389   3.083   0.194   0.993  1.6295 -0.8948  1.2721
 6917WAT    EPW28390   3.049   0.126   1.010  0.3991 -0.4341  0.7674
 6918WAT      O28391   2.818   6.834   5.972  0.1601  0.2379  0.5854
 6918WAT     H128392   2.759   6.776   5.997  0.3179 -0.3170 -0.3073
 6918WAT     H228393   2.772   6.908   5.963 -0.0026  0.3209  1.9088
 6918WAT    EPW28394   2.803   6.837   5.974  0.1594  0.1682  0.6490
 6919WAT      O28395   0.846   1.812   4.563  0.0658 -0.3597 -0.1958
 6919WAT     H128396   0.803   1.822   4.488  1.1568 -1.3455 -0.9852
 6919WAT     H228397   0.888   1.737   4.553  1.2655  0.1307  0.9014
 6919WAT    EPW28398   0.846   1.803   4.551  0.4042 -0.4329 -0.1503
 6920WAT      O28399   4.094   1.697   6.300  0.4914 -0.2474  0.1612
 6920WAT     H128400   4.098   1.614   6.327 -0.1528 -0.7476 -1.1903
 6920WAT     H228401   4.128   1.694   6.220 -1.6395  0.3480 -0.8353
 6920WAT    EPW28402   4.100   1.684   6.292  0.0814 -0.2333 -0.1856
 6921WAT      O28403   4.400   4.989   4.007  0.0047  0.2831  0.5271
 6921WAT     H128404   4.462   5.050   4.013  0.5179  0.0824 -1.7636
 6921WAT     H228405   4.445   4.915   4.002 -0.4083  0.0918 -0.6205
 6921WAT    EPW28406   4.416   4.987   4.007  0.0195  0.2252  0.0192
 6922WAT      O28407   2.292   2.033   6.962 -0.3177  0.1898  0.1386
 6922WAT     H128408   2.254   2.104   6.930 -0.0763  0.1508 -0.2391
 6922WAT     H228409   2.375   2.040   6.935  0.3021  0.9793  2.0938
 6922WAT    EPW28410   2.299   2.045   6.953 -0.1905  0.3006  0.3716
 6923WAT      O28411   0.805   0.364   6.152  0.0326  0.4973 -0.8626
 6923WAT     H128412   0.865   0.360   6.089 -0.6735 -0.4402 -1.5028
 6923WAT     H228413   0.791   0.281   6.173  0.8595  0.8049  1.1582
 6923WAT    EPW28414   0.812   0.351   6.146  0.0505  0.4042 -0.6586
 6924WAT      O28415   6.292   4.053   3.694 -0.5388  0.7408  0.3816
 6924WAT     H128416   6.332   4.002   3.753 -0.5884  0.4726  0.1881
 6924WAT     H228417   6.306   4.011   3.619 -0.8802  0.8341  0.2643
 6924WAT    EPW28418   6.300   4.039   3.692 -0.5966  0.7150  0.3357
 6925WAT      O28419   5.911   6.588   2.659 -0.4327  0.0231  0.2002
 6925WAT     H128420   5.954   6.513   2.648 -1.4560 -0.6474  0.5872
 6925WAT     H228421   5.953   6.626   2.725 -0.5466 -0.7236  0.7234
 6925WAT    EPW28422   5.924   6.582   2.667 -0.6007 -0.1863  0.3346
 6926WAT      O28423   3.912   6.844   3.667  0.1175  0.2730  0.3616
 6926WAT     H128424   3.830   6.823   3.647  0.3816  0.6094 -1.2155
 6926WAT     H228425   3.936   6.783   3.724 -0.3995 -1.3632 -1.1189
 6926WAT    EPW28426   3.903   6.832   3.673  0.0801  0.0810 -0.0900
 6927WAT      O28427   5.803   4.177   5.132  0.5743  0.1819 -0.0540
 6927WAT     H128428   5.816   4.192   5.217  1.6077  0.5566 -0.2682
 6927WAT     H228429   5.727   4.134   5.131  0.0318  1.0553  0.9746
 6927WAT    EPW28430   5.793   4.173   5.145  0.6469  0.3663  0.0663
 6928WAT      O28431   6.532   2.376   7.219  0.1155 -0.1931 -0.1258
 6928WAT     H128432   6.574   2.361   7.144  1.0060 -0.9860  0.4940
 6928WAT     H228433   6.466   2.320   7.217  0.6128 -0.8028  0.0230
 6928WAT    EPW28434   6.529   2.366   7.208  0.3205 -0.4003 -0.0123
 6929WAT      O28435   6.123   6.869   3.772  1.1043  0.1868 -0.5261
 6929WAT     H128436   6.073   6.821   3.720  0.2462 -0.6396  0.9920
 6929WAT     H228437   6.123   6.948   3.734  0.0665 -0.2431 -1.4628
 6929WAT    EPW28438   6.116   6.874   3.759  0.8242  0.0012 -0.4402
 6930WAT      O28439   2.162   2.162   5.384 -0.0985  0.4268  0.0309
 6930WAT     H128440   2.225   2.222   5.389 -1.2318  1.6012  1.2894
 6930WAT     H228441   2.196   2.100   5.333  2.4619  0.4990  1.4720
 6930WAT    EPW28442   2.176   2.162   5.378  0.1123  0.6109  0.4297
 6931WAT      O28443   5.901   2.472   1.230 -0.0187 -0.1061 -0.0253
 6931WAT     H128444   5.970   2.434   1.267 -0.3071 -1.5678 -0.9198
 6931WAT     H228445   5.834   2.424   1.258 -0.5269  0.4877 -0.2101
 6931WAT    EPW28446   5.901   2.459   1.239 -0.1364 -0.2343 -0.1848
 6932WAT      O28447   6.973   3.530   4.632  0.2344  0.3220 -0.0843
 6932WAT     H128448   7.012   3.452   4.635 -1.2260 -0.6712 -2.8602
 6932WAT     H228449   7.012   3.576   4.695  1.9377 -2.2782  0.9054
 6932WAT    EPW28450   6.984   3.525   4.642  0.2703 -0.2088 -0.3482
 6933WAT      O28451   5.521   0.674   5.314  0.2546 -0.3364  0.2865
 6933WAT     H128452   5.564   0.635   5.379  0.9338  0.9831  0.6698
 6933WAT     H228453   5.440   0.681   5.345  0.6114  0.4481  1.0926
 6933WAT    EPW28454   5.515   0.669   5.328  0.4077 -0.0256  0.4622
 6934WAT      O28455   2.664   0.469   6.893 -0.1561  0.3184  0.2588
 6934WAT     H128456   2.698   0.411   6.948 -0.2452  1.2469  1.3123
 6934WAT     H228457   2.734   0.511   6.862  0.0235 -1.0621 -1.4155
 6934WAT    EPW28458   2.679   0.467   6.896 -0.1427  0.2516  0.1671
 6935WAT      O28459   7.021   4.330   5.816 -0.1410  0.7450 -0.2360
 6935WAT     H128460   7.031   4.248   5.787 -1.3822  0.4909  0.0003
 6935WAT     H228461   7.015   4.376   5.742 -0.8687  0.4224 -0.3883
 6935WAT    EPW28462   7.022   4.324   5.801 -0.4318  0.6598 -0.2236
 6936WAT      O28463   5.177   0.794   3.182  0.2391  0.1088  0.1939
 6936WAT     H128464   5.118   0.858   3.185  0.1739  0.0185  2.0616
 6936WAT     H228465   5.132   0.723   3.206  0.8028 -0.2186  0.3101
 6936WAT    EPW28466   5.162   0.793   3.186  0.3127  0.0471  0.4870
 6937WAT      O28467   3.556   5.816   2.958 -0.0815  0.3850 -0.2797
 6937WAT     H128468   3.567   5.903   2.952  0.6270  0.2513 -1.4369
 6937WAT     H228469   3.569   5.789   2.876 -1.4644 -0.7028 -0.1669
 6937WAT    EPW28470   3.560   5.825   2.945 -0.1811  0.2045 -0.4340
 6938WAT      O28471   6.644   5.620   3.110 -0.1202 -0.0772 -0.3372
 6938WAT     H128472   6.559   5.634   3.098 -0.0765  1.9080  1.1939
 6938WAT     H228473   6.647   5.562   3.175 -0.3000  0.1453 -0.1314
 6938WAT    EPW28474   6.632   5.613   3.118 -0.1403  0.2489 -0.0807
 6939WAT      O28475   3.044   6.789   4.972 -0.4275  0.1627 -0.4621
 6939WAT     H128476   3.082   6.866   4.983  0.5772 -0.5194  1.3486
 6939WAT     H228477   3.098   6.747   4.918 -0.6319  0.4984 -0.9278
 6939WAT    EPW28478   3.058   6.794   4.966 -0.3093  0.1115 -0.2634
 6940WAT      O28479   2.360   4.715   1.312 -0.2052 -0.0285 -0.6460
 6940WAT     H128480   2.293   4.665   1.289  0.5586 -0.5161 -1.9299
 6940WAT     H228481   2.430   4.663   1.303  0.4484  0.7528 -0.3209
 6940WAT    EPW28482   2.361   4.700   1.307  0.0042  0.0149 -0.7877
 6941WAT      O28483   0.676   1.622   3.761  0.0977  0.1440  0.1734
 6941WAT     H128484   0.755   1.654   3.779 -0.3740  1.3720  0.1300
 6941WAT     H228485   0.640   1.610   3.839  0.4593 -0.7848  0.2049
 6941WAT    EPW28486   0.683   1.625   3.775  0.0815  0.1882  0.1716
 6942WAT      O28487   0.384   6.940   5.822  0.6869 -0.4934 -0.0279
 6942WAT     H128488   0.319   6.942   5.764  1.4309 -0.7550 -0.8944
 6942WAT     H228489   0.349   6.978   5.892 -0.5725 -1.1057 -0.2840
 6942WAT    EPW28490   0.369   6.946   5.824  0.6107 -0.6225 -0.1937
 6943WAT      O28491   0.057   4.729   0.954  0.5004  0.1895 -0.3314
 6943WAT     H128492   0.003   4.731   1.023  1.0100  0.6938  0.0578
 6943WAT     H228493   0.059   4.645   0.932 -0.1562  0.1095 -0.1242
 6943WAT    EPW28494   0.049   4.717   0.961  0.4787  0.2522 -0.2433
 6944WAT      O28495   6.973   6.776   2.318 -0.3939  0.0864 -0.8801
 6944WAT     H128496   6.994   6.859   2.335  0.0208 -0.1599 -0.1522
 6944WAT     H228497   7.049   6.734   2.323 -0.9426 -0.7824  1.5617
 6944WAT    EPW28498   6.988   6.782   2.321 -0.4137 -0.0783 -0.4119
 6945WAT      O28499   7.015   4.416   6.981  0.2718  0.0601 -0.0554
 6945WAT     H128500   7.100   4.397   6.980  0.7646  1.9154  1.1955
 6945WAT     H228501   6.984   4.369   7.047  0.7744  0.9178  0.8154
 6945WAT    EPW28502   7.023   4.406   6.990  0.4188  0.4608  0.2580
 6946WAT      O28503   7.143   5.738   4.263 -0.4701  0.4339 -0.0493
 6946WAT     H128504   7.180   5.812   4.291  2.7623 -1.3953  1.0340
 6946WAT     H228505   7.185   5.722   4.188 -3.8298  1.4761 -2.3759
 6946WAT    EPW28506   7.155   5.747   4.256 -0.4889  0.3176 -0.2329
 6947WAT      O28507   3.989   1.136   4.457 -0.0398 -0.0441  0.4410
 6947WAT     H128508   3.924   1.169   4.409  0.0725  1.7952  1.4644
 6947WAT     H228509   4.059   1.178   4.426  1.0011 -2.9197 -1.5454
 6947WAT    EPW28510   3.990   1.147   4.445  0.1306 -0.1972  0.2987
 6948WAT      O28511   4.977   4.312   5.275  0.3656  0.3532  0.0570
 6948WAT     H128512   5.024   4.342   5.207 -0.6069 -0.1208 -0.8549
 6948WAT     H228513   4.925   4.379   5.295  1.2958  0.8246  0.9688
 6948WAT    EPW28514   4.976   4.326   5.268  0.3594  0.3528  0.0570
 6949WAT      O28515   1.673   4.372   4.204  0.2790  0.0618 -0.1757
 6949WAT     H128516   1.636   4.340   4.132  1.5475  0.6752 -1.1271
 6949WAT     H228517   1.605   4.382   4.259 -0.3662 -3.0824 -0.1887
 6949WAT    EPW28518   1.657   4.369   4.202  0.3710 -0.3120 -0.3181
 6950WAT      O28519   0.215   5.311   6.907  0.3809 -0.7719 -0.0059
 6950WAT     H128520   0.280   5.362   6.878 -0.6623  0.6975  0.0761
 6950WAT     H228521   0.154   5.318   6.845 -0.7037  0.0173  1.0777
 6950WAT    EPW28522   0.215   5.320   6.894  0.0666 -0.4383  0.1663
 6951WAT      O28523   1.209   6.303   5.963  0.2227  0.4412  0.2802
 6951WAT     H128524   1.291   6.329   5.978  0.8415 -0.2231 -1.6806
 6951WAT     H228525   1.184   6.351   5.895 -0.7523  0.0807  0.3650
 6951WAT    EPW28526   1.217   6.314   5.955  0.1701  0.2898  0.0031
 6952WAT      O28527   1.394   3.041   0.858  0.2700 -0.1877 -0.0364
 6952WAT     H128528   1.373   3.063   0.776  2.3498  1.7185 -0.1515
 6952WAT     H228529   1.381   3.114   0.903  1.0545 -0.6383  0.9602
 6952WAT    EPW28530   1.389   3.055   0.853  0.6931  0.0273  0.0938
 6953WAT      O28531   3.602   0.832   5.517 -0.1862  0.1014 -0.0919
 6953WAT     H128532   3.518   0.854   5.523 -0.5402 -0.7979 -1.3926
 6953WAT     H228533   3.620   0.796   5.594 -1.3043 -0.7232 -0.2038
 6953WAT    EPW28534   3.592   0.830   5.529 -0.4037 -0.1532 -0.3006
 6954WAT      O28535   2.645   6.439   6.356  0.2547 -0.1643  0.1716
 6954WAT     H128536   2.613   6.361   6.335 -0.7426  0.3689 -0.3450
 6954WAT     H228537   2.575   6.485   6.382  0.8978  0.4051  0.9603
 6954WAT    EPW28538   2.630   6.434   6.356  0.2024 -0.0014  0.2118
 6955WAT      O28539   4.389   4.257   2.110  0.1228  0.4761 -0.0132
 6955WAT     H128540   4.350   4.252   2.032 -1.7191 -0.6712  0.9097
 6955WAT     H228541   4.343   4.318   2.151  0.6026  0.5366  0.4386
 6955WAT    EPW28542   4.376   4.265   2.104 -0.0784  0.3155  0.1899
 6956WAT      O28543   5.128   2.269   2.067 -0.1642  0.4909 -0.6194
 6956WAT     H128544   5.168   2.193   2.083  0.1271  0.7238 -0.2225
 6956WAT     H228545   5.070   2.276   2.132 -0.9652  0.0890 -1.2667
 6956WAT    EPW28546   5.125   2.259   2.079 -0.2395  0.4659 -0.6564
 6957WAT      O28547   4.102   5.949   5.302  0.5994 -0.0634  0.3097
 6957WAT     H128548   4.040   5.893   5.326  0.7356 -0.0024  0.8049
 6957WAT     H228549   4.176   5.906   5.317  0.6839 -0.6352 -1.4754
 6957WAT    EPW28550   4.104   5.935   5.307  0.6320 -0.1389  0.1192
 6958WAT      O28551   2.666   7.107   5.001 -0.0408  0.5118 -0.6386
 6958WAT     H128552   2.644   7.153   4.930  0.3794  1.9457  0.1220
 6958WAT     H228553   2.708   7.038   4.968 -0.6078  0.6882 -1.8144
 6958WAT    EPW28554   2.669   7.103   4.985 -0.0625  0.7497 -0.6999
 6959WAT      O28555   6.672   2.543   0.003  0.4306 -0.4064 -0.1529
 6959WAT     H128556   6.629   2.475  -0.030 -1.4942  0.2480  0.8535
 6959WAT     H228557   6.715   2.508   0.071  0.1562 -0.7783 -0.1644
 6959WAT    EPW28558   6.672   2.528   0.008  0.1058 -0.3647 -0.0059
 6960WAT      O28559   1.197   7.070   5.535 -0.4277  0.0020  0.4261
 6960WAT     H128560   1.176   6.999   5.581  2.2906  0.1494  2.1269
 6960WAT     H228561   1.248   7.039   5.471 -1.1542  0.1922 -0.2504
 6960WAT    EPW28562   1.202   7.055   5.532 -0.1334  0.0518  0.5774
 6961WAT      O28563   4.073   0.548   3.191 -0.4910  0.8727 -0.3503
 6961WAT     H128564   4.040   0.486   3.242  0.0762 -0.7513 -1.8446
 6961WAT     H228565   4.128   0.590   3.244  0.2319 -0.8719  0.3841
 6961WAT    EPW28566   4.076   0.545   3.206 -0.3004  0.3751 -0.4625
 6962WAT      O28567   1.717   4.401   0.121 -0.1647  0.5525  0.0533
 6962WAT     H128568   1.678   4.472   0.154  2.0462  1.4934  0.9011
 6962WAT     H228569   1.671   4.335   0.154 -0.1168  1.5453  2.3618
 6962WAT    EPW28570   1.705   4.402   0.131  0.1689  0.8382  0.5195
 6963WAT      O28571   4.525   1.185   4.477 -0.0540 -0.2230  0.3140
 6963WAT     H128572   4.534   1.257   4.429  0.3280  1.1187  2.2431
 6963WAT     H228573   4.607   1.165   4.500 -0.1944 -1.0190  0.1449
 6963WAT    EPW28574   4.539   1.193   4.474 -0.0183 -0.1424  0.5740
 6964WAT      O28575   3.619   3.543   4.436  0.2817  0.9939 -0.4726
 6964WAT     H128576   3.685   3.510   4.482 -0.9422  1.5349  1.8054
 6964WAT     H228577   3.615   3.626   4.463 -0.4126  1.3746 -1.6735
 6964WAT    EPW28578   3.628   3.550   4.447 -0.0017  1.1300 -0.3135
 6965WAT      O28579   6.423   0.131   6.871  0.4383 -0.0694 -0.4865
 6965WAT     H128580   6.419   0.052   6.834  0.3836 -0.4793  0.3619
 6965WAT     H228581   6.437   0.113   6.955 -1.5277  0.7636  0.0527
 6965WAT    EPW28582   6.425   0.117   6.878  0.1398 -0.0069 -0.2815
 6966WAT      O28583   4.348   5.856   7.032  0.0406 -0.0628 -0.5746
 6966WAT     H128584   4.429   5.829   7.049  0.0559 -0.0935 -0.6887
 6966WAT     H228585   4.359   5.927   6.983 -0.0014  0.2088 -0.1855
 6966WAT    EPW28586   4.361   5.862   7.027  0.0366 -0.0272 -0.5340
 6967WAT      O28587   4.085   5.346   2.125  0.5064  0.0556 -0.5424
 6967WAT     H128588   4.133   5.314   2.190 -0.5975 -0.4452  0.0483
 6967WAT     H228589   4.017   5.292   2.120 -1.2479  2.0244  0.2629
 6967WAT    EPW28590   4.082   5.334   2.134  0.0842  0.2725 -0.3362
 6968WAT      O28591   5.775   1.595   1.843  0.1702  0.0211 -0.5663
 6968WAT     H128592   5.754   1.511   1.854 -0.7776  0.1232 -1.5586
 6968WAT     H228593   5.724   1.621   1.778 -0.2638  1.6440  0.3760
 6968WAT    EPW28594   5.765   1.586   1.835 -0.0340  0.2759 -0.5737
 6969WAT      O28595   3.084   0.451   3.129  0.4728  0.7870 -0.1786
 6969WAT     H128596   3.033   0.507   3.087  0.1058  0.4520 -0.1902
 6969WAT     H228597   3.125   0.409   3.064 -1.7603 -1.3225 -0.3946
 6969WAT    EPW28598   3.083   0.453   3.113  0.0887  0.4259 -0.2123
 6970WAT      O28599   1.242   4.247   4.558 -0.1938 -0.2211 -0.3679
 6970WAT     H128600   1.229   4.236   4.472 -0.9230 -1.1757 -0.1483
 6970WAT     H228601   1.254   4.333   4.566  1.2315 -0.2519 -1.5945
 6970WAT    EPW28602   1.242   4.258   4.547 -0.0909 -0.3667 -0.5166
 6971WAT      O28603   5.976   4.824   0.293  0.1375 -0.0388  0.1504
 6971WAT     H128604   5.974   4.886   0.232  1.9961  0.8579  0.9509
 6971WAT     H228605   5.940   4.862   0.363  1.4087  0.2141  0.6850
 6971WAT    EPW28606   5.970   4.838   0.294  0.5998  0.1310  0.3476
 6972WAT      O28607   1.653   1.896   4.422  0.4468 -0.5643  0.3286
 6972WAT     H128608   1.672   1.960   4.477  1.2597 -0.6018  0.1043
 6972WAT     H228609   1.575   1.918   4.390 -0.5746 -1.0864  2.2803
 6972WAT    EPW28610   1.644   1.908   4.425  0.4160 -0.6470  0.5838
 6973WAT      O28611   0.259   3.358   2.968 -0.1346  0.2325 -0.2986
 6973WAT     H128612   0.204   3.346   3.035 -1.0931 -0.2979 -1.1493
 6973WAT     H228613   0.282   3.442   2.974  0.3639  0.0184  1.1009
 6973WAT    EPW28614   0.254   3.368   2.979 -0.2026  0.1225 -0.2175
 6974WAT      O28615   1.211   4.787   6.760  0.1660 -0.4416  0.6042
 6974WAT     H128616   1.127   4.804   6.774 -0.0014 -1.6817  1.2664
 6974WAT     H228617   1.243   4.775   6.840  0.4074 -2.3136  0.2719
 6974WAT    EPW28618   1.203   4.788   6.774  0.1770 -0.9013  0.6530
 6975WAT      O28619   4.919   5.003   4.059  0.6813  0.0723 -0.8021
 6975WAT     H128620   4.890   5.085   4.067 -2.4192 -0.9528 -0.2639
 6975WAT     H228621   4.980   4.996   4.121  0.5932  1.7693 -0.4821
 6975WAT    EPW28622   4.924   5.014   4.069  0.2103  0.1715 -0.6753
 6976WAT      O28623   6.240   6.297   2.710 -0.1566  0.1560 -0.0967
 6976WAT     H128624   6.162   6.260   2.703 -0.2485  0.7120 -2.7121
 6976WAT     H228625   6.280   6.277   2.635  0.8335  2.9139 -0.4407
 6976WAT    EPW28626   6.235   6.289   2.698 -0.0239  0.6455 -0.5339
 6977WAT      O28627   4.753   5.367   5.003  0.0899  0.2595 -0.5094
 6977WAT     H128628   4.759   5.346   4.919 -0.6554  0.0900 -0.5258
 6977WAT     H228629   4.725   5.294   5.041 -1.6858  0.9236 -0.4447
 6977WAT    EPW28630   4.749   5.353   4.996 -0.2825  0.3325 -0.5023
 6978WAT      O28631   1.595   2.044   1.486  0.3998  0.5805 -0.0200
 6978WAT     H128632   1.640   2.000   1.425 -0.2834  0.3215 -0.3539
 6978WAT     H228633   1.634   2.121   1.488 -0.5292  1.1770 -1.9821
 6978WAT    EPW28634   1.607   2.049   1.477  0.1617  0.6303 -0.3592
 6979WAT      O28635   0.148   4.881   2.532  0.2893 -0.5689 -0.4525
 6979WAT     H128636   0.106   4.938   2.583 -0.1578 -0.1541 -1.2732
 6979WAT     H228637   0.084   4.838   2.492  0.6407 -0.3404 -1.2694
 6979WAT    EPW28638   0.132   4.883   2.534  0.2752 -0.4739 -0.6944
 6980WAT      O28639   2.725   3.971   5.434 -0.2631  0.5021 -0.0430
 6980WAT     H128640   2.760   3.972   5.354  0.8226  1.2349  0.4189
 6980WAT     H228641   2.770   4.032   5.477  0.0915 -0.7726  1.5067
 6980WAT    EPW28642   2.737   3.980   5.428 -0.0503  0.4221  0.2542
 6981WAT      O28643   6.850   0.493   5.049 -0.2848  0.5784 -0.3968
 6981WAT     H128644   6.831   0.577   5.038 -1.8067  0.5855  1.6320
 6981WAT     H228645   6.784   0.452   5.008 -0.4441  0.4212  0.0111
 6981WAT    EPW28646   6.837   0.499   5.041 -0.5332  0.5562 -0.0368
 6982WAT      O28647   0.480   6.648   0.593  0.0113  0.0238 -0.6042
 6982WAT     H128648   0.466   6.588   0.532 -2.7703 -0.7743  0.6429
 6982WAT     H228649   0.549   6.617   0.637  1.6063  0.2688 -2.7748
 6982WAT    EPW28650   0.488   6.634   0.591 -0.1640 -0.0579 -0.7406
 6983WAT      O28651   5.649   2.369   5.931 -0.4327  0.0602 -0.6177
 6983WAT     H128652   5.626   2.441   5.973 -1.5843  0.6221 -2.1032
 6983WAT     H228653   5.713   2.396   5.877  1.6143 -0.8157  1.2193
 6983WAT    EPW28654   5.655   2.383   5.929 -0.3004  0.0138 -0.5657
 6984WAT      O28655   0.330   2.558   3.337  0.3736  0.3577 -0.6693
 6984WAT     H128656   0.248   2.533   3.321  0.5496  0.0532 -1.1210
 6984WAT     H228657   0.364   2.490   3.379  0.1067  0.8914  0.4617
 6984WAT    EPW28658   0.323   2.544   3.341  0.3602  0.3916 -0.5690
 6985WAT      O28659   1.266   3.359   3.971  0.8124 -0.1217 -0.3334
 6985WAT     H128660   1.282   3.340   4.055  1.0039  1.0063 -0.1021
 6985WAT     H228661   1.321   3.307   3.928  0.4775 -0.9551  0.2218
 6985WAT    EPW28662   1.276   3.349   3.977  0.7912 -0.0782 -0.2172
 6986WAT      O28663   4.177   0.229   6.501 -0.1654  0.2899 -0.0929
 6986WAT     H128664   4.211   0.270   6.432  1.3160  0.8156  0.9121
 6986WAT     H228665   4.115   0.178   6.466 -0.1451  1.2949 -1.6826
 6986WAT    EPW28666   4.173   0.227   6.486  0.0564  0.5160 -0.1792
 6987WAT      O28667   0.605   5.175   5.267 -0.1848 -0.0888 -0.0044
 6987WAT     H128668   0.613   5.251   5.309  3.3129 -0.4358  0.2548
 6987WAT     H228669   0.588   5.118   5.330  1.5356 -0.0859  0.5122
 6987WAT    EPW28670   0.603   5.178   5.282  0.5860 -0.1397  0.1102
 6988WAT      O28671   4.315   2.588   1.879 -0.2374  0.0712  0.2676
 6988WAT     H128672   4.236   2.558   1.904 -0.2106  0.1175  0.4079
 6988WAT     H228673   4.345   2.627   1.951 -0.1904  0.2710  0.1382
 6988WAT    EPW28674   4.308   2.589   1.894 -0.2265  0.1075  0.2692
 6989WAT      O28675   3.183   6.719   2.831 -0.1482 -0.2442 -0.0393
 6989WAT     H128676   3.232   6.703   2.760 -2.1818 -0.7947 -1.4205
 6989WAT     H228677   3.151   6.799   2.815 -1.4142 -0.7751 -0.2882
 6989WAT    EPW28678   3.186   6.729   2.818 -0.6356 -0.4039 -0.2801
 6990WAT      O28679   5.913   5.662   1.975  0.2297 -0.1138 -0.0269
 6990WAT     H128680   5.878   5.739   1.994 -0.5163 -0.8062  1.6196
 6990WAT     H228681   5.910   5.658   1.888 -1.5766  0.8797 -0.0469
 6990WAT    EPW28682   5.907   5.673   1.965 -0.1473 -0.0693  0.2134
 6991WAT      O28683   0.822   2.310   5.747 -0.2353  0.2865 -0.2994
 6991WAT     H128684   0.902   2.296   5.778 -0.0622  2.2054  0.2743
 6991WAT     H228685   0.836   2.352   5.672 -0.6389  2.0092  0.5256
 6991WAT    EPW28686   0.836   2.314   5.740 -0.2693  0.8244 -0.0928
 6992WAT      O28687   2.099   5.140   2.579 -0.8962  0.2151 -0.3927
 6992WAT     H128688   2.116   5.219   2.614 -1.6154  0.0913  0.2583
 6992WAT     H228689   2.019   5.122   2.607 -0.0892 -1.5422  0.9781
 6992WAT    EPW28690   2.090   5.149   2.588 -0.8832 -0.0628 -0.0940
 6993WAT      O28691   0.748   5.874   0.015 -0.1626  0.6265  0.3068
 6993WAT     H128692   0.823   5.917   0.025  0.5701 -0.8183  1.4077
 6993WAT     H228693   0.708   5.884   0.091 -1.1671  1.4819 -0.3108
 6993WAT    EPW28694   0.753   5.881   0.028 -0.2027  0.5395  0.3782
 6994WAT      O28695   7.166   4.924   1.339 -0.0958 -0.2738 -0.4146
 6994WAT     H128696   7.132   4.852   1.303  1.0804 -1.2774  0.4192
 6994WAT     H228697   7.106   4.948   1.397 -0.9139 -0.0094 -1.3312
 6994WAT    EPW28698   7.152   4.917   1.342 -0.0429 -0.3830 -0.4268
 6995WAT      O28699   4.992   3.832   5.596  0.1770 -0.1454  0.9689
 6995WAT     H128700   4.951   3.894   5.642  0.4296  0.5026  0.3529
 6995WAT     H228701   4.932   3.809   5.536  0.2220 -0.2064  0.9478
 6995WAT    EPW28702   4.977   3.838   5.594  0.2210 -0.0587  0.8748
 6996WAT      O28703   2.539   1.197   2.410 -0.4470  0.1946 -0.0954
 6996WAT     H128704   2.477   1.249   2.379  0.3150  1.0043 -0.2808
 6996WAT     H228705   2.526   1.198   2.496 -1.1811 -0.2833 -0.1941
 6996WAT    EPW28706   2.528   1.204   2.418 -0.4429  0.2436 -0.1374
 6997WAT      O28707   5.172   7.174   0.620 -0.9572 -0.1309 -0.1566
 6997WAT     H128708   5.168   7.160   0.706 -0.3799  0.1471 -0.0865
 6997WAT     H228709   5.227   7.113   0.592  0.5726  1.1340 -0.0230
 6997WAT    EPW28710   5.179   7.163   0.629 -0.6459  0.0970 -0.1265
 6998WAT      O28711   6.002   6.987   7.184  0.3464 -0.6802 -0.0675
 6998WAT     H128712   5.975   7.052   7.133  1.3937 -0.2799 -0.1376
 6998WAT     H228713   6.002   6.918   7.131  0.0496 -0.5681 -0.2185
 6998WAT    EPW28714   5.998   6.986   7.169  0.4573 -0.6045 -0.1001
 6999WAT      O28715   1.684   1.723   3.549 -0.5169 -0.0021 -0.8414
 6999WAT     H128716   1.663   1.775   3.615  0.1620  0.2021 -0.7738
 6999WAT     H228717   1.614   1.673   3.539 -1.1603  0.8719 -0.8584
 6999WAT    EPW28718   1.671   1.723   3.557 -0.5116  0.1571 -0.8339
 7000WAT      O28719   6.095   6.384   4.286 -0.0941 -0.4954  0.3438
 7000WAT     H128720   6.009   6.396   4.285 -0.0412  0.2589  2.0389
 7000WAT     H228721   6.114   6.377   4.371  1.4757 -1.0464 -0.0134
 7000WAT    EPW28722   6.085   6.385   4.298  0.1456 -0.4653  0.5415
 7001WAT      O28723   1.444   5.035   1.495  0.2232  0.0905  0.4341
 7001WAT     H128724   1.483   5.088   1.438 -1.3763  0.0723 -0.7564
 7001WAT     H228725   1.457   5.073   1.572  1.2090  0.8924 -0.1179
 7001WAT    EPW28726   1.451   5.049   1.498  0.1325  0.2063  0.1767
 7002WAT      O28727   7.228   2.782   0.368  0.6417 -0.4047 -0.6569
 7002WAT     H128728   7.240   2.803   0.284 -0.0545 -1.3688 -1.0151
 7002WAT     H228729   7.309   2.783   0.401  1.1602 -1.6967 -1.7706
 7002WAT    EPW28730   7.242   2.785   0.360  0.6155 -0.7380 -0.8743
 7003WAT      O28731   0.586   2.797   2.905  0.0564 -0.3516  0.1656
 7003WAT     H128732   0.662   2.764   2.878 -0.4850 -2.2358  0.7477
 7003WAT     H228733   0.531   2.778   2.841  0.1515  1.6424 -0.5797
 7003WAT    EPW28734   0.589   2.789   2.892 -0.0095 -0.3354  0.1415
 7004WAT      O28735   6.458   3.877   1.953  0.1821 -0.3950  0.4939
 7004WAT     H128736   6.424   3.904   1.877  1.0953  1.1764  0.6090
 7004WAT     H228737   6.390   3.842   1.995 -0.5022 -0.5545 -0.7184
 7004WAT    EPW28738   6.443   3.876   1.948  0.2159 -0.1864  0.3318
 7005WAT      O28739   7.049   4.963   2.775 -0.4629 -0.4517  0.1449
 7005WAT     H128740   6.999   4.905   2.732 -2.0594 -0.2500  1.6143
 7005WAT     H228741   6.990   5.019   2.808  0.9411  1.2160 -0.0553
 7005WAT    EPW28742   7.033   4.963   2.773 -0.4913 -0.1756  0.3324
 7006WAT      O28743   6.165   2.834   3.105 -0.1352 -0.3738  0.1189
 7006WAT     H128744   6.091   2.789   3.097 -0.5638  0.2689  0.4165
 7006WAT     H228745   6.180   2.835   3.191  0.1756 -0.4356  0.0665
 7006WAT    EPW28746   6.157   2.828   3.116 -0.1526 -0.2880  0.1551
 7007WAT      O28747   6.668   3.296   7.296  0.0783  0.6216 -0.1557
 7007WAT     H128748   6.672   3.286   7.382 -0.9497  1.1774 -0.0320
 7007WAT     H228749   6.710   3.371   7.281 -3.1567  2.7132  0.3599
 7007WAT    EPW28750   6.675   3.306   7.306 -0.5515  1.0127 -0.0612
 7008WAT      O28751   6.841   4.121   4.790 -0.0606 -0.3223 -0.3122
 7008WAT     H128752   6.798   4.163   4.726  2.1752 -0.0561 -1.7518
 7008WAT     H228753   6.833   4.037   4.767 -0.4458 -0.3378 -0.1339
 7008WAT    EPW28754   6.834   4.115   4.777  0.2128 -0.2853 -0.4985
 7009WAT      O28755   4.656   5.207   6.397 -0.3648 -0.2863  0.1751
 7009WAT     H128756   4.646   5.126   6.427  1.4873  0.2907  2.6055
 7009WAT     H228757   4.576   5.241   6.401 -1.1963 -1.9579 -0.9980
 7009WAT    EPW28758   4.643   5.200   6.402 -0.2140 -0.4480  0.3608
 7010WAT      O28759   1.895   2.476   5.240 -0.6812 -0.0390 -0.0135
 7010WAT     H128760   1.865   2.551   5.205 -0.7721 -0.5683 -1.1214
 7010WAT     H228761   1.927   2.433   5.171  0.9015 -0.3159  0.8537
 7010WAT    EPW28762   1.895   2.481   5.225 -0.4608 -0.1581 -0.0491
 7011WAT      O28763   5.087   0.408   3.056  0.3731  0.2657 -0.0658
 7011WAT     H128764   5.023   0.351   3.042  0.1766  0.3760  0.3579
 7011WAT     H228765   5.060   0.453   3.126 -0.2223  1.9569 -1.3094
 7011WAT    EPW28766   5.074   0.406   3.065  0.2561  0.5318 -0.1869
 7012WAT      O28767   4.706   3.067   3.149  0.8291  0.3619  0.2430
 7012WAT     H128768   4.774   3.013   3.147  0.1729 -0.4841  0.5648
 7012WAT     H228769   4.637   3.015   3.138  0.2845  1.3530 -1.5460
 7012WAT    EPW28770   4.705   3.052   3.147  0.6517  0.3833  0.0263
 7013WAT      O28771   2.262   1.396   4.691  0.5514  0.6072  0.4137
 7013WAT     H128772   2.318   1.348   4.738 -0.5907  0.8221  2.0447
 7013WAT     H228773   2.195   1.342   4.677  0.4108  0.8923 -0.0331
 7013WAT    EPW28774   2.261   1.381   4.696  0.3619  0.6811  0.5886
 7014WAT      O28775   0.390   3.405   6.949 -0.2719 -0.1957  0.3102
 7014WAT     H128776   0.437   3.358   6.893  0.7593 -1.0457  1.8208
 7014WAT     H228777   0.309   3.400   6.917 -0.0546 -2.3223 -0.0367
 7014WAT    EPW28778   0.385   3.398   6.936 -0.0875 -0.6354  0.4821
 7015WAT      O28779   4.252   3.511   3.744  0.2543  0.1043  0.0949
 7015WAT     H128780   4.308   3.503   3.811 -0.9110  2.2732  1.4484
 7015WAT     H228781   4.196   3.571   3.772 -1.9990 -1.0069 -1.7495
 7015WAT    EPW28782   4.252   3.519   3.758 -0.2507  0.2606  0.0224
 7016WAT      O28783   2.650   0.341   3.172  0.0050  0.3546 -0.1777
 7016WAT     H128784   2.608   0.405   3.214 -1.7306 -0.1381 -1.0559
 7016WAT     H228785   2.689   0.297   3.236  0.3487  1.6612  0.5433
 7016WAT    EPW28786   2.649   0.344   3.188 -0.2006  0.4749 -0.2009
 7017WAT      O28787   1.060   0.272   3.308  0.3404 -0.2073 -0.1770
 7017WAT     H128788   1.020   0.328   3.361 -0.5836 -1.4406  0.4918
 7017WAT     H228789   1.034   0.297   3.228  0.6363  0.8161  0.0348
 7017WAT    EPW28790   1.051   0.284   3.304  0.2476 -0.2383 -0.0469
 7018WAT      O28791   3.889   4.718   2.688 -0.8127  0.2648  0.7122
 7018WAT     H128792   3.884   4.658   2.751 -1.3084 -2.1781 -1.5273
 7018WAT     H228793   3.807   4.727   2.661 -0.4040  0.0780 -0.6287
 7018WAT    EPW28794   3.876   4.711   2.694 -0.8256 -0.1237  0.1833
 7019WAT      O28795   2.514   2.525   1.289  0.7240  0.0174  1.0084
 7019WAT     H128796   2.480   2.603   1.308  1.1570  0.2584  0.8145
 7019WAT     H228797   2.480   2.472   1.350 -0.6099  0.0831  0.3621
 7019WAT    EPW28798   2.504   2.528   1.301  0.5909  0.0627  0.8843
 7020WAT      O28799   4.083   3.528   1.421  0.0297 -0.5363 -0.1498
 7020WAT     H128800   4.014   3.552   1.373 -0.4588  2.4924  1.7874
 7020WAT     H228801   4.151   3.554   1.373 -0.2677 -0.9246 -0.8022
 7020WAT    EPW28802   4.083   3.535   1.407 -0.0864 -0.1463  0.0400
 7021WAT      O28803   0.016   2.951   2.956  0.4231 -0.6156 -0.2569
 7021WAT     H128804   0.085   2.988   2.993  0.0307  0.5743 -0.6589
 7021WAT     H228805   0.018   2.980   2.874  0.5530 -2.1681 -0.8246
 7021WAT    EPW28806   0.026   2.961   2.950  0.3843 -0.6691 -0.4001
 7022WAT      O28807   4.382   2.165   6.988  0.2796  0.2242 -0.5080
 7022WAT     H128808   4.305   2.175   7.028  0.3029  0.7349 -0.5812
 7022WAT     H228809   4.378   2.223   6.923  0.1952 -0.6633 -1.3167
 7022WAT    EPW28810   4.370   2.175   6.984  0.2706  0.1686 -0.6383
 7023WAT      O28811   3.854   0.956   3.245  0.3826  0.0927 -0.0936
 7023WAT     H128812   3.796   0.905   3.205 -0.8817  1.5814 -0.2382
 7023WAT     H228813   3.816   1.034   3.247  2.3972  1.1528 -0.2125
 7023WAT    EPW28814   3.840   0.960   3.240  0.4934  0.4692 -0.1325
 7024WAT      O28815   0.099   2.104   3.172  0.1928 -0.2693 -0.3032
 7024WAT     H128816   0.054   2.060   3.233 -0.9116 -0.2168 -1.0559
 7024WAT     H228817   0.182   2.087   3.192 -0.1662 -0.9038  0.7399
 7024WAT    EPW28818   0.105   2.095   3.184 -0.0234 -0.3553 -0.2603
 7025WAT      O28819   4.847   4.214   0.024 -0.1334 -0.4245 -0.1107
 7025WAT     H128820   4.774   4.185  -0.015 -0.2015  0.1454 -0.4125
 7025WAT     H228821   4.895   4.141   0.032 -0.5714 -0.7386 -0.2645
 7025WAT    EPW28822   4.844   4.199   0.019 -0.2081 -0.3867 -0.1780
 7026WAT      O28823   1.808   4.194   0.537 -0.3105  0.6765 -0.2555
 7026WAT     H128824   1.732   4.236   0.549 -0.6971  0.8211 -2.6763
 7026WAT     H228825   1.841   4.187   0.618 -2.4984  1.3377  0.7722
 7026WAT    EPW28826   1.802   4.199   0.551 -0.6908  0.7955 -0.4613
 7027WAT      O28827   1.821   4.364   5.419  0.5162 -0.3510 -0.2229
 7027WAT     H128828   1.832   4.307   5.484  0.2387 -0.7322 -0.5050
 7027WAT     H228829   1.902   4.389   5.400  0.7039 -1.1765 -0.5571
 7027WAT    EPW28830   1.834   4.359   5.426  0.5029 -0.5293 -0.3139
 7028WAT      O28831   4.427   6.509   0.785 -0.3642  0.0603 -0.1725
 7028WAT     H128832   4.409   6.570   0.724  0.4304 -2.0814 -2.7487
 7028WAT     H228833   4.394   6.436   0.751  1.5599 -1.5593  1.1974
 7028WAT    EPW28834   4.420   6.507   0.771  0.0374 -0.4953 -0.3507
 7029WAT      O28835   2.666   3.562   4.536  0.4707  0.1889  0.3733
 7029WAT     H128836   2.653   3.599   4.458 -0.5652 -1.1563 -0.1258
 7029WAT     H228837   2.650   3.477   4.522 -1.3442  0.1181  2.3851
 7029WAT    EPW28838   2.662   3.555   4.523  0.0496 -0.0203  0.5968
 7030WAT      O28839   6.033   3.726   6.418  0.2268 -0.4607 -0.8543
 7030WAT     H128840   6.106   3.742   6.461  0.7526 -0.3709 -1.7598
 7030WAT     H228841   5.985   3.798   6.429  0.2918 -0.4979 -0.3145
 7030WAT    EPW28842   6.037   3.739   6.426  0.3141 -0.4529 -0.9083
 7031WAT      O28843   1.309   6.117   2.346  0.5010 -0.2840 -0.4581
 7031WAT     H128844   1.287   6.033   2.334 -0.2179  0.0102 -1.3007
 7031WAT     H228845   1.365   6.133   2.281  1.7269 -0.4711  0.5124
 7031WAT    EPW28846   1.314   6.107   2.334  0.5759 -0.2682 -0.4392
 7032WAT      O28847   3.771   1.494   2.893 -0.0539  0.3082 -0.3356
 7032WAT     H128848   3.755   1.560   2.838 -0.1347 -1.9939 -3.3469
 7032WAT     H228849   3.701   1.443   2.885 -0.8779  0.5751  3.3597
 7032WAT    EPW28850   3.758   1.496   2.884 -0.1875  0.0076 -0.2346
 7033WAT      O28851   4.656   3.339   1.864 -0.6585 -0.1812 -0.3437
 7033WAT     H128852   4.699   3.356   1.938 -2.0797 -0.3222  0.5359
 7033WAT     H228853   4.688   3.399   1.808  0.4641 -0.1080  0.3418
 7033WAT    EPW28854   4.667   3.350   1.867 -0.7026 -0.1912 -0.1125
 7034WAT      O28855   5.271   2.526   6.617 -0.2613  0.8244 -0.4171
 7034WAT     H128856   5.317   2.536   6.690 -0.3925 -2.0322  0.1436
 7034WAT     H228857   5.282   2.603   6.576  0.6852  2.1262  2.0504
 7034WAT    EPW28858   5.279   2.539   6.621 -0.1409  0.5947  0.0302
 7035WAT      O28859   4.337   0.293   0.311 -0.3022  0.1900 -0.2823
 7035WAT     H128860   4.340   0.207   0.326  1.2454  0.1014 -0.9046
 7035WAT     H228861   4.363   0.328   0.386 -0.4368  0.0891 -0.1889
 7035WAT    EPW28862   4.341   0.285   0.324 -0.0935  0.1620 -0.3604
 7036WAT      O28863   5.104   0.700   6.064 -0.3911 -0.1782  0.4892
 7036WAT     H128864   5.083   0.654   5.993 -1.1700 -1.5695  1.5585
 7036WAT     H228865   5.028   0.708   6.106  0.3376 -1.1591  2.1162
 7036WAT    EPW28866   5.090   0.694   6.060 -0.3986 -0.5286  0.8875
 7037WAT      O28867   3.106   2.487   5.824  0.7891  0.1570 -0.3196
 7037WAT     H128868   3.106   2.404   5.797 -1.2104  0.6178 -2.0573
 7037WAT     H228869   3.178   2.493   5.872 -0.5219 -3.4248  2.6312
 7037WAT    EPW28870   3.117   2.475   5.827  0.3001 -0.3040 -0.1404
 7038WAT      O28871   6.182   3.173   1.688 -0.0874 -0.1063 -0.0229
 7038WAT     H128872   6.251   3.227   1.690 -0.7018  0.6747  0.1506
 7038WAT     H228873   6.211   3.107   1.638  1.3713 -0.6079  1.3882
 7038WAT    EPW28874   6.197   3.171   1.681  0.0373 -0.0650  0.2112
 7039WAT      O28875   2.623   6.326   2.508 -1.0054 -0.3163  0.5285
 7039WAT     H128876   2.645   6.387   2.450 -1.0357 -1.0526 -0.2965
 7039WAT     H228877   2.614   6.254   2.458 -2.6910 -0.6141  1.1856
 7039WAT    EPW28878   2.625   6.324   2.492 -1.2588 -0.4691  0.5037
 7040WAT      O28879   6.864   2.498   7.185 -0.2425  0.2422 -0.0519
 7040WAT     H128880   6.801   2.486   7.125 -0.1289  1.0637 -0.3453
 7040WAT     H228881   6.821   2.531   7.254 -0.0137  1.7041 -0.5845
 7040WAT    EPW28882   6.848   2.501   7.187 -0.1919  0.5795 -0.1739
 7041WAT      O28883   3.844   2.868   5.068  0.5492  0.2173  1.2057
 7041WAT     H128884   3.907   2.881   5.009  1.5035 -1.8160  1.6554
 7041WAT     H228885   3.772   2.898   5.029  1.4508  0.6431 -0.2111
 7041WAT    EPW28886   3.843   2.874   5.053  0.8233 -0.0202  1.0628
 7042WAT      O28887   6.471   6.677   5.762 -0.0571 -0.1899 -0.0520
 7042WAT     H128888   6.521   6.628   5.815 -0.9800  0.8365  1.8747
 7042WAT     H228889   6.393   6.637   5.767 -0.4788  0.6786  0.4616
 7042WAT    EPW28890   6.467   6.664   5.771 -0.2557  0.0900  0.3085
 7043WAT      O28891   3.292   1.271   7.246 -0.6166  0.4091  0.3082
 7043WAT     H128892   3.341   1.225   7.302  0.7681  0.6882 -0.6330
 7043WAT     H228893   3.325   1.351   7.251  0.3921  0.1825 -1.8012
 7043WAT    EPW28894   3.304   1.276   7.255 -0.2631  0.4168 -0.1424
 7044WAT      O28895   5.255   5.907   1.408 -0.3097  0.3958  0.0067
 7044WAT     H128896   5.295   5.932   1.334  1.5299  1.3735  1.2433
 7044WAT     H228897   5.312   5.852   1.444 -1.5677 -0.7462  0.3178
 7044WAT    EPW28898   5.269   5.903   1.402 -0.2238  0.3715  0.2354
 7045WAT      O28899   6.446   5.747   6.302 -0.1503  0.4567 -0.1160
 7045WAT     H128900   6.392   5.692   6.342 -1.3191  1.3421 -0.4247
 7045WAT     H228901   6.489   5.785   6.367 -1.2762  1.1198  0.2580
 7045WAT    EPW28902   6.444   5.744   6.317 -0.4893  0.6854 -0.1064
 7046WAT      O28903   0.483   1.784   1.533 -0.8599 -0.6595  0.1123
 7046WAT     H128904   0.437   1.775   1.460 -0.3590 -0.3270 -0.2493
 7046WAT     H228905   0.549   1.728   1.523 -0.6453 -0.4243  0.1856
 7046WAT    EPW28906   0.486   1.774   1.521 -0.7542 -0.5756  0.0697
 7047WAT      O28907   5.766   4.244   1.674  0.3451 -0.1839  0.1868
 7047WAT     H128908   5.691   4.268   1.712 -2.4000 -1.2307 -3.8489
 7047WAT     H228909   5.792   4.176   1.721 -2.8281 -1.4984  0.2910
 7047WAT    EPW28910   5.759   4.238   1.686 -0.5292 -0.5327 -0.3939
 7048WAT      O28911   6.471   2.147   0.385  0.1779 -0.1520  0.3891
 7048WAT     H128912   6.478   2.168   0.300  1.9925 -4.4701 -0.8465
 7048WAT     H228913   6.553   2.149   0.413 -0.3066  0.3515  1.8287
 7048WAT    EPW28914   6.484   2.150   0.376  0.3744 -0.7155  0.4193
 7049WAT      O28915   2.185   0.042   1.016  0.1265  0.0281 -0.0047
 7049WAT     H128916   2.171   0.041   1.102 -0.6670  0.3173 -0.1144
 7049WAT     H228917   2.256  -0.007   1.005  0.0858 -0.2133  0.7885
 7049WAT    EPW28918   2.193   0.035   1.027  0.0033  0.0352  0.0963
 7050WAT      O28919   4.449   2.265   1.436 -0.2560  0.0245  0.1901
 7050WAT     H128920   4.431   2.302   1.513  0.3610 -1.7852  1.2701
 7050WAT     H228921   4.396   2.197   1.433  1.2572 -1.2078  0.0646
 7050WAT    EPW28922   4.439   2.261   1.447  0.0587 -0.4249  0.3311
 7051WAT      O28923   2.682   3.836   7.378  0.1328  0.1945  0.3834
 7051WAT     H128924   2.709   3.766   7.424 -2.3376  0.0747  1.8514
 7051WAT     H228925   2.721   3.826   7.301  2.0088 -1.3137  1.4329
 7051WAT    EPW28926   2.692   3.824   7.374  0.0450 -0.0460  0.7553
 7052WAT      O28927   3.025   2.204   5.774 -0.0420 -0.2050  0.1036
 7052WAT     H128928   3.032   2.218   5.688  2.5419 -2.1805 -0.1170
 7052WAT     H228929   2.940   2.188   5.785 -0.7707  1.8446 -1.7129
 7052WAT    EPW28930   3.014   2.204   5.762  0.2321 -0.1941 -0.1974
 7053WAT      O28931   2.788   2.552   1.214 -0.2870  0.2637 -0.1836
 7053WAT     H128932   2.705   2.528   1.227 -0.0411  0.4148  2.2168
 7053WAT     H228933   2.786   2.638   1.227  0.1281  0.3715 -0.8318
 7053WAT    EPW28934   2.776   2.561   1.218 -0.1893  0.3020  0.0752
 7054WAT      O28935   1.345   1.998   1.579  0.1635  0.3761  0.1124
 7054WAT     H128936   1.283   1.970   1.524 -0.2614 -1.5552  1.4505
 7054WAT     H228937   1.414   2.010   1.527 -0.7026  0.3473 -1.0910
 7054WAT    EPW28938   1.346   1.995   1.563 -0.0272  0.0865  0.1323
 7055WAT      O28939   3.368   1.148   2.157  0.1856  0.1054  0.4677
 7055WAT     H128940   3.454   1.131   2.160 -0.0480 -0.9329  2.2289
 7055WAT     H228941   3.333   1.072   2.134 -0.1799  1.1748 -3.2122
 7055WAT    EPW28942   3.376   1.134   2.154  0.0971  0.1100  0.1843
 7056WAT      O28943   6.782   3.333   4.675 -0.2072  0.1011 -0.4829
 7056WAT     H128944   6.741   3.264   4.641 -1.5738  1.3056 -1.3699
 7056WAT     H228945   6.839   3.356   4.613 -2.2250  1.8780 -1.8099
 7056WAT    EPW28946   6.784   3.326   4.661 -0.7071  0.5415 -0.8100
 7057WAT      O28947   6.703   6.740   1.191 -0.1042 -0.3114  0.0307
 7057WAT     H128948   6.747   6.784   1.130 -2.5196  0.1403 -1.5346
 7057WAT     H228949   6.745   6.664   1.196  1.5105  0.4941 -0.4694
 7057WAT    EPW28950   6.716   6.735   1.183 -0.2225 -0.1257 -0.2744
 7058WAT      O28951   4.356   3.546   3.218  0.4430 -0.3641 -0.3893
 7058WAT     H128952   4.299   3.515   3.276  0.2454  0.9505  0.1651
 7058WAT     H228953   4.304   3.581   3.156  0.6546 -1.0951 -0.9895
 7058WAT    EPW28954   4.340   3.547   3.218  0.4451 -0.2779 -0.3961
 7059WAT      O28955   3.997   2.856   4.825  0.4444 -0.3408 -0.6010
 7059WAT     H128956   3.941   2.807   4.779 -0.1284  1.1012 -1.5132
 7059WAT     H228957   4.005   2.929   4.777  2.0843  0.0314  0.1826
 7059WAT    EPW28958   3.990   2.860   4.812  0.6020 -0.0728 -0.6200
 7060WAT      O28959   2.553   2.357   1.929 -0.0356 -0.0632 -0.0516
 7060WAT     H128960   2.553   2.270   1.938 -0.6100  0.0462  1.2260
 7060WAT     H228961   2.590   2.369   1.851  2.0536 -1.3587  0.6477
 7060WAT    EPW28962   2.558   2.346   1.919  0.1882 -0.2384  0.2404
 7061WAT      O28963   3.676   1.532   3.292 -0.8644  1.0367  0.3295
 7061WAT     H128964   3.754   1.534   3.253 -0.6923 -1.4575  0.3747
 7061WAT     H228965   3.694   1.552   3.375  0.0873 -1.0455  0.7041
 7061WAT    EPW28966   3.690   1.535   3.298 -0.6984  0.3606  0.3915
 7062WAT      O28967   4.502   0.304   2.574  0.0324 -0.1023 -0.2044
 7062WAT     H128968   4.466   0.226   2.587 -0.6980  0.0585 -1.1345
 7062WAT     H228969   4.438   0.359   2.595  0.3744  0.2410 -0.0510
 7062WAT    EPW28970   4.487   0.301   2.579 -0.0250 -0.0278 -0.3192
 7063WAT      O28971   6.641   4.185   6.778 -0.9017 -0.2979 -0.2284
 7063WAT     H128972   6.724   4.159   6.769  0.6949  2.5374  3.6828
 7063WAT     H228973   6.627   4.233   6.706  1.0678 -0.3851 -0.7330
 7063WAT    EPW28974   6.651   4.188   6.766 -0.3749  0.1080  0.2748
 7064WAT      O28975   2.402   3.123   2.012  0.5552 -0.6422  0.5175
 7064WAT     H128976   2.457   3.162   1.956 -1.4751  1.8558  0.1135
 7064WAT     H228977   2.431   3.149   2.090  1.0639 -0.9410  0.4374
 7064WAT    EPW28978   2.415   3.132   2.015  0.3304 -0.3173  0.4460
 7065WAT      O28979   2.429   1.312   1.999 -0.1945  0.2205  0.4378
 7065WAT     H128980   2.384   1.379   1.967  0.1722 -0.4548 -1.6498
 7065WAT     H228981   2.390   1.242   1.964  1.5424 -0.4506 -0.2600
 7065WAT    EPW28982   2.417   1.312   1.989  0.1163  0.0216  0.0263
 7066WAT      O28983   4.981   2.993   3.757 -0.2470 -0.0187  0.2435
 7066WAT     H128984   4.918   3.052   3.768  1.2428  1.9400 -1.1795
 7066WAT     H228985   5.001   2.998   3.673  0.6634 -1.8672  0.2808
 7066WAT    EPW28986   4.975   3.002   3.746  0.1076 -0.0024  0.0388
 7067WAT      O28987   3.726   5.452   0.327 -0.3032 -0.5065  0.0166
 7067WAT     H128988   3.752   5.390   0.383 -0.1485 -0.7348 -0.3097
 7067WAT     H228989   3.695   5.407   0.259  0.8562 -0.2221 -0.7165
 7067WAT    EPW28990   3.725   5.436   0.325 -0.1091 -0.4982 -0.1399
 7068WAT      O28991   3.354   1.561   7.237  0.3113  0.1796 -0.2556
 7068WAT     H128992   3.315   1.585   7.163  1.6566  1.2131 -0.6665
 7068WAT     H228993   3.296   1.581   7.299 -0.8324 -0.7019 -1.0131
 7068WAT    EPW28994   3.340   1.567   7.236  0.3411  0.2021 -0.4282
 7069WAT      O28995   3.718   6.689   5.370  0.4776 -0.3284 -0.1800
 7069WAT     H128996   3.652   6.735   5.405  0.7266 -0.7995  0.9599
 7069WAT     H228997   3.767   6.668   5.439  2.2486  0.6463 -1.0702
 7069WAT    EPW28998   3.715   6.693   5.386  0.7760 -0.2540 -0.1431
 7070WAT      O28999   5.086   6.448   6.014 -0.2009  0.0933  0.0341
 7070WAT     H129000   5.030   6.470   6.078  0.1371  1.3285 -0.0729
 7070WAT     H229001   5.084   6.517   5.961  0.2733 -0.5068 -0.7820
 7070WAT    EPW29002   5.077   6.462   6.016 -0.0809  0.1871 -0.1023
 7071WAT      O29003   2.072   1.717   6.002 -0.0782  0.0320 -0.0402
 7071WAT     H129004   2.070   1.781   5.943 -1.0893 -0.6172 -0.7468
 7071WAT     H229005   2.033   1.651   5.962 -0.9510 -0.3893  1.4184
 7071WAT    EPW29006   2.066   1.717   5.988 -0.3565 -0.1261  0.0709
 7072WAT      O29007   7.113   6.319   6.524 -0.4451 -0.1522 -0.3976
 7072WAT     H129008   7.157   6.248   6.547 -0.2151  0.1496  0.1146
 7072WAT     H229009   7.092   6.304   6.441 -0.1561 -0.6931 -0.3775
 7072WAT    EPW29010   7.117   6.307   6.515 -0.3684 -0.1875 -0.3190
 7073WAT      O29011   0.341   6.308   1.474 -0.0904  0.8926 -0.4035
 7073WAT     H129012   0.367   6.390   1.466  0.8099  0.7598  0.8740
 7073WAT     H229013   0.401   6.263   1.430 -1.4914  0.9866 -2.5588
 7073WAT    EPW29014   0.353   6.313   1.467 -0.1644  0.8868 -0.5331
 7074WAT      O29015   1.357   5.916   1.487  0.2865  0.3951  0.1715
 7074WAT     H129016   1.442   5.901   1.504  0.2268  0.5028  0.5912
 7074WAT     H229017   1.327   5.949   1.562 -0.0436  0.7178 -0.0980
 7074WAT    EPW29018   1.365   5.919   1.501  0.2289  0.4587  0.1937
 7075WAT      O29019   3.551   3.370   4.239  0.5457  0.2820 -0.6411
 7075WAT     H129020   3.588   3.426   4.295  1.0275 -0.9696  0.3314
 7075WAT     H229021   3.487   3.333   4.285  1.2870 -1.1568 -0.7001
 7075WAT    EPW29022   3.547   3.373   4.254  0.7264 -0.1154 -0.5062
 7076WAT      O29023   1.197   0.723   5.401  0.1032 -1.1147  0.6774
 7076WAT     H129024   1.237   0.645   5.401  0.0079 -1.1638  0.7138
 7076WAT     H229025   1.113   0.702   5.408 -0.1192 -1.1151 -1.4549
 7076WAT    EPW29026   1.191   0.708   5.402  0.0563 -1.1220  0.3678
 7077WAT      O29027   5.730   1.316   2.999  0.1455 -0.5841  0.3383
 7077WAT     H129028   5.752   1.360   3.071  1.2149  0.8232 -0.7991
 7077WAT     H229029   5.685   1.374   2.952 -2.4786 -2.1233  0.7304
 7077WAT    EPW29030   5.727   1.331   3.003 -0.0841 -0.6036  0.2282
 7078WAT      O29031   4.602   4.784   3.941 -0.8710 -0.0110  0.6817
 7078WAT     H129032   4.669   4.820   3.898 -0.6561 -0.3546  0.7190
 7078WAT     H229033   4.548   4.761   3.877 -1.3426  1.0178  0.7006
 7078WAT    EPW29034   4.604   4.786   3.925 -0.9089  0.0902  0.6900
 7079WAT      O29035   3.560   6.944   7.268  0.3135 -0.4460  0.0537
 7079WAT     H129036   3.485   6.904   7.247  1.2578 -1.0626 -2.6139
 7079WAT     H229037   3.541   7.029   7.260 -0.4812 -0.5168  1.0042
 7079WAT    EPW29038   3.546   6.951   7.264  0.3356 -0.5475 -0.1999
 7080WAT      O29039   4.909   6.231   5.547  0.5067 -0.2908  0.2589
 7080WAT     H129040   4.934   6.285   5.483  0.1639 -0.7561 -0.2694
 7080WAT     H229041   4.893   6.286   5.614 -0.4209  0.3372 -0.4467
 7080WAT    EPW29042   4.910   6.247   5.548  0.3190 -0.2668  0.0766
 7081WAT      O29043   0.644   4.709   2.909 -0.1541 -0.3355  0.2991
 7081WAT     H129044   0.666   4.787   2.875 -0.7139 -0.5628 -0.6085
 7081WAT     H229045   0.695   4.653   2.865 -1.5857 -0.7361 -0.9445
 7081WAT    EPW29046   0.655   4.713   2.897 -0.4483 -0.4283 -0.0187
 7082WAT      O29047   6.458   4.261   2.546 -0.8370  0.4183  0.3599
 7082WAT     H129048   6.395   4.209   2.515 -0.1100 -1.0108  1.1482
 7082WAT     H229049   6.430   4.281   2.626  0.1621 -1.1693  1.1659
 7082WAT    EPW29050   6.445   4.256   2.554 -0.5821 -0.0273  0.5954
 7083WAT      O29051   4.842   6.150   2.439 -0.3782 -0.5461  0.1719
 7083WAT     H129052   4.920   6.112   2.433 -0.9286 -1.4418 -3.3712
 7083WAT     H229053   4.860   6.235   2.428  0.2830 -0.3067  2.4956
 7083WAT    EPW29054   4.856   6.157   2.437 -0.3619 -0.6430 -0.0082
 7084WAT      O29055   5.152   6.149   0.611  0.0579  0.2731  0.1950
 7084WAT     H129056   5.130   6.194   0.540 -1.6589  0.5796  0.8512
 7084WAT     H229057   5.177   6.071   0.579 -1.4515  0.1233 -0.7426
 7084WAT    EPW29058   5.152   6.144   0.596 -0.4187  0.2962  0.1534
 7085WAT      O29059   3.850   4.679   2.954 -0.2517 -0.3736  0.1561
 7085WAT     H129060   3.813   4.757   2.964  0.8000 -0.1067  3.2839
 7085WAT     H229061   3.888   4.664   3.032  1.0146 -3.2665 -0.8473
 7085WAT    EPW29062   3.850   4.688   2.967  0.0907 -0.7616  0.4700
 7086WAT      O29063   6.361   7.085   6.167 -0.0967 -0.7022  0.3002
 7086WAT     H129064   6.369   7.124   6.089  0.4270  0.0241  0.7093
 7086WAT     H229065   6.290   7.035   6.157 -1.9296  1.6866  0.2665
 7086WAT    EPW29066   6.351   7.084   6.154 -0.2901 -0.2420  0.3556
 7087WAT      O29067   5.612   5.472   4.649  0.6210 -0.2347 -0.1548
 7087WAT     H129068   5.615   5.459   4.735 -1.0826 -0.7210 -0.1369
 7087WAT     H229069   5.579   5.553   4.641 -2.3494 -1.3151 -0.2767
 7087WAT    EPW29070   5.607   5.482   4.660 -0.0695 -0.4661 -0.1701
 7088WAT      O29071   3.807   4.324   2.464  0.0238  0.4384 -0.3073
 7088WAT     H129072   3.888   4.300   2.440  0.0224  1.0301 -0.9408
 7088WAT     H229073   3.790   4.273   2.532  0.1811 -1.0319 -1.3206
 7088WAT    EPW29074   3.817   4.313   2.470  0.0468  0.3086 -0.5506
 7089WAT      O29075   1.039   0.314   1.916  0.4064 -0.1050 -0.1847
 7089WAT     H129076   0.964   0.302   1.960  0.4796  1.8677  0.5577
 7089WAT     H229077   1.032   0.258   1.850 -2.1722  0.6219 -0.6459
 7089WAT    EPW29078   1.027   0.304   1.913  0.0363  0.2938 -0.1432
 7090WAT      O29079   0.890   6.523   0.155 -0.0837 -0.2029 -0.5298
 7090WAT     H129080   0.890   6.604   0.187 -0.6000 -0.5770  0.4572
 7090WAT     H229081   0.952   6.482   0.203  0.0311 -0.4479 -0.8792
 7090WAT    EPW29082   0.899   6.529   0.167 -0.1430 -0.2944 -0.4356
 7091WAT      O29083   1.703   6.710   4.946  0.2950  0.2332  1.0648
 7091WAT     H129084   1.684   6.679   4.867  1.3429  0.4851  0.6869
 7091WAT     H229085   1.776   6.757   4.933 -0.3460  1.5306  1.9039
 7091WAT    EPW29086   1.711   6.712   4.933  0.3551  0.4621  1.1329
 7092WAT      O29087   4.334   2.053   3.151 -0.0767 -0.2109 -0.8182
 7092WAT     H129088   4.318   2.134   3.122 -0.6274  0.9241  2.3074
 7092WAT     H229089   4.394   2.065   3.213  0.1298 -2.2975 -0.5481
 7092WAT    EPW29090   4.340   2.067   3.156 -0.1275 -0.3515 -0.3165
 7093WAT      O29091   0.090   7.044   6.734  0.1187  0.3010  0.1648
 7093WAT     H129092   0.076   7.019   6.651 -0.5894 -0.2418  0.4319
 7093WAT     H229093   0.085   7.131   6.731  1.1810  0.3507 -0.5449
 7093WAT    EPW29094   0.087   7.053   6.721  0.1710  0.2282  0.0994
 7094WAT      O29095   5.082   6.064   2.393 -0.1788 -0.2589  0.0382
 7094WAT     H129096   5.134   5.994   2.399  0.6844  0.3859  0.1925
 7094WAT     H229097   5.133   6.130   2.418 -1.6457  0.1446  2.2300
 7094WAT    EPW29098   5.097   6.063   2.397 -0.2680 -0.1040  0.3848
 7095WAT      O29099   5.366   4.610   0.469  0.1334 -0.4041 -0.3641
 7095WAT     H129100   5.400   4.620   0.390  1.1190 -0.6725  0.0113
 7095WAT     H229101   5.429   4.638   0.522 -1.3892  2.1609  0.2893
 7095WAT    EPW29102   5.380   4.616   0.465  0.0541 -0.0648 -0.2121
 7096WAT      O29103   7.048   6.220   2.431 -0.5257  0.2909 -0.0694
 7096WAT     H129104   7.108   6.246   2.374  0.4466 -0.9178  0.3570
 7096WAT     H229105   6.993   6.171   2.384 -0.1864 -0.0324 -0.1300
 7096WAT    EPW29106   7.049   6.217   2.416 -0.3319  0.0646 -0.0154
 7097WAT      O29107   1.618   3.179   6.824  0.6875  0.4761 -0.4835
 7097WAT     H129108   1.660   3.180   6.901 -0.2726 -4.6038  0.4304
 7097WAT     H229109   1.679   3.153   6.768  0.7361  1.5830 -0.9668
 7097WAT    EPW29110   1.633   3.176   6.827  0.5528 -0.1108 -0.4199
 7098WAT      O29111   2.990   5.476   2.833  0.9627  0.1045  0.0021
 7098WAT     H129112   2.974   5.392   2.853 -0.4140  0.1539 -0.7850
 7098WAT     H229113   2.991   5.515   2.911  2.6429 -0.7736  0.4704
 7098WAT    EPW29114   2.988   5.469   2.847  1.0076 -0.0179 -0.0450
 7099WAT      O29115   6.251   4.482   2.011 -0.1916 -0.7953 -0.1872
 7099WAT     H129116   6.297   4.426   2.060 -1.7063 -1.6844  0.2973
 7099WAT     H229117   6.223   4.434   1.945 -0.9474 -0.4546 -0.1299
 7099WAT    EPW29118   6.253   4.467   2.009 -0.5270 -0.8763 -0.1071
 7100WAT      O29119   1.252   0.241   2.135  0.0895 -0.6789  0.0327
 7100WAT     H129120   1.249   0.271   2.053  0.1024  2.4044  1.0473
 7100WAT     H229121   1.168   0.230   2.156 -0.0299  0.4998  0.2245
 7100WAT    EPW29122   1.239   0.243   2.126  0.0737 -0.0493  0.2109
 7101WAT      O29123   1.528   6.103   4.491  0.4982 -0.5314  0.1058
 7101WAT     H129124   1.443   6.114   4.475 -0.0908 -2.4934  1.5561
 7101WAT     H229125   1.530   6.078   4.575  2.5603 -0.1483  0.2174
 7101WAT    EPW29126   1.516   6.101   4.501  0.7158 -0.7646  0.3365
 7102WAT      O29127   1.051   5.832   7.263  0.0404  0.0425  0.2190
 7102WAT     H129128   1.067   5.785   7.334 -0.8994 -2.2982 -1.0090
 7102WAT     H229129   1.018   5.774   7.207 -0.5148  2.0492 -1.6774
 7102WAT    EPW29130   1.048   5.816   7.265 -0.1804 -0.0069 -0.2426
 7103WAT      O29131   2.519   3.017   5.017 -0.6491  0.2234 -0.0381
 7103WAT     H129132   2.521   3.072   4.949 -0.8407  0.8442  0.4516
 7103WAT     H229133   2.549   3.066   5.083  0.4012 -0.6350  0.1443
 7103WAT    EPW29134   2.524   3.033   5.017 -0.5222  0.1883  0.0612
 7104WAT      O29135   6.613   3.562   6.968 -0.2606  0.2222  0.0838
 7104WAT     H129136   6.579   3.625   6.917 -2.1903 -0.6899  0.1767
 7104WAT     H229137   6.628   3.603   7.044 -1.6394  0.5620  0.1916
 7104WAT    EPW29138   6.610   3.578   6.972 -0.7493  0.1376  0.1135
 7105WAT      O29139   6.496   6.218   5.411 -0.4329  0.5424 -0.2606
 7105WAT     H129140   6.518   6.134   5.416  0.5958  0.8005 -0.2412
 7105WAT     H229141   6.444   6.230   5.481 -0.4671 -0.0353 -0.1831
 7105WAT    EPW29142   6.492   6.208   5.422 -0.2860  0.4952 -0.2463
 7106WAT      O29143   5.443   7.007   4.684  0.0402 -0.3160 -0.1122
 7106WAT     H129144   5.396   6.966   4.622  0.9326  0.1437 -1.1224
 7106WAT     H229145   5.524   7.004   4.653  0.2314  1.6094  0.0962
 7106WAT    EPW29146   5.448   7.000   4.670  0.2003  0.0363 -0.2306
 7107WAT      O29147   2.329   0.016   6.730 -0.0644 -0.1079  0.5668
 7107WAT     H129148   2.406   0.056   6.736 -1.0899  2.2303 -0.6759
 7107WAT     H229149   2.301   0.037   6.650 -2.1825 -0.5437  1.1485
 7107WAT    EPW29150   2.336   0.025   6.719 -0.5287  0.1731  0.4692
 7108WAT      O29151   7.261   3.051   1.102  0.2229 -0.0404  0.4685
 7108WAT     H129152   7.185   3.041   1.061  0.5334  1.9397 -0.7596
 7108WAT     H229153   7.290   2.969   1.112 -1.5001 -0.7681 -0.0866
 7108WAT    EPW29154   7.254   3.037   1.097  0.0142  0.1446  0.2051
 7109WAT      O29155   6.290   1.111   6.622 -0.1419 -0.3148  0.2556
 7109WAT     H129156   6.354   1.122   6.681  0.2862 -1.7947  0.1250
 7109WAT     H229157   6.222   1.086   6.670 -0.2873  0.1440  0.2869
 7109WAT    EPW29158   6.289   1.109   6.638 -0.1002 -0.4656  0.2409
 7110WAT      O29159   3.014   0.329   6.710 -0.0320 -0.4960 -0.0651
 7110WAT     H129160   2.997   0.261   6.658 -1.3195 -0.5406  0.3792
 7110WAT     H229161   3.095   0.353   6.687  0.5290 -2.2976 -0.0741
 7110WAT    EPW29162   3.023   0.323   6.699 -0.1393 -0.7687 -0.0008
 7111WAT      O29163   1.893   4.768   4.130  0.0978 -0.0675  0.1635
 7111WAT     H129164   1.930   4.779   4.052 -0.4230  2.9055  0.2210
 7111WAT     H229165   1.941   4.705   4.167  2.8869  1.1631 -1.0645
 7111WAT    EPW29166   1.906   4.761   4.124  0.4329  0.5534 -0.0094
 7112WAT      O29167   1.750   0.464   6.189  0.2798 -0.2878 -0.7031
 7112WAT     H129168   1.797   0.420   6.247  1.9426  0.9372 -1.0404
 7112WAT     H229169   1.804   0.527   6.162 -1.9981  2.1486 -0.0836
 7112WAT    EPW29170   1.765   0.467   6.193  0.1889  0.2531 -0.6614
 7113WAT      O29171   7.238   3.411   6.475 -0.1240  0.2616  0.2825
 7113WAT     H129172   7.307   3.463   6.476  0.1289 -0.0745  0.8428
 7113WAT     H229173   7.185   3.445   6.535 -0.2764  0.2818  0.1406
 7113WAT    EPW29174   7.240   3.423   6.484 -0.1092  0.2150  0.3443
 7114WAT      O29175   7.118   5.860   2.667  0.2161 -0.4035  0.8096
 7114WAT     H129176   7.113   5.772   2.666 -0.5849 -0.4163 -1.7782
 7114WAT     H229177   7.049   5.884   2.619  0.4161  1.6728  1.4932
 7114WAT    EPW29178   7.107   5.850   2.660  0.1273 -0.0987  0.5283
 7115WAT      O29179   3.926   1.888   3.633 -0.1043 -0.0251 -0.2918
 7115WAT     H129180   3.884   1.874   3.557  0.1783 -1.8497 -0.1375
 7115WAT     H229181   3.873   1.945   3.674 -2.0163 -1.5541 -0.4830
 7115WAT    EPW29182   3.912   1.895   3.628 -0.3450 -0.5205 -0.2972
 7116WAT      O29183   6.035   5.425   4.480 -0.6302  0.1871 -0.3961
 7116WAT     H129184   5.960   5.389   4.455 -1.0121  1.7223 -1.6646
 7116WAT     H229185   6.061   5.376   4.547 -3.2718  0.2347  0.7584
 7116WAT    EPW29186   6.028   5.412   4.486 -1.0768  0.4209 -0.4130
 7117WAT      O29187   1.497   5.863   6.381 -0.4108 -0.2193 -0.3617
 7117WAT     H129188   1.444   5.879   6.448 -0.3872 -0.5537 -0.2606
 7117WAT     H229189   1.575   5.890   6.408 -0.3781 -0.4638 -0.2060
 7117WAT    EPW29190   1.501   5.869   6.395 -0.4025 -0.3049 -0.3238
 7118WAT      O29191   6.106   4.389   7.139 -0.3128  0.1336  0.2780
 7118WAT     H129192   6.047   4.444   7.174 -0.7910 -0.8906  1.1444
 7118WAT     H229193   6.118   4.330   7.202  0.0292 -0.8806 -0.7122
 7118WAT    EPW29194   6.099   4.389   7.154 -0.3329 -0.1675  0.2597
 7119WAT      O29195   3.833   5.193   1.754 -0.2585  0.0996  0.1247
 7119WAT     H129196   3.887   5.252   1.720  1.4975 -1.1634  0.5572
 7119WAT     H229197   3.796   5.235   1.820 -0.4565  1.2606 -0.6947
 7119WAT    EPW29198   3.836   5.208   1.758 -0.0283  0.0846  0.0676
 7120WAT      O29199   0.304   6.232   1.759  0.4162  0.6633  0.1027
 7120WAT     H129200   0.295   6.238   1.672  1.2746  0.9261  0.0182
 7120WAT     H229201   0.295   6.146   1.774  0.9051  0.5314 -0.3347
 7120WAT    EPW29202   0.301   6.220   1.748  0.6152  0.6826  0.0256
 7121WAT      O29203   6.031   2.766   0.904  0.3065  0.8568  0.1282
 7121WAT     H129204   5.970   2.765   0.966 -1.5656  1.3546 -1.5769
 7121WAT     H229205   6.094   2.715   0.936 -1.9462 -1.5219  1.1471
 7121WAT    EPW29206   6.031   2.758   0.918 -0.3028  0.5790  0.0269
 7122WAT      O29207   3.362   5.567   6.699 -0.1870 -0.8448  0.3613
 7122WAT     H129208   3.364   5.640   6.747  0.5138 -0.0808 -0.7548
 7122WAT     H229209   3.430   5.577   6.645 -0.3945 -2.0918 -0.1602
 7122WAT    EPW29210   3.372   5.579   6.698 -0.1141 -0.9161  0.1194
 7123WAT      O29211   6.977   2.771   1.086 -0.5675 -0.1344 -0.9061
 7123WAT     H129212   6.932   2.717   1.035 -0.4678 -0.9779 -0.1368
 7123WAT     H229213   6.966   2.849   1.049  0.5114 -0.8522 -2.9161
 7123WAT    EPW29214   6.969   2.775   1.073 -0.3934 -0.3651 -1.0894
 7124WAT      O29215   7.195   1.774   6.640  0.2051  0.7802  0.4392
 7124WAT     H129216   7.230   1.789   6.562  2.5200  1.6199  1.5349
 7124WAT     H229217   7.255   1.806   6.696 -0.5180 -1.3628  2.6133
 7124WAT    EPW29218   7.209   1.781   6.637  0.4402  0.5877  0.9222
 7125WAT      O29219   4.460   4.058   2.296  0.1972  0.3574  0.1457
 7125WAT     H129220   4.453   4.120   2.235  2.2924  1.4583  0.9055
 7125WAT     H229221   4.534   4.017   2.275 -0.0735 -0.5235  0.8376
 7125WAT    EPW29222   4.470   4.061   2.284  0.4667  0.3899  0.3602
 7126WAT      O29223   0.566   1.644   3.162 -0.1344  0.0426  0.2645
 7126WAT     H129224   0.632   1.638   3.105 -0.0667  0.2615  0.3216
 7126WAT     H229225   0.508   1.694   3.120 -1.3211 -2.0686 -0.8176
 7126WAT    EPW29226   0.567   1.651   3.147 -0.2997 -0.2369  0.1131
 7127WAT      O29227   3.278   0.728   3.986  0.0433 -0.2093  0.2123
 7127WAT     H129228   3.312   0.648   3.982  0.1750 -0.2334  1.4025
 7127WAT     H229229   3.192   0.714   3.999 -0.2693 -0.1456 -1.6070
 7127WAT    EPW29230   3.270   0.714   3.988  0.0166 -0.2035  0.1194
 7128WAT      O29231   1.424   2.627   3.770  0.0117  0.3702 -0.4992
 7128WAT     H129232   1.435   2.543   3.790  0.6339  0.9639  2.1453
 7128WAT     H229233   1.489   2.645   3.715 -0.4009 -0.9437 -1.4546
 7128WAT    EPW29234   1.435   2.618   3.765  0.0426  0.2639 -0.2497
 7129WAT      O29235   1.378   7.113   6.109  0.2046  0.1291 -0.0684
 7129WAT     H129236   1.312   7.169   6.105  1.0299  1.0845 -0.7058
 7129WAT     H229237   1.439   7.149   6.058  1.3524 -0.5494  0.7806
 7129WAT    EPW29238   1.377   7.126   6.101  0.4961  0.1700 -0.0371
 7130WAT      O29239   6.719   1.194   0.481 -0.0169  0.1591  0.1178
 7130WAT     H129240   6.634   1.172   0.481 -0.2148  0.8558  0.5746
 7130WAT     H229241   6.757   1.133   0.432 -0.2934 -2.0473  2.4484
 7130WAT    EPW29242   6.712   1.182   0.474 -0.0870 -0.0639  0.5296
 7131WAT      O29243   2.760   6.184   7.123  0.9178 -0.3324  0.0404
 7131WAT     H129244   2.725   6.210   7.048  2.9385 -1.5064 -1.3744
 7131WAT     H229245   2.792   6.258   7.157 -2.6876  0.7903  1.3986
 7131WAT    EPW29246   2.760   6.199   7.117  0.6837 -0.3400  0.0320
 7132WAT      O29247   2.401   4.344   1.145  0.6854 -0.5997 -0.0344
 7132WAT     H129248   2.426   4.265   1.173 -0.6020 -0.6360  1.0881
 7132WAT     H229249   2.449   4.398   1.194  0.8223 -0.6709 -0.0868
 7132WAT    EPW29250   2.412   4.340   1.156  0.5154 -0.6156  0.1237
 7133WAT      O29251   1.085   2.173   1.161  0.1297 -0.1644  0.5820
 7133WAT     H129252   1.124   2.117   1.215 -0.3013 -1.1971 -0.1414
 7133WAT     H229253   1.018   2.127   1.129 -0.3569  0.8389  0.1201
 7133WAT    EPW29254   1.081   2.158   1.164 -0.0059 -0.1688  0.4069
 7134WAT      O29255   0.082   4.352   0.130  0.2729 -0.2609 -0.2281
 7134WAT     H129256   0.128   4.359   0.056  3.3374 -0.8210  1.4550
 7134WAT     H229257   0.118   4.283   0.170 -0.2276  0.8927  2.4461
 7134WAT    EPW29258   0.094   4.343   0.125  0.6516 -0.1733  0.4156
 7135WAT      O29259   2.607   2.367   0.674  1.3046 -0.0833  0.3207
 7135WAT     H129260   2.577   2.433   0.722 -1.3408  0.6167 -2.0128
 7135WAT     H229261   2.538   2.315   0.664  1.6918 -0.2444 -2.4879
 7135WAT    EPW29262   2.592   2.369   0.680  0.9710 -0.0037 -0.4389
 7136WAT      O29263   7.091   2.377   7.338  0.1083  0.1126  0.5789
 7136WAT     H129264   7.112   2.325   7.271 -1.8268 -2.8122  2.0149
 7136WAT     H229265   7.042   2.439   7.301  0.7424 -0.2529 -0.9543
 7136WAT    EPW29266   7.087   2.378   7.323 -0.0839 -0.3734  0.5645
 7137WAT      O29267   1.038   3.849   4.676  0.0835  0.3831 -0.3255
 7137WAT     H129268   1.068   3.926   4.705  0.3610  0.2846 -0.3447
 7137WAT     H229269   0.978   3.827   4.735  3.5185 -1.8564  2.7790
 7137WAT    EPW29270   1.034   3.857   4.689  0.6319  0.0377  0.1302
 7138WAT      O29271   2.764   3.700   0.205 -0.0509  0.0902  0.0195
 7138WAT     H129272   2.716   3.739   0.266 -0.9895 -1.2330  0.1804
 7138WAT     H229273   2.840   3.741   0.210 -1.1944  2.4647 -0.4184
 7138WAT    EPW29274   2.768   3.712   0.215 -0.3584  0.2455 -0.0214
 7139WAT      O29275   0.173   4.458   5.909 -0.7889 -0.6494 -0.1594
 7139WAT     H129276   0.106   4.405   5.892 -1.7702  0.7424 -0.7948
 7139WAT     H229277   0.152   4.532   5.868  1.0805 -0.1234 -0.2703
 7139WAT    EPW29278   0.160   4.461   5.900 -0.6577 -0.3661 -0.2696
 7140WAT      O29279   4.868   4.117   6.259  0.2886 -0.2158  0.2073
 7140WAT     H129280   4.938   4.157   6.293 -0.3664  0.9688  0.2055
 7140WAT     H229281   4.824   4.181   6.220 -1.1374 -0.8022  0.7744
 7140WAT    EPW29282   4.872   4.132   6.258 -0.0188 -0.1274  0.2908
 7141WAT      O29283   3.887   6.434   0.768  0.6390  0.0859 -0.7213
 7141WAT     H129284   3.801   6.421   0.780  0.7680  1.1230  1.9634
 7141WAT     H229285   3.890   6.479   0.694 -1.2436  0.8182 -0.4127
 7141WAT    EPW29286   3.875   6.439   0.759  0.3800  0.3473 -0.2792
 7142WAT      O29287   5.071   4.673   5.744 -0.2340 -0.2479 -0.0757
 7142WAT     H129288   5.083   4.728   5.677  0.3582 -2.0222 -1.5380
 7142WAT     H229289   4.987   4.686   5.767 -0.1937  1.0112 -0.5725
 7142WAT    EPW29290   5.060   4.683   5.737 -0.1405 -0.3240 -0.3651
 7143WAT      O29291   5.997   1.367   6.809  0.0452  0.2329  0.6247
 7143WAT     H129292   6.078   1.385   6.780 -1.0105  1.3187 -1.9060
 7143WAT     H229293   5.970   1.303   6.756 -1.2868  0.8961  0.4660
 7143WAT    EPW29294   6.005   1.360   6.797 -0.3075  0.4912  0.2274
 7144WAT      O29295   7.284   2.610   2.467  0.1744  0.1701 -0.0252
 7144WAT     H129296   7.258   2.564   2.537 -0.8812  1.8644  0.7771
 7144WAT     H229297   7.369   2.592   2.461  0.3810  0.2531  1.9648
 7144WAT    EPW29298   7.293   2.601   2.477  0.0490  0.4327  0.3873
 7145WAT      O29299   6.030   0.808   5.974 -0.0688 -0.0476 -0.3381
 7145WAT     H129300   6.052   0.852   6.046  1.0243 -1.9746  0.6145
 7145WAT     H229301   5.944   0.816   5.970 -0.0448  0.8664  0.6776
 7145WAT    EPW29302   6.021   0.815   5.984  0.0962 -0.1972 -0.0474
 7146WAT      O29303   6.918   2.626   3.207 -0.2448  0.3828 -0.1918
 7146WAT     H129304   6.911   2.609   3.121  1.2041  0.8627 -0.4328
 7146WAT     H229305   6.995   2.667   3.213  1.1587 -2.2749  1.7272
 7146WAT    EPW29306   6.928   2.630   3.195  0.1766  0.0611  0.0561
 7147WAT      O29307   6.259   2.482   0.756  0.0208  0.7243  0.4790
 7147WAT     H129308   6.288   2.535   0.819 -0.6018  0.4143  1.0347
 7147WAT     H229309   6.177   2.508   0.742  0.6667  1.9603 -1.4788
 7147WAT    EPW29310   6.252   2.494   0.763  0.0242  0.8611  0.2719
 7148WAT      O29311   1.748   0.416   0.680 -0.3109  0.0556 -0.4203
 7148WAT     H129312   1.697   0.385   0.744  2.2876 -0.2522  1.6871
 7148WAT     H229313   1.787   0.345   0.647 -1.3410  0.2485 -2.1796
 7148WAT    EPW29314   1.746   0.401   0.685 -0.0792  0.0386 -0.3689
 7149WAT      O29315   4.390   2.562   5.169  0.3146  0.2760  0.2913
 7149WAT     H129316   4.429   2.504   5.222 -0.6796  0.6698  1.5013
 7149WAT     H229317   4.402   2.529   5.089  2.4961  0.0300  0.6635
 7149WAT    EPW29318   4.398   2.549   5.165  0.4900  0.2979  0.5250
 7150WAT      O29319   3.088   2.894   3.370 -0.5688  0.1890 -0.3289
 7150WAT     H129320   3.152   2.935   3.413  2.1817 -2.8185 -1.1614
 7150WAT     H229321   3.053   2.840   3.430 -0.5808  0.0105 -0.4945
 7150WAT    EPW29322   3.092   2.892   3.385 -0.1643 -0.2816 -0.4763
 7151WAT      O29323   1.015   4.260   5.870  0.6066 -0.1668  0.2526
 7151WAT     H129324   0.939   4.242   5.831  0.2659 -0.5258  1.0699
 7151WAT     H229325   1.008   4.222   5.948  1.7129 -0.4053  0.2617
 7151WAT    EPW29326   1.003   4.252   5.876  0.7197 -0.2551  0.3747
 7152WAT      O29327   1.764   3.400   4.127  0.0782  0.5364 -0.0462
 7152WAT     H129328   1.771   3.332   4.072  1.3498 -0.6777  1.5122
 7152WAT     H229329   1.707   3.372   4.187 -1.1108  1.7547 -0.5679
 7152WAT    EPW29330   1.757   3.385   4.128  0.0904  0.5370  0.1070
 7153WAT      O29331   4.211   7.012   6.481 -0.8902  0.5409  0.1484
 7153WAT     H129332   4.234   7.048   6.405 -0.9870  1.7442  0.6621
 7153WAT     H229333   4.218   6.927   6.466 -1.0173  0.7448 -1.2439
 7153WAT    EPW29334   4.215   7.005   6.468 -0.9233  0.7487  0.0186
 7154WAT      O29335   2.050   3.713   7.249 -0.1470 -0.0724  0.2018
 7154WAT     H129336   2.122   3.708   7.298 -0.0673 -0.4748  0.0469
 7154WAT     H229337   2.078   3.693   7.169 -0.3203  0.3622  0.0298
 7154WAT    EPW29338   2.065   3.709   7.245 -0.1608 -0.0676  0.1535
 7155WAT      O29339   6.236   5.199   7.148 -0.5415  0.1355 -0.0606
 7155WAT     H129340   6.263   5.252   7.084  3.0396  0.9449  1.8541
 7155WAT     H229341   6.238   5.120   7.111  2.1169  0.4862 -0.9338
 7155WAT    EPW29342   6.240   5.195   7.133  0.3802  0.3069  0.0933
 7156WAT      O29343   6.642   1.439   0.899 -0.5119 -0.3097 -0.1000
 7156WAT     H129344   6.589   1.378   0.932 -0.4347 -1.0865 -1.3202
 7156WAT     H229345   6.605   1.460   0.823 -1.5627  2.5898  1.0622
 7156WAT    EPW29346   6.629   1.433   0.892 -0.6557  0.0039 -0.1086
 7157WAT      O29347   0.062   5.998   4.179  0.0775  0.5624  0.1291
 7157WAT     H129348   0.101   6.029   4.107  0.2627 -3.1400 -1.5992
 7157WAT     H229349   0.117   5.936   4.206 -1.9400 -0.9211  1.0187
 7157WAT    EPW29350   0.076   5.994   4.172 -0.1932 -0.2037  0.0052
 7158WAT      O29351   5.104   3.635   2.256 -0.5053  0.2494 -0.2457
 7158WAT     H129352   5.155   3.649   2.325  1.2583 -0.8862 -1.2376
 7158WAT     H229353   5.033   3.597   2.289  0.4936 -0.6609  0.8956
 7158WAT    EPW29354   5.101   3.631   2.271 -0.0972 -0.0528 -0.2236
 7159WAT      O29355   4.571   5.865   0.280  0.4119  0.7139 -0.5520
 7159WAT     H129356   4.653   5.849   0.305  0.4903  2.0046  0.1502
 7159WAT     H229357   4.576   5.945   0.245 -0.4511  0.5951 -0.9720
 7159WAT    EPW29358   4.584   5.875   0.278  0.2960  0.8870 -0.5103
 7160WAT      O29359   7.028   0.735   4.497  0.4270  0.1209 -0.3893
 7160WAT     H129360   7.045   0.688   4.425 -0.7481 -0.1213 -0.5300
 7160WAT     H229361   7.101   0.781   4.509  0.8329 -0.2161 -1.4425
 7160WAT    EPW29362   7.042   0.735   4.488  0.3133  0.0353 -0.5657
 7161WAT      O29363   6.241   3.378   7.374  0.2586  0.0656  0.1816
 7161WAT     H129364   6.311   3.409   7.417  0.8863  1.4437 -1.7055
 7161WAT     H229365   6.175   3.396   7.428  1.2447 -0.8691  1.8181
 7161WAT    EPW29366   6.242   3.385   7.388  0.4970  0.1311  0.1446
 7162WAT      O29367   2.213   4.384   2.261  0.0396  0.7958  0.0919
 7162WAT     H129368   2.148   4.428   2.224  0.8036  2.1670  0.2778
 7162WAT     H229369   2.179   4.356   2.336 -0.7927  0.0996 -0.5323
 7162WAT    EPW29370   2.198   4.386   2.267  0.0295  0.8955  0.0272
 7163WAT      O29371   5.089   1.472   2.595  0.0602 -0.0539  0.5270
 7163WAT     H129372   5.035   1.511   2.538 -1.0486  0.9498  2.1561
 7163WAT     H229373   5.145   1.429   2.544  0.2843  2.2566 -1.3935
 7163WAT    EPW29374   5.089   1.472   2.579 -0.0705  0.4357  0.4840
 7164WAT      O29375   5.250   6.610   4.634 -0.4177  0.0144  0.1172
 7164WAT     H129376   5.164   6.600   4.626 -0.4952 -0.7712  1.5055
 7164WAT     H229377   5.275   6.537   4.676  1.4302 -1.4228 -3.0814
 7164WAT    EPW29378   5.241   6.598   4.639 -0.1562 -0.3140 -0.1502
 7165WAT      O29379   6.892   0.088   1.384 -0.3255 -0.0102 -0.1524
 7165WAT     H129380   6.816   0.131   1.375  0.3690  1.3305  0.1869
 7165WAT     H229381   6.897   0.074   1.470 -0.7912 -1.3063 -0.3007
 7165WAT    EPW29382   6.881   0.092   1.395 -0.2917 -0.0036 -0.1242
 7166WAT      O29383   5.191   0.847   0.123 -0.0199 -0.1910 -0.1058
 7166WAT     H129384   5.162   0.928   0.140  1.0146  0.1216  0.3211
 7166WAT     H229385   5.264   0.862   0.078 -0.1979 -0.9143 -0.6272
 7166WAT    EPW29386   5.198   0.861   0.119  0.1066 -0.2517 -0.1197
 7167WAT      O29387   1.924   2.256   2.662 -0.3082  0.0317 -0.1665
 7167WAT     H129388   1.890   2.201   2.720 -0.9545  0.6609  0.0673
 7167WAT     H229389   1.940   2.205   2.593  0.4335 -0.7109  0.5336
 7167WAT    EPW29390   1.921   2.241   2.660 -0.2941  0.0150 -0.0286
 7168WAT      O29391   6.851   4.532   2.150 -0.9956 -0.1078  0.0621
 7168WAT     H129392   6.813   4.546   2.073 -2.4344 -1.6123  0.4260
 7168WAT     H229393   6.930   4.502   2.129 -1.0062  0.4581 -0.8026
 7168WAT    EPW29394   6.857   4.529   2.135 -1.2097 -0.2465 -0.0119
 7169WAT      O29395   6.879   1.556   5.273 -0.3480  0.0654  0.7934
 7169WAT     H129396   6.853   1.493   5.217 -1.6187  1.6804 -0.5343
 7169WAT     H229397   6.965   1.545   5.278 -0.1057  0.1355 -1.9254
 7169WAT    EPW29398   6.888   1.545   5.265 -0.4999  0.3143  0.1957
 7170WAT      O29399   1.096   4.249   5.148  0.0719 -0.6016  0.7442
 7170WAT     H129400   1.115   4.236   5.232  3.5187 -0.9180  0.0335
 7170WAT     H229401   1.162   4.213   5.105 -1.8010 -0.9240 -2.2127
 7170WAT    EPW29402   1.108   4.242   5.154  0.3044 -0.6960  0.2025
 7171WAT      O29403   7.256   6.088   0.292  0.2331 -0.3777 -0.4015
 7171WAT     H129404   7.229   6.096   0.375 -0.6738 -0.9109 -0.6293
 7171WAT     H229405   7.183   6.066   0.249  0.5671  0.5105 -1.4550
 7171WAT    EPW29406   7.241   6.086   0.298  0.1485 -0.3253 -0.5908
 7172WAT      O29407   3.672   2.860   2.354  0.1473  0.5027  0.2480
 7172WAT     H129408   3.626   2.824   2.290 -0.7367  2.7077 -0.4069
 7172WAT     H229409   3.623   2.926   2.382  2.2218  2.0709  0.4922
 7172WAT    EPW29410   3.658   2.864   2.349  0.3231  1.0601  0.1873
 7173WAT      O29411   1.696   3.157   3.801  0.8056  0.2386 -0.1228
 7173WAT     H129412   1.751   3.164   3.869  0.2246  0.5494  0.3303
 7173WAT     H229413   1.701   3.235   3.762  2.3995 -0.4722 -1.4602
 7173WAT    EPW29414   1.705   3.170   3.806  0.9553  0.1795 -0.2535
 7174WAT      O29415   3.441   5.153   3.379  0.9570  0.4199  0.0312
 7174WAT     H129416   3.474   5.227   3.346  2.1100 -0.6890 -1.4767
 7174WAT     H229417   3.453   5.162   3.465  1.6440  1.7321 -0.1772
 7174WAT    EPW29418   3.448   5.165   3.387  1.2288  0.4499 -0.2223
 7175WAT      O29419   5.525   6.752   6.327 -0.2455  0.0572  0.4149
 7175WAT     H129420   5.469   6.817   6.345  0.7687  0.9545  0.3831
 7175WAT     H229421   5.516   6.740   6.241 -1.2269 -0.6062  0.5950
 7175WAT    EPW29422   5.515   6.760   6.317 -0.2407  0.0917  0.4368
 7176WAT      O29423   2.833   2.481   6.517  0.4756 -0.0155  0.1459
 7176WAT     H129424   2.827   2.507   6.600  0.4065  1.9493 -0.4078
 7176WAT     H229425   2.915   2.501   6.495  0.0410  0.9872 -0.6704
 7176WAT    EPW29426   2.844   2.488   6.526  0.4012  0.4229 -0.0565
 7177WAT      O29427   6.201   5.275   6.285 -0.0917  1.1221 -0.2973
 7177WAT     H129428   6.141   5.213   6.299  0.9552 -0.3963 -2.1329
 7177WAT     H229429   6.267   5.252   6.336  0.3112  0.6687 -1.0058
 7177WAT    EPW29430   6.202   5.263   6.294  0.1225  0.8309 -0.6731
 7178WAT      O29431   0.600   1.009   3.791 -0.2529  0.0023  0.1118
 7178WAT     H129432   0.644   0.934   3.797  0.3789  0.3444 -0.1442
 7178WAT     H229433   0.632   1.057   3.856  0.9339  0.8416 -1.0540
 7178WAT    EPW29434   0.611   1.005   3.801  0.0158  0.1768 -0.0982
 7179WAT      O29435   6.279   2.411   5.349 -0.2598 -0.1809 -0.3956
 7179WAT     H129436   6.240   2.334   5.358 -0.1929 -0.0827  0.8336
 7179WAT     H229437   6.352   2.404   5.397 -0.3698  0.7163 -0.0681
 7179WAT    EPW29438   6.284   2.399   5.357 -0.2661 -0.0339 -0.1656
 7180WAT      O29439   5.274   3.060   2.829 -0.2591  0.4082 -0.1003
 7180WAT     H129440   5.304   3.002   2.771 -1.3342  1.4570 -1.8174
 7180WAT     H229441   5.319   3.042   2.902  0.0174 -2.0099 -0.7838
 7180WAT    EPW29442   5.285   3.049   2.831 -0.3771  0.2059 -0.4549
 7181WAT      O29443   0.629   0.986   4.158 -0.4556  0.1757  0.5336
 7181WAT     H129444   0.647   0.950   4.235 -0.2178 -0.7974  0.0348
 7181WAT     H229445   0.698   1.037   4.143  0.9739 -1.8809 -0.3644
 7181WAT    EPW29446   0.642   0.988   4.167 -0.2093 -0.2718  0.3273
 7182WAT      O29447   2.148   4.241   6.619 -0.5237  0.5461  0.3194
 7182WAT     H129448   2.233   4.261   6.612 -0.4795  0.2374 -0.0947
 7182WAT     H229449   2.114   4.276   6.546 -0.4407 -0.8680 -0.4265
 7182WAT    EPW29450   2.156   4.249   6.607 -0.5049  0.2916  0.1480
 7183WAT      O29451   2.119   0.255   0.845 -0.0356  0.0002  0.5851
 7183WAT     H129452   2.129   0.183   0.894 -2.3131 -0.7927  0.0361
 7183WAT     H229453   2.154   0.318   0.893 -0.4292 -1.0585  2.3649
 7183WAT    EPW29454   2.125   0.254   0.859 -0.4302 -0.2733  0.7669
 7184WAT      O29455   4.405   3.085   1.484  0.0332 -0.4312  0.5462
 7184WAT     H129456   4.415   3.008   1.523 -2.6776 -0.7908  0.6730
 7184WAT     H229457   4.415   3.142   1.550 -2.6296 -0.9540  1.5275
 7184WAT    EPW29458   4.408   3.082   1.500 -0.7606 -0.5616  0.7099
 7185WAT      O29459   3.846   6.213   3.837  0.0854 -0.4428 -0.2854
 7185WAT     H129460   3.887   6.195   3.912  0.6763 -2.1534 -0.9604
 7185WAT     H229461   3.899   6.271   3.798  0.1947 -0.1720  0.2639
 7185WAT    EPW29462   3.860   6.219   3.842  0.1889 -0.6555 -0.3040
 7186WAT      O29463   2.570   0.126   6.799  0.0255 -0.4374 -0.9791
 7186WAT     H129464   2.606   0.059   6.842 -1.5043 -2.4475 -2.6544
 7186WAT     H229465   2.532   0.173   6.862  0.7732 -1.3394  0.1930
 7186WAT    EPW29466   2.570   0.123   6.814 -0.0900 -0.8676 -1.0534
 7187WAT      O29467   6.086   5.034   5.880  0.0042  0.2742  0.3240
 7187WAT     H129468   6.126   4.981   5.936 -1.1175 -2.0649 -0.9838
 7187WAT     H229469   6.013   5.057   5.922  0.7048  1.2309  1.0710
 7187WAT    EPW29470   6.081   5.030   5.895 -0.0580  0.0700  0.2412
 7188WAT      O29471   0.868   3.331   2.095  0.0127  0.3968  0.5344
 7188WAT     H129472   0.857   3.306   2.012  0.1381  1.2212  0.2642
 7188WAT     H229473   0.879   3.255   2.137 -2.0161 -0.2161  0.1189
 7188WAT    EPW29474   0.868   3.316   2.089 -0.2685  0.4281  0.4331
 7189WAT      O29475   6.172   1.944   2.813  0.4162  0.2818 -0.1104
 7189WAT     H129476   6.140   1.870   2.780  0.0120 -0.3164  1.5159
 7189WAT     H229477   6.118   1.962   2.879  2.7555 -0.2109  2.0827
 7189WAT    EPW29478   6.159   1.936   2.818  0.7020  0.1207  0.4538
 7190WAT      O29479   1.745   6.855   2.475 -0.2988  0.2237 -0.0008
 7190WAT     H129480   1.714   6.852   2.557 -2.3806  0.6456 -0.7054
 7190WAT     H229481   1.679   6.890   2.430  0.5238 -0.6784 -2.0015
 7190WAT    EPW29482   1.731   6.860   2.480 -0.4848  0.1528 -0.4004
 7191WAT      O29483   5.314   2.187   4.150  0.0983 -0.2738 -0.0961
 7191WAT     H129484   5.345   2.252   4.199  0.6587  0.7620 -1.7267
 7191WAT     H229485   5.263   2.228   4.092 -0.4581 -1.4333 -0.4609
 7191WAT    EPW29486   5.311   2.203   4.148  0.0989 -0.2921 -0.3909
 7192WAT      O29487   2.609   0.980   3.871  0.2071 -0.0501  1.0351
 7192WAT     H129488   2.556   0.963   3.803 -0.4117 -0.4256  1.5959
 7192WAT     H229489   2.592   0.915   3.926  1.6679 -0.4965  1.0079
 7192WAT    EPW29490   2.599   0.968   3.869  0.3315 -0.1715  1.1139
 7193WAT      O29491   5.723   6.490   6.812 -0.2418 -0.6284  0.3288
 7193WAT     H129492   5.676   6.417   6.802  1.4435 -1.9884  1.8017
 7193WAT     H229493   5.780   6.487   6.746 -0.0026 -0.7458  0.5452
 7193WAT    EPW29494   5.724   6.479   6.801  0.0425 -0.8467  0.5783
 7194WAT      O29495   2.525   2.399   2.710 -0.6328 -0.2499  0.0417
 7194WAT     H129496   2.490   2.449   2.772 -1.8061 -0.0745 -0.7207
 7194WAT     H229497   2.463   2.398   2.648 -0.5784 -2.4877 -0.0571
 7194WAT    EPW29498   2.510   2.407   2.710 -0.7981 -0.5546 -0.0855
 7195WAT      O29499   5.259   1.152   4.873 -0.5036 -0.4476  0.2054
 7195WAT     H129500   5.222   1.230   4.869 -1.7804 -1.0972 -1.4884
 7195WAT     H229501   5.334   1.163   4.829 -0.7124 -0.1994 -0.0907
 7195WAT    EPW29502   5.265   1.165   4.866 -0.7231 -0.5069 -0.0885
 7196WAT      O29503   2.951   2.809   0.121 -0.3364  0.5582 -0.6498
 7196WAT     H129504   2.882   2.763   0.095 -2.1409  1.3411  2.3171
 7196WAT     H229505   2.976   2.770   0.195  1.1112  1.5554 -0.5617
 7196WAT    EPW29506   2.945   2.796   0.128 -0.3891  0.8212 -0.1985
 7197WAT      O29507   3.072   3.934   5.549 -0.2254 -0.2909 -0.2459
 7197WAT     H129508   3.157   3.933   5.531 -0.3802  1.3573 -1.3203
 7197WAT     H229509   3.038   3.980   5.483 -1.9438 -0.8481  0.1971
 7197WAT    EPW29510   3.079   3.941   5.536 -0.5021 -0.1297 -0.3392
 7198WAT      O29511   0.116   2.044   3.885  0.0211  0.3463 -0.0519
 7198WAT     H129512   0.075   2.032   3.960 -0.5338 -1.2838 -0.5809
 7198WAT     H229513   0.170   1.976   3.880 -0.8072 -0.2428 -1.6544
 7198WAT    EPW29514   0.118   2.032   3.895 -0.1833  0.0185 -0.3668
 7199WAT      O29515   0.131   0.098   6.713 -0.4530  0.0850 -0.0613
 7199WAT     H129516   0.110   0.104   6.797 -0.6621 -0.4005 -0.0763
 7199WAT     H229517   0.096   0.170   6.678 -0.4794  0.2202  0.2397
 7199WAT    EPW29518   0.123   0.109   6.720 -0.4878  0.0332 -0.0190
 7200WAT      O29519   3.224   3.932   4.347 -0.1694 -0.2967  0.1990
 7200WAT     H129520   3.300   3.963   4.377 -0.6947  1.6493 -0.3333
 7200WAT     H229521   3.168   3.951   4.411 -1.0450  2.6831 -1.2726
 7200WAT    EPW29522   3.227   3.939   4.361 -0.3764  0.4309 -0.0970
 7201WAT      O29523   5.315   3.783   3.324  0.2743  0.0620 -0.0358
 7201WAT     H129524   5.361   3.761   3.394  0.5707  0.0304 -0.2411
 7201WAT     H229525   5.326   3.715   3.270 -0.4809 -0.2162  0.1406
 7201WAT    EPW29526   5.323   3.769   3.326  0.2065  0.0162 -0.0401
 7202WAT      O29527   2.944   1.469   3.223 -0.0393 -0.2586  0.2133
 7202WAT     H129528   2.940   1.383   3.233  1.8032 -0.3607  0.4671
 7202WAT     H229529   3.008   1.493   3.278 -0.4494  1.2490  0.0852
 7202WAT    EPW29530   2.953   1.460   3.233  0.1723 -0.0509  0.2318
 7203WAT      O29531   3.816   0.372   0.975  0.1028  0.1205 -0.4338
 7203WAT     H129532   3.763   0.401   0.912  1.0800  1.1013 -0.8425
 7203WAT     H229533   3.882   0.337   0.930 -0.2145 -1.1732  0.0681
 7203WAT    EPW29534   3.818   0.371   0.959  0.2003  0.0743 -0.4200
 7204WAT      O29535   3.155   6.674   5.513 -0.5035  0.0442 -0.0791
 7204WAT     H129536   3.116   6.689   5.436  0.0802  0.5056 -0.2975
 7204WAT     H229537   3.235   6.646   5.489  0.4688  2.2468  0.3265
 7204WAT    EPW29538   3.161   6.672   5.498 -0.2737  0.4377 -0.0514
 7205WAT      O29539   1.196   7.045   7.086  0.7362 -0.0326  0.2413
 7205WAT     H129540   1.123   7.075   7.123  0.2460 -1.1610  0.2192
 7205WAT     H229541   1.179   7.047   7.001  0.4676 -0.9088  0.2629
 7205WAT    EPW29542   1.183   7.050   7.079  0.6241 -0.3287  0.2412
 7206WAT      O29543   5.302   3.519   3.189 -0.2940 -0.6528 -0.0493
 7206WAT     H129544   5.388   3.510   3.179 -0.4166 -0.3485 -1.6163
 7206WAT     H229545   5.271   3.438   3.179 -0.1360 -0.9705  1.6718
 7206WAT    EPW29546   5.310   3.505   3.186 -0.2888 -0.6548 -0.0265
 7207WAT      O29547   0.530   2.761   2.180  0.8248  0.4936 -0.0855
 7207WAT     H129548   0.528   2.773   2.266  0.4428  0.2346 -0.0544
 7207WAT     H229549   0.604   2.716   2.167  0.9156  0.5885  0.0973
 7207WAT    EPW29550   0.541   2.756   2.190  0.7817  0.4694 -0.0539
 7208WAT      O29551   0.807   3.796   5.130  0.4659 -0.6202  0.0572
 7208WAT     H129552   0.721   3.790   5.138  0.4783 -0.4433  0.3253
 7208WAT     H229553   0.837   3.727   5.175  0.5336  0.3495  1.5669
 7208WAT    EPW29554   0.799   3.785   5.137  0.4778 -0.4508  0.3198
 7209WAT      O29555   6.062   6.073   4.309  0.2934  0.1401  0.5669
 7209WAT     H129556   6.067   6.147   4.263  2.0665  0.6310  1.4603
 7209WAT     H229557   5.976   6.057   4.314 -0.1354  2.1986  0.4869
 7209WAT    EPW29558   6.050   6.082   4.303  0.4920  0.5167  0.6870
 7210WAT      O29559   7.265   6.533   4.292  0.3297 -0.1800 -0.2773
 7210WAT     H129560   7.218   6.463   4.312  1.2350 -0.7065  0.0579
 7210WAT     H229561   7.345   6.514   4.321  0.4515  1.2610  0.4541
 7210WAT    EPW29562   7.270   6.520   4.300  0.4814 -0.0449 -0.1197
 7211WAT      O29563   1.933   6.682   2.839 -0.1384  0.0014 -0.0490
 7211WAT     H129564   1.988   6.745   2.863  0.0955 -0.4284  0.5461
 7211WAT     H229565   1.869   6.726   2.799  0.9947  0.4478 -1.4544
 7211WAT    EPW29566   1.932   6.698   2.836  0.0636  0.0039 -0.1687
 7212WAT      O29567   5.032   0.050   2.040  0.1108 -0.3992  0.1377
 7212WAT     H129568   5.098   0.014   1.997  1.4253 -0.8393  2.3427
 7212WAT     H229569   4.984  -0.019   2.064  0.0606 -0.2820  0.3772
 7212WAT    EPW29570   5.035   0.034   2.037  0.2976 -0.4469  0.4988
 7213WAT      O29571   4.492   1.574   1.004 -0.6419  0.7021  0.1070
 7213WAT     H129572   4.463   1.502   0.962 -1.2870  0.4785  0.9057
 7213WAT     H229573   4.477   1.638   0.947 -2.8851  0.6057  0.5008
 7213WAT    EPW29574   4.485   1.573   0.989 -1.0686  0.6548  0.2831
 7214WAT      O29575   3.353   5.430   4.592 -0.1439 -0.4356  0.5221
 7214WAT     H129576   3.349   5.490   4.656  1.6973  1.0922 -0.6837
 7214WAT     H229577   3.438   5.409   4.589 -0.4659 -1.7122 -0.3474
 7214WAT    EPW29578   3.365   5.436   4.601  0.0805 -0.3985  0.2156
 7215WAT      O29579   1.923   2.114   5.549 -0.0965  0.4060  0.3999
 7215WAT     H129580   1.881   2.189   5.532 -0.7699 -0.3043 -1.1671
 7215WAT     H229581   2.005   2.131   5.525 -0.8126 -0.2384 -2.8428
 7215WAT    EPW29582   1.929   2.128   5.543 -0.3018  0.2059 -0.3106
 7216WAT      O29583   4.340   6.582   4.246  0.5084 -0.1981 -0.0340
 7216WAT     H129584   4.288   6.548   4.308  1.4943  1.1139  1.5853
 7216WAT     H229585   4.392   6.516   4.224  1.7864 -0.0954  2.3817
 7216WAT    EPW29586   4.340   6.567   4.252  0.8428  0.0109  0.5621
 7217WAT      O29587   6.287   0.279   3.723 -0.0738  0.1790  0.6487
 7217WAT     H129588   6.214   0.232   3.731 -0.7816  0.9748 -0.8111
 7217WAT     H229589   6.258   0.359   3.704  1.1874  0.4695 -0.1655
 7217WAT    EPW29590   6.272   0.284   3.722  0.0080  0.3395  0.3128
 7218WAT      O29591   4.401   3.568   2.706 -0.1973 -0.1945 -0.0489
 7218WAT     H129592   4.317   3.577   2.726 -0.7669  0.4556 -2.3892
 7218WAT     H229593   4.424   3.647   2.678  1.5739 -0.0349  1.6335
 7218WAT    EPW29594   4.392   3.581   2.705 -0.0198 -0.0749 -0.1461
 7219WAT      O29595   4.981   1.538   5.938 -0.8635  0.3389 -0.2025
 7219WAT     H129596   5.018   1.534   5.860 -0.3589 -0.3684  0.0619
 7219WAT     H229597   5.048   1.534   5.993 -1.2323  0.5466  0.2742
 7219WAT    EPW29598   4.996   1.537   5.935 -0.8434  0.2651 -0.0930
 7220WAT      O29599   2.898   7.207   2.337  0.2972 -0.0459  0.0118
 7220WAT     H129600   2.983   7.227   2.329  1.0444 -2.4463  0.9172
 7220WAT     H229601   2.865   7.226   2.258  1.2674  2.3755  0.1019
 7220WAT    EPW29602   2.906   7.213   2.324  0.5509 -0.0428  0.1589
 7221WAT      O29603   0.847   0.306   3.689  0.9488  0.4721 -0.6751
 7221WAT     H129604   0.920   0.271   3.721  0.7092  0.3966 -0.2098
 7221WAT     H229605   0.817   0.245   3.635  1.3237  0.5785 -1.0115
 7221WAT    EPW29606   0.854   0.292   3.686  0.9688  0.4767 -0.6561
 7222WAT      O29607   2.101   6.446   0.904 -0.0342 -0.4079 -0.3330
 7222WAT     H129608   2.150   6.506   0.943  0.8257 -0.3818 -1.4136
 7222WAT     H229609   2.086   6.480   0.825 -0.3618 -1.1868 -0.6161
 7222WAT    EPW29610   2.106   6.460   0.898  0.0444 -0.5191 -0.5344
 7223WAT      O29611   3.582   4.825   1.655 -0.0691  0.4197 -0.2412
 7223WAT     H129612   3.620   4.746   1.655  0.6709  0.7181  1.7978
 7223WAT     H229613   3.620   4.866   1.588 -0.1864 -0.7972 -1.0948
 7223WAT    EPW29614   3.593   4.819   1.645  0.0229  0.2840 -0.0661
 7224WAT      O29615   2.645   1.847   3.025  0.0658 -0.2140 -0.6613
 7224WAT     H129616   2.620   1.767   3.001  1.2183 -0.7230 -0.2628
 7224WAT     H229617   2.702   1.870   2.962  0.3823 -0.0698 -0.3292
 7224WAT    EPW29618   2.650   1.839   3.012  0.2828 -0.2679 -0.5534
 7225WAT      O29619   5.522   5.968   4.824 -0.2032  0.5938  0.1261
 7225WAT     H129620   5.467   5.970   4.892 -1.0002 -0.7633 -0.4250
 7225WAT     H229621   5.589   6.017   4.851  0.1509 -0.9937  2.4865
 7225WAT    EPW29622   5.524   5.975   4.838 -0.2686  0.1588  0.3934
 7226WAT      O29623   3.835   6.245   7.093 -0.3923  0.4426 -0.5668
 7226WAT     H129624   3.802   6.320   7.063 -1.0655  0.5461  0.3947
 7226WAT     H229625   3.794   6.184   7.046 -0.7586  0.6322 -0.4920
 7226WAT    EPW29626   3.824   6.247   7.081 -0.5458  0.4859 -0.4137
 7227WAT      O29627   2.913   2.457   2.854 -0.0678  0.2122  0.0308
 7227WAT     H129628   2.843   2.474   2.904 -1.2368 -0.8677 -1.1635
 7227WAT     H229629   2.901   2.509   2.785  1.3175  1.3833  0.6235
 7227WAT    EPW29630   2.901   2.467   2.851 -0.0358  0.2257 -0.0581
 7228WAT      O29631   1.362   5.450   6.835  0.0403  0.2093 -0.4080
 7228WAT     H129632   1.336   5.393   6.775 -0.4086  0.7259 -0.7205
 7228WAT     H229633   1.434   5.486   6.800 -0.1718  0.4481 -0.6072
 7228WAT    EPW29634   1.369   5.447   6.821 -0.0573  0.3209 -0.4836
 7229WAT      O29635   4.817   2.491   3.701 -0.0277  0.2241 -0.2218
 7229WAT     H129636   4.873   2.426   3.683 -1.8477 -1.3129 -0.7352
 7229WAT     H229637   4.808   2.486   3.788 -1.1115 -1.1464 -0.3668
 7229WAT    EPW29638   4.824   2.480   3.711 -0.4566 -0.2054 -0.3190
 7230WAT      O29639   4.461   5.103   1.893 -0.0250  0.3401 -0.7553
 7230WAT     H129640   4.523   5.104   1.954 -1.0259  0.1620  0.2858
 7230WAT     H229641   4.493   5.049   1.832  1.3027  1.0888 -0.7475
 7230WAT    EPW29642   4.475   5.095   1.893  0.0233  0.4244 -0.6004
 7231WAT      O29643   4.757   0.719   1.111 -0.9386  0.1241 -0.1339
 7231WAT     H129644   4.786   0.648   1.070 -1.2125 -0.0167 -0.0877
 7231WAT     H229645   4.671   0.718   1.095 -0.8558  0.8052 -0.6940
 7231WAT    EPW29646   4.749   0.709   1.103 -0.9668  0.2039 -0.2098
 7232WAT      O29647   4.039   0.489   5.923 -0.3866  0.2835 -0.2500
 7232WAT     H129648   4.004   0.536   5.859  0.4841 -0.4872 -1.3399
 7232WAT     H229649   3.985   0.502   5.991 -1.8876  0.3321 -1.4110
 7232WAT    EPW29650   4.026   0.498   5.924 -0.4797  0.1768 -0.5825
 7233WAT      O29651   5.582   0.042   2.243  0.2088 -0.0339 -0.1171
 7233WAT     H129652   5.544   0.111   2.281  0.6513 -0.2413  0.7347
 7233WAT     H229653   5.530   0.024   2.176 -1.3102 -0.4083  1.1056
 7233WAT    EPW29654   5.569   0.050   2.239  0.0498 -0.1199  0.1893
 7234WAT      O29655   5.775   1.848   1.198 -0.1985 -0.2482  0.0348
 7234WAT     H129656   5.822   1.920   1.210  0.0958  0.1321 -2.6686
 7234WAT     H229657   5.721   1.869   1.132 -0.8903 -2.1342 -0.0665
 7234WAT    EPW29658   5.774   1.861   1.190 -0.2572 -0.4706 -0.3795
 7235WAT      O29659   6.250   5.561   7.286  0.0282 -0.3909  0.6651
 7235WAT     H129660   6.335   5.550   7.301 -0.1904 -0.9076  1.5420
 7235WAT     H229661   6.212   5.508   7.343 -0.8628 -1.1818 -0.6182
 7235WAT    EPW29662   6.257   5.551   7.296 -0.1357 -0.5841  0.6051
 7236WAT      O29663   3.185   3.097   4.836  0.1117 -0.1202 -0.0755
 7236WAT     H129664   3.209   3.091   4.752  0.3265 -0.3800 -0.0007
 7236WAT     H229665   3.128   3.031   4.846  0.5934 -0.5153  0.1433
 7236WAT    EPW29666   3.180   3.086   4.825  0.2146 -0.2169 -0.0321
 7237WAT      O29667   2.748   1.056   1.945 -0.3054 -0.1003 -0.3373
 7237WAT     H129668   2.745   1.143   1.946  0.5206 -0.0682  0.5143
 7237WAT     H229669   2.735   1.034   2.029  0.7064 -0.7352 -0.3328
 7237WAT    EPW29670   2.745   1.066   1.958 -0.0339 -0.1893 -0.2108
 7238WAT      O29671   5.154   6.080   2.808 -0.4587  0.6530  0.0464
 7238WAT     H129672   5.167   6.029   2.878  0.2283  0.9047  0.1084
 7238WAT     H229673   5.217   6.054   2.752  0.4498  2.0088  0.4037
 7238WAT    EPW29674   5.165   6.068   2.810 -0.2230  0.8905  0.1083
 7239WAT      O29675   4.764   1.625   0.634 -0.3606 -0.3018 -0.0642
 7239WAT     H129676   4.754   1.653   0.716  0.3291 -0.1579 -0.0249
 7239WAT     H229677   4.837   1.578   0.637  0.3124  0.6479 -0.8269
 7239WAT    EPW29678   4.773   1.622   0.646 -0.1593 -0.1403 -0.1711
 7240WAT      O29679   5.732   4.833   3.406 -0.4066  0.1797 -0.1007
 7240WAT     H129680   5.745   4.779   3.339 -1.9009 -1.9245  1.1596
 7240WAT     H229681   5.658   4.874   3.386  0.4111  1.3818 -0.7797
 7240WAT    EPW29682   5.723   4.831   3.394 -0.5065  0.0465 -0.0148
 7241WAT      O29683   5.805   3.277   4.041  0.4912  0.0745 -0.2319
 7241WAT     H129684   5.750   3.309   4.101  1.4471 -1.1103  1.3600
 7241WAT     H229685   5.878   3.323   4.053  0.8006 -0.4024 -0.2256
 7241WAT    EPW29686   5.808   3.288   4.052  0.6782 -0.1710  0.0042
 7242WAT      O29687   5.046   2.668   5.458  0.3777  0.1939  0.6362
 7242WAT     H129688   5.072   2.646   5.539  2.2971  0.1593  0.0441
 7242WAT     H229689   5.012   2.747   5.469 -1.5029 -0.6788  1.8308
 7242WAT    EPW29690   5.045   2.676   5.472  0.3835  0.0599  0.7252
 7243WAT      O29691   6.615   7.096   2.664 -0.2064  0.4576 -0.1443
 7243WAT     H129692   6.585   7.014   2.656  0.2047  0.3948 -1.2715
 7243WAT     H229693   6.590   7.134   2.590  0.5786  1.0227 -0.1255
 7243WAT    EPW29694   6.607   7.089   2.652 -0.0297  0.5318 -0.3081
 7244WAT      O29695   4.945   1.991   4.895 -0.4938  0.7486 -0.4965
 7244WAT     H129696   4.986   2.008   4.820 -1.0095  0.1601 -0.9260
 7244WAT     H229697   4.997   1.932   4.934  0.0751  1.4871 -0.1044
 7244WAT    EPW29698   4.959   1.985   4.890 -0.4860  0.7707 -0.5020
 7245WAT      O29699   1.639   4.563   4.583 -0.7144 -0.3518 -0.0303
 7245WAT     H129700   1.694   4.539   4.646 -0.6023  1.6045  0.6857
 7245WAT     H229701   1.572   4.600   4.626 -1.0756  0.1927 -1.0109
 7245WAT    EPW29702   1.637   4.565   4.598 -0.7512  0.0177 -0.0694
 7246WAT      O29703   1.502   4.425   1.373  0.0383  0.6053  0.0442
 7246WAT     H129704   1.450   4.495   1.375  0.6273  1.0526  0.3582
 7246WAT     H229705   1.555   4.441   1.304  0.4247  0.6633  0.3497
 7246WAT    EPW29706   1.502   4.438   1.363  0.1824  0.6799  0.1357
 7247WAT      O29707   4.929   0.844   3.628  0.1355  0.4697  0.1949
 7247WAT     H129708   4.967   0.797   3.565 -0.0637 -1.3702  1.3594
 7247WAT     H229709   4.996   0.881   3.669  0.4702 -0.4990  0.5365
 7247WAT    EPW29710   4.945   0.843   3.624  0.1555  0.0548  0.4174
 7248WAT      O29711   3.828   0.617   2.712 -0.4207  0.4279  0.2394
 7248WAT     H129712   3.869   0.618   2.789 -0.0761 -0.4248  0.0798
 7248WAT     H229713   3.858   0.545   2.673 -0.4200  0.9489 -0.7887
 7248WAT    EPW29714   3.839   0.607   2.717 -0.3697  0.3789  0.0639
 7249WAT      O29715   4.833   6.700   4.225  0.9484  0.7965 -0.1561
 7249WAT     H129716   4.875   6.628   4.249 -2.3301 -1.1892  0.1523
 7249WAT     H229717   4.821   6.689   4.139  0.0789  0.7749 -0.0334
 7249WAT    EPW29718   4.838   6.688   4.216  0.3357  0.5000 -0.0924
 7250WAT      O29719   6.106   2.641   2.171 -0.4350  0.1823 -0.1258
 7250WAT     H129720   6.140   2.706   2.218  0.0913 -0.2681  0.1359
 7250WAT     H229721   6.156   2.572   2.192 -2.2309 -0.7994  1.1990
 7250WAT    EPW29722   6.118   2.640   2.181 -0.6226 -0.0293  0.1085
 7251WAT      O29723   0.267   0.620   5.891 -0.7592  0.5429  0.6250
 7251WAT     H129724   0.216   0.590   5.955  0.5075 -0.4676  1.2292
 7251WAT     H229725   0.274   0.552   5.837 -1.3186  1.1905 -0.2885
 7251WAT    EPW29726   0.261   0.606   5.893 -0.6547  0.4893  0.5793
 7252WAT      O29727   4.264   4.896   4.797  0.1812 -0.6546 -0.1937
 7252WAT     H129728   4.266   4.824   4.748 -0.4085 -0.0926 -1.0575
 7252WAT     H229729   4.348   4.909   4.817  0.3295 -1.3930 -0.2898
 7252WAT    EPW29730   4.277   4.887   4.793  0.1160 -0.6807 -0.3355
 7253WAT      O29731   1.166   0.924   6.796  0.1556 -0.4685 -0.5348
 7253WAT     H129732   1.085   0.940   6.825  0.0362 -1.5106 -0.2875
 7253WAT     H229733   1.207   1.000   6.809 -1.0677  0.4540 -1.7041
 7253WAT    EPW29734   1.160   0.938   6.802 -0.0427 -0.4862 -0.6710
 7254WAT      O29735   3.212   2.856   7.381 -0.1627 -0.0640  0.3780
 7254WAT     H129736   3.130   2.842   7.408  0.1399 -2.0791  0.3891
 7254WAT     H229737   3.247   2.776   7.379  2.6099  0.8970  2.8775
 7254WAT    EPW29738   3.205   2.842   7.385  0.2916 -0.2197  0.7488
 7255WAT      O29739   1.831   0.599   0.879 -0.1959  0.2020  0.5801
 7255WAT     H129740   1.760   0.620   0.925 -0.1298 -1.1922  1.3912
 7255WAT     H229741   1.799   0.553   0.812 -0.0379 -1.4262  1.5612
 7255WAT    EPW29742   1.816   0.595   0.876 -0.1628 -0.2445  0.8448
 7256WAT      O29743   7.243   3.889   1.279  0.6726  0.6504  0.4792
 7256WAT     H129744   7.188   3.957   1.286  0.3204  0.6547 -1.7782
 7256WAT     H229745   7.192   3.820   1.297  0.0524  0.7177 -0.8973
 7256WAT    EPW29746   7.227   3.889   1.283  0.5290  0.6610 -0.0576
 7257WAT      O29747   2.364   0.017   7.195  0.1988 -0.0736  0.5264
 7257WAT     H129748   2.350  -0.054   7.147  3.2882  1.1608 -2.5975
 7257WAT     H229749   2.285   0.035   7.228 -1.4952 -2.7832 -1.5980
 7257WAT    EPW29750   2.351   0.009   7.193  0.4049 -0.2915 -0.2489
 7258WAT      O29751   3.368   1.911   6.554  0.0851 -0.3490 -0.1103
 7258WAT     H129752   3.373   1.910   6.642  0.5846 -0.8979 -0.1393
 7258WAT     H229753   3.321   1.840   6.536  0.1911 -0.3678 -0.3040
 7258WAT    EPW29754   3.362   1.900   6.565  0.1745 -0.4329 -0.1432
 7259WAT      O29755   0.521   1.770   6.617 -0.0952 -0.0726 -0.3037
 7259WAT     H129756   0.445   1.783   6.576 -0.5726  1.7472  1.0268
 7259WAT     H229757   0.530   1.684   6.618  1.1585 -0.4974 -6.3080
 7259WAT    EPW29758   0.511   1.759   6.611  0.0195  0.1335 -0.9941
 7260WAT      O29759   6.196   2.502   4.711  0.6412 -0.0909 -0.3732
 7260WAT     H129760   6.259   2.442   4.708  0.4372 -0.3667 -3.9474
 7260WAT     H229761   6.219   2.560   4.650 -0.3800  2.2704  1.3122
 7260WAT    EPW29762   6.209   2.502   4.702  0.4602  0.2172 -0.6523
 7261WAT      O29763   5.405   3.836   4.853 -0.2804 -0.0534  0.5283
 7261WAT     H129764   5.373   3.758   4.873  0.5198 -0.2844  0.9285
 7261WAT     H229765   5.344   3.891   4.883 -0.1746 -0.4733  1.5367
 7261WAT    EPW29766   5.391   3.833   4.860 -0.1465 -0.1496  0.7364
 7262WAT      O29767   6.338   3.165   2.994  0.1466 -0.3844 -0.3815
 7262WAT     H129768   6.312   3.246   2.976  0.4533 -0.0715  0.4990
 7262WAT     H229769   6.273   3.133   3.043  1.2324  0.3230  1.6337
 7262WAT    EPW29770   6.324   3.172   2.999  0.3523 -0.2337  0.0462
 7263WAT      O29771   2.120   0.446   6.806  0.5111 -0.5483 -0.0227
 7263WAT     H129772   2.187   0.502   6.816 -0.7969  0.8791  1.3146
 7263WAT     H229773   2.155   0.369   6.827  1.3478  0.4203  2.6153
 7263WAT    EPW29774   2.135   0.443   6.811  0.4415 -0.1943  0.5646
 7264WAT      O29775   6.698   4.246   4.584 -0.1154  0.5105  0.1890
 7264WAT     H129776   6.764   4.257   4.529 -0.0591  1.5631  0.4348
 7264WAT     H229777   6.628   4.266   4.536 -0.2686 -0.5751 -0.0640
 7264WAT    EPW29778   6.697   4.251   4.569 -0.1297  0.5056  0.1880
 7265WAT      O29779   2.216   0.378   4.029  0.3068 -0.1494  0.5300
 7265WAT     H129780   2.255   0.408   3.957 -0.7203 -0.6044 -0.2357
 7265WAT     H229781   2.254   0.300   4.041 -0.3588 -0.6067 -0.2323
 7265WAT    EPW29782   2.228   0.371   4.020  0.0568 -0.2842  0.3043
 7266WAT      O29783   4.275   4.560   1.493  0.2926 -0.4087 -0.1284
 7266WAT     H129784   4.207   4.614   1.506 -1.8025 -2.4810 -1.5166
 7266WAT     H229785   4.325   4.604   1.436 -0.4646  0.7450  0.0571
 7266WAT    EPW29786   4.272   4.574   1.486 -0.1287 -0.5444 -0.3061
 7267WAT      O29787   3.282   3.024   4.574 -0.5125  0.3784  0.0802
 7267WAT     H129788   3.336   2.956   4.567 -0.8031  0.1456  0.0786
 7267WAT     H229789   3.205   2.991   4.549 -1.3328 -0.1393  2.9640
 7267WAT    EPW29790   3.279   3.009   4.569 -0.6766  0.2675  0.5059
 7268WAT      O29791   4.451   0.955   0.372  0.1074  0.4640 -0.2281
 7268WAT     H129792   4.477   0.973   0.291  0.3556  1.7614  0.1155
 7268WAT     H229793   4.514   0.988   0.422  0.9178 -1.9437  0.5060
 7268WAT    EPW29794   4.464   0.963   0.367  0.2638  0.3000 -0.0689
 7269WAT      O29795   5.351   6.129   0.304 -0.1301  0.3545  0.2440
 7269WAT     H129796   5.418   6.161   0.350  0.4383 -1.1848  0.5342
 7269WAT     H229797   5.388   6.097   0.232 -0.6022 -0.0897  0.1861
 7269WAT    EPW29798   5.366   6.129   0.300 -0.1159  0.0615  0.2783
 7270WAT      O29799   5.166   0.850   5.739  0.3577  0.0156  0.4850
 7270WAT     H129800   5.247   0.817   5.744  1.0739  1.6024  0.1709
 7270WAT     H229801   5.115   0.780   5.745  1.7870 -1.2451 -0.9614
 7270WAT    EPW29802   5.171   0.835   5.741  0.6747  0.0638  0.2249
 7271WAT      O29803   3.503   2.934   6.037 -0.0760 -0.1513 -0.5440
 7271WAT     H129804   3.487   3.003   5.985  0.9599  0.3080 -0.2845
 7271WAT     H229805   3.584   2.910   6.014  1.0766  1.0553  1.8965
 7271WAT    EPW29806   3.513   2.941   6.026  0.2473  0.0948 -0.1451
 7272WAT      O29807   0.472   3.082   7.028 -0.4193  0.1704 -0.7516
 7272WAT     H129808   0.525   3.064   6.960  1.0003  0.4171  0.2416
 7272WAT     H229809   0.449   3.165   7.013  0.5267  0.4804 -0.5370
 7272WAT    EPW29810   0.477   3.092   7.016 -0.0699  0.2526 -0.5732
 7273WAT      O29811   4.704   5.081   3.105 -0.1248 -0.1781  0.4121
 7273WAT     H129812   4.639   5.034   3.072 -0.1004 -0.2123  0.4128
 7273WAT     H229813   4.681   5.094   3.188 -0.0890 -0.2642  0.4359
 7273WAT    EPW29814   4.691   5.076   3.112 -0.1159 -0.1959  0.4157
 7274WAT      O29815   6.498   2.356   3.513 -0.1045 -0.6921 -0.1728
 7274WAT     H129816   6.544   2.314   3.574 -0.8120 -0.0456  0.8436
 7274WAT     H229817   6.487   2.436   3.546  0.4572  0.0501 -1.6690
 7274WAT    EPW29818   6.503   2.361   3.527 -0.1260 -0.4870 -0.2437
 7275WAT      O29819   2.259   2.924   3.766 -0.6597  0.2906 -0.4112
 7275WAT     H129820   2.297   2.922   3.687 -0.2992 -0.2132 -0.2287
 7275WAT     H229821   2.312   2.875   3.816 -0.5536  1.1083  0.2941
 7275WAT    EPW29822   2.273   2.916   3.762 -0.5908  0.3370 -0.2801
 7276WAT      O29823   5.330   0.944   0.365  0.8599  0.1269  0.6485
 7276WAT     H129824   5.281   0.899   0.308  0.7571  1.1841 -0.1314
 7276WAT     H229825   5.279   0.950   0.435  0.0569  0.7523  0.0369
 7276WAT    EPW29826   5.315   0.938   0.367  0.7261  0.3755  0.4429
 7277WAT      O29827   1.503   6.343   0.127 -0.4113  0.3089 -0.1364
 7277WAT     H129828   1.517   6.369   0.045 -0.0384  1.1248  0.1701
 7277WAT     H229829   1.419   6.319   0.127 -0.2733 -0.2011 -0.8790
 7277WAT    EPW29830   1.493   6.343   0.115 -0.3358  0.3541 -0.2008
 7278WAT      O29831   1.304   4.974   6.114  0.2028  0.2859 -0.4399
 7278WAT     H129832   1.233   4.979   6.165  0.7801  0.4784  0.3679
 7278WAT     H229833   1.370   4.974   6.171  0.8684  0.5256 -1.1910
 7278WAT    EPW29834   1.303   4.975   6.130  0.3864  0.3497 -0.4316
 7279WAT      O29835   2.345   2.320   3.831  0.4950  0.1597 -0.3139
 7279WAT     H129836   2.355   2.326   3.745 -1.0779  1.9072 -0.4363
 7279WAT     H229837   2.284   2.257   3.840  0.3899  0.2343 -0.5003
 7279WAT    EPW29838   2.337   2.311   3.820  0.2471  0.4289 -0.3595
 7280WAT      O29839   4.487   1.886   3.585  0.2047 -0.3295  0.2215
 7280WAT     H129840   4.488   1.814   3.634 -2.4134 -0.5618  0.0411
 7280WAT     H229841   4.572   1.904   3.573  0.9066 -2.3015  1.8109
 7280WAT    EPW29842   4.500   1.878   3.590 -0.0783 -0.6551  0.4296
 7281WAT      O29843   3.996   0.419   4.116 -0.2871 -0.0498  0.0907
 7281WAT     H129844   4.077   0.450   4.103  0.0926 -1.5390 -1.4058
 7281WAT     H229845   4.000   0.380   4.193  1.0459 -1.8840 -0.8513
 7281WAT    EPW29846   4.008   0.418   4.125 -0.0341 -0.5408 -0.2695
 7282WAT      O29847   3.153   7.037   0.176  0.1157  0.7186  0.0466
 7282WAT     H129848   3.227   6.991   0.173 -0.1485  0.2768  0.1144
 7282WAT     H229849   3.145   7.069   0.095 -0.8560 -1.2473 -0.7092
 7282WAT    EPW29850   3.163   7.035   0.163 -0.0668  0.3630 -0.0550
 7283WAT      O29851   1.038   2.085   2.141  0.0030 -0.1590 -0.3093
 7283WAT     H129852   0.951   2.079   2.148 -0.2444  1.7944 -1.0740
 7283WAT     H229853   1.052   2.094   2.056  1.0369 -0.9862 -0.2538
 7283WAT    EPW29854   1.027   2.085   2.130  0.1192  0.0074 -0.4141
 7284WAT      O29855   5.349   4.838   3.143  0.1487  0.6876  0.1930
 7284WAT     H129856   5.324   4.759   3.172  1.0255 -1.0357 -3.1850
 7284WAT     H229857   5.313   4.842   3.063  1.4548  3.0282 -0.3555
 7284WAT    EPW29858   5.340   4.827   3.135  0.4712  0.7788 -0.3870
 7285WAT      O29859   3.060   6.783   4.402 -0.2120 -0.3055 -0.5403
 7285WAT     H129860   3.050   6.740   4.478 -1.1478  0.5489 -0.1628
 7285WAT     H229861   3.017   6.733   4.345  0.0654 -0.6957 -0.4131
 7285WAT    EPW29862   3.052   6.769   4.405 -0.3093 -0.2369 -0.4658
 7286WAT      O29863   4.487   6.406   3.803  0.1277 -0.7398  0.4632
 7286WAT     H129864   4.528   6.440   3.872  0.0679  0.9338 -0.2796
 7286WAT     H229865   4.551   6.368   3.757  0.5221  0.0181  0.3746
 7286WAT    EPW29866   4.503   6.405   3.806  0.1771 -0.3806  0.3404
 7287WAT      O29867   1.893   1.571   3.864  0.1888 -0.1656 -0.4272
 7287WAT     H129868   1.839   1.523   3.913  0.8190 -0.9200 -0.4619
 7287WAT     H229869   1.855   1.650   3.864 -1.0520 -0.7351 -0.6689
 7287WAT    EPW29870   1.880   1.575   3.871  0.0986 -0.3612 -0.4681
 7288WAT      O29871   2.833   5.625   4.269  0.9791  0.2165  0.1105
 7288WAT     H129872   2.780   5.556   4.259  0.0470  1.0440 -0.9369
 7288WAT     H229873   2.835   5.638   4.355 -1.6986  1.0109  0.1212
 7288WAT    EPW29874   2.826   5.616   4.280  0.4459  0.4561 -0.0426
 7289WAT      O29875   3.091   2.839   1.908 -0.3307  0.0460  0.4473
 7289WAT     H129876   3.057   2.773   1.862 -1.1684  0.8993 -0.2112
 7289WAT     H229877   3.062   2.825   1.989 -1.6626  0.3273  0.0546
 7289WAT    EPW29878   3.082   2.827   1.913 -0.6512  0.2136  0.2920
 7290WAT      O29879   6.347   0.038   4.123 -0.4695 -0.2649 -0.0379
 7290WAT     H129880   6.316  -0.004   4.053 -2.5020  0.4131  0.4081
 7290WAT     H229881   6.421   0.074   4.094 -1.8851  1.0836 -2.2802
 7290WAT    EPW29882   6.354   0.037   4.108 -0.9789  0.0344 -0.3032
 7291WAT      O29883   1.188   7.185   0.063  0.5059 -0.7652 -0.2414
 7291WAT     H129884   1.196   7.213  -0.019  0.5094 -0.5133 -0.1539
 7291WAT     H229885   1.106   7.154   0.067 -0.0430  0.6396  0.0919
 7291WAT    EPW29886   1.177   7.184   0.052  0.4254 -0.5205 -0.1792
 7292WAT      O29887   0.062   4.525   6.834  0.4929  0.0710 -0.0737
 7292WAT     H129888   0.041   4.574   6.903  2.1603  0.0818  0.4601
 7292WAT     H229889   0.021   4.564   6.767 -0.4253  0.5663  0.7586
 7292WAT    EPW29890   0.053   4.538   6.834  0.6036  0.1458  0.1281
 7293WAT      O29891   3.951   6.442   3.730 -0.4677  0.0699  0.1237
 7293WAT     H129892   4.031   6.442   3.695  0.0657  1.5017  1.2119
 7293WAT     H229893   3.956   6.504   3.791 -2.3257 -0.0378  0.4439
 7293WAT    EPW29894   3.964   6.451   3.734 -0.6633  0.2655  0.3318
 7294WAT      O29895   6.740   6.424   0.390  0.5847 -0.0313 -0.3588
 7294WAT     H129896   6.697   6.362   0.347  1.3245 -0.8012 -0.0140
 7294WAT     H229897   6.824   6.400   0.382  0.8522  0.7284  0.0790
 7294WAT    EPW29898   6.746   6.411   0.382  0.7335 -0.0328 -0.2432
 7295WAT      O29899   1.889   2.523   2.443  0.4965  0.0712 -0.0763
 7295WAT     H129900   1.909   2.490   2.521  0.5977 -0.5521 -0.3609
 7295WAT     H229901   1.918   2.462   2.387 -2.0263 -0.8034 -0.5359
 7295WAT    EPW29902   1.896   2.509   2.446  0.1388 -0.1501 -0.1862
 7296WAT      O29903   3.586   0.837   6.583 -0.6374 -0.0248  0.7297
 7296WAT     H129904   3.594   0.753   6.606 -0.2605  0.1909  1.4234
 7296WAT     H229905   3.544   0.834   6.507  1.9944 -1.0285 -0.8062
 7296WAT    EPW29906   3.581   0.824   6.575 -0.1929 -0.1412  0.6053
 7297WAT      O29907   6.822   4.474   6.775 -0.6735  0.3566  0.3232
 7297WAT     H129908   6.869   4.458   6.847 -1.7604  2.2222  1.5345
 7297WAT     H229909   6.882   4.477   6.712  0.2354 -2.0758  0.9507
 7297WAT    EPW29910   6.838   4.472   6.777 -0.6998  0.2729  0.5948
 7298WAT      O29911   5.742   2.220   6.499  0.1688 -0.2901  0.3296
 7298WAT     H129912   5.790   2.146   6.496 -2.4289 -2.2244  2.0832
 7298WAT     H229913   5.698   2.219   6.423 -1.1695 -1.5904  1.0799
 7298WAT    EPW29914   5.743   2.209   6.487 -0.4126 -0.7679  0.6995
 7299WAT      O29915   5.772   1.056   4.946 -0.0234  0.7935  0.2933
 7299WAT     H129916   5.842   1.018   4.984 -0.8602 -1.4612 -0.2690
 7299WAT     H229917   5.760   1.009   4.874 -2.4830  0.7194  0.6769
 7299WAT    EPW29918   5.781   1.043   4.941 -0.5103  0.4495  0.2669
 7300WAT      O29919   4.968   3.196   7.147 -0.1855  0.2104  0.1971
 7300WAT     H129920   4.961   3.153   7.071 -0.9020  1.2345 -0.3490
 7300WAT     H229921   4.887   3.192   7.179 -0.4506  1.6937 -0.2007
 7300WAT    EPW29922   4.955   3.189   7.140 -0.3305  0.5808  0.0577
 7301WAT      O29923   4.930   6.010   3.108 -0.3225 -0.4506  0.1620
 7301WAT     H129924   5.006   5.983   3.141 -0.4898 -2.0023 -0.6398
 7301WAT     H229925   4.935   6.097   3.113  1.0150 -0.5532  1.1828
 7301WAT    EPW29926   4.942   6.019   3.114 -0.1496 -0.6950  0.1944
 7302WAT      O29927   6.504   5.733   0.157 -0.1613  0.2513  0.4812
 7302WAT     H129928   6.432   5.708   0.199 -2.7425  1.5915 -2.7283
 7302WAT     H229929   6.505   5.683   0.086  1.7872  0.6657  0.1598
 7302WAT    EPW29930   6.494   5.722   0.153 -0.2548  0.5105 -0.0404
 7303WAT      O29931   7.227   6.605   7.318  0.2415  0.5889  0.3980
 7303WAT     H129932   7.219   6.692   7.321  3.4249  0.9404  2.0044
 7303WAT     H229933   7.313   6.592   7.324 -0.1045 -2.6993 -0.1838
 7303WAT    EPW29934   7.238   6.616   7.319  0.6606  0.1551  0.5493
 7304WAT      O29935   6.903   4.789   2.609 -0.1240  0.0358  0.3053
 7304WAT     H129936   6.928   4.795   2.525  0.3380 -1.0573  0.3487
 7304WAT     H229937   6.816   4.787   2.604 -0.0954 -0.2796 -0.1748
 7304WAT    EPW29938   6.894   4.790   2.596 -0.0516 -0.1723  0.2408
 7305WAT      O29939   1.168   6.313   1.226  0.2436  0.1869 -0.4324
 7305WAT     H129940   1.127   6.384   1.255  0.2412  0.2816 -0.6660
 7305WAT     H229941   1.171   6.261   1.296 -0.3883  0.1279 -0.4442
 7305WAT    EPW29942   1.162   6.316   1.241  0.1499  0.1921 -0.4687
 7306WAT      O29943   0.667   2.090   6.308 -0.0477 -0.6376  0.3185
 7306WAT     H129944   0.715   2.063   6.375  0.4561 -0.2746  0.1138
 7306WAT     H229945   0.684   2.032   6.245  0.3141 -0.3734  0.1701
 7306WAT    EPW29946   0.677   2.078   6.309  0.0801 -0.5449  0.2663
 7307WAT      O29947   4.358   5.831   5.295  0.0339  0.2327  0.1732
 7307WAT     H129948   4.384   5.766   5.243 -1.4829  1.6749 -2.5931
 7307WAT     H229949   4.398   5.814   5.371  0.4231 -3.3694 -0.6732
 7307WAT    EPW29950   4.368   5.819   5.299 -0.1326 -0.0864 -0.3605
 7308WAT      O29951   4.649   3.340   4.006 -0.4310 -0.4750  0.2055
 7308WAT     H129952   4.671   3.285   4.071  2.8200  0.8127  0.3894
 7308WAT     H229953   4.709   3.403   4.012 -1.9240  1.3169 -2.1582
 7308WAT    EPW29954   4.661   3.341   4.017 -0.1713 -0.0201 -0.1165
 7309WAT      O29955   4.520   1.632   3.133 -0.0452 -0.3036 -0.5220
 7309WAT     H129956   4.597   1.621   3.094  0.9992  2.2696  0.6116
 7309WAT     H229957   4.497   1.714   3.113 -1.8135 -0.5456  0.2808
 7309WAT    EPW29958   4.528   1.642   3.125 -0.1522  0.0408 -0.2360
 7310WAT      O29959   5.285   4.803   5.133 -0.0815  0.8344  0.4666
 7310WAT     H129960   5.236   4.749   5.180 -0.2154  1.5214  1.1408
 7310WAT     H229961   5.236   4.820   5.063 -0.1766  0.3576  0.4162
 7310WAT    EPW29962   5.270   4.798   5.130 -0.1154  0.8654  0.5588
 7311WAT      O29963   2.705   6.363   6.064 -0.3473 -0.1379 -0.1770
 7311WAT     H129964   2.741   6.293   6.102  1.8450  1.0399  0.0914
 7311WAT     H229965   2.701   6.342   5.980 -1.3519 -1.2013  0.1075
 7311WAT    EPW29966   2.710   6.350   6.057 -0.1718 -0.1210 -0.0954
 7312WAT      O29967   1.717   2.240   5.048 -0.3046  0.2226  0.0298
 7312WAT     H129968   1.683   2.218   4.970  1.1792 -1.6200 -0.1602
 7312WAT     H229969   1.802   2.251   5.031 -0.4611  3.4217  0.7529
 7312WAT    EPW29970   1.724   2.238   5.034 -0.1085  0.4230  0.1085
 7313WAT      O29971   0.358   3.714   5.055  0.6052  0.4096 -0.3822
 7313WAT     H129972   0.423   3.753   5.099 -0.3243  0.8351  0.6515
 7313WAT     H229973   0.300   3.778   5.042 -0.5279 -0.3953  0.5305
 7313WAT    EPW29974   0.359   3.729   5.060  0.3005  0.3535 -0.0947
 7314WAT      O29975   2.263   2.166   5.713 -0.0773  0.3229  0.0156
 7314WAT     H129976   2.205   2.116   5.754 -0.2144 -0.7771 -1.4508
 7314WAT     H229977   2.216   2.232   5.682 -0.2952  0.1467 -0.0255
 7314WAT    EPW29978   2.248   2.168   5.715 -0.1297  0.1344 -0.2071
 7315WAT      O29979   4.886   3.191   2.785  0.4242  0.3020  0.0347
 7315WAT     H129980   4.925   3.194   2.863 -1.5299  0.0995  1.0869
 7315WAT     H229981   4.801   3.195   2.804 -0.1499 -0.4329 -2.0606
 7315WAT    EPW29982   4.879   3.192   2.799  0.0508  0.1635 -0.1194
 7316WAT      O29983   0.191   1.967   5.323 -0.2797 -0.3341 -0.1736
 7316WAT     H129984   0.224   2.019   5.385  0.3546  1.6853 -2.0579
 7316WAT     H229985   0.261   1.926   5.291 -0.3060  0.0894 -0.7950
 7316WAT    EPW29986   0.207   1.969   5.327 -0.1899  0.0267 -0.5438
 7317WAT      O29987   3.987   3.208   3.393 -0.5554  0.6256 -0.0475
 7317WAT     H129988   3.948   3.241   3.322  1.2585  3.0645 -0.0132
 7317WAT     H229989   3.926   3.217   3.455 -1.9052 -0.8787 -1.0502
 7317WAT    EPW29990   3.972   3.214   3.391 -0.4868  0.7636 -0.1906
 7318WAT      O29991   3.199   4.504   0.830 -0.0005 -0.0159 -0.4394
 7318WAT     H129992   3.270   4.536   0.791 -0.3375 -1.2332 -2.1963
 7318WAT     H229993   3.134   4.554   0.801 -0.0054  0.3948  0.2677
 7318WAT    EPW29994   3.200   4.516   0.820 -0.0510 -0.1350 -0.5945
 7319WAT      O29995   7.099   6.332   1.352 -0.4536 -0.0779  0.4283
 7319WAT     H129996   7.054   6.361   1.421  0.1682  1.7948  0.0981
 7319WAT     H229997   7.182   6.330   1.381  0.0298  2.0896 -0.5944
 7319WAT    EPW29998   7.105   6.336   1.367 -0.2904  0.5189  0.2285
 7320WAT      O29999   2.369   4.198   5.612 -0.5224  0.0840 -0.7169
 7320WAT     H130000   2.319   4.175   5.680 -0.2566  0.0112 -0.5462
 7320WAT     H230001   2.427   4.253   5.647  0.2825 -0.7717 -0.6666
 7320WAT    EPW30002   2.370   4.203   5.627 -0.3642 -0.0531 -0.6842
 7321WAT      O30003   6.926   3.928   6.557  0.2416  0.3575 -0.1411
 7321WAT     H130004   6.927   3.995   6.613 -0.8026  0.8301 -0.6582
 7321WAT     H230005   6.852   3.939   6.513 -0.4563 -1.7238  0.4275
 7321WAT    EPW30006   6.915   3.940   6.559 -0.0157  0.1198 -0.1335
 7322WAT      O30007   0.177   4.663   7.248  0.6323  0.0887 -0.0981
 7322WAT     H130008   0.234   4.705   7.300  1.4435  0.6403 -1.3782
 7322WAT     H230009   0.183   4.580   7.274  0.9178  0.3663  0.7720
 7322WAT    EPW30010   0.187   4.657   7.259  0.7943  0.2112 -0.1587
 7323WAT      O30011   1.454   1.577   2.218 -0.0868 -0.2185 -0.1023
 7323WAT     H130012   1.497   1.526   2.160  1.4196  1.1872 -0.3065
 7323WAT     H230013   1.393   1.616   2.170 -0.8760 -1.3609 -0.0625
 7323WAT    EPW30014   1.452   1.575   2.202  0.0191 -0.1796 -0.1266
 7324WAT      O30015   6.031   5.388   5.605  0.6137 -0.0299  0.1618
 7324WAT     H130016   5.974   5.378   5.670  0.1467  0.1470 -0.2129
 7324WAT     H230017   6.024   5.313   5.561 -0.9438  0.8134 -1.1304
 7324WAT    EPW30018   6.022   5.375   5.608  0.3146  0.1208 -0.0844
 7325WAT      O30019   3.357   1.587   6.009  0.2045  0.1408 -0.0578
 7325WAT     H130020   3.434   1.619   5.985  0.8066 -0.0102  1.5246
 7325WAT     H230021   3.303   1.656   6.003  0.6517  0.4666 -0.3655
 7325WAT    EPW30022   3.361   1.602   6.005  0.3595  0.1666  0.1305
 7326WAT      O30023   3.968   0.022   7.035 -0.6360 -0.0227  0.0331
 7326WAT     H130024   3.982  -0.054   7.075  1.5193  0.6259  0.6437
 7326WAT     H230025   4.044   0.064   7.044 -0.9111  1.1950 -2.5267
 7326WAT    EPW30026   3.981   0.017   7.042 -0.3583  0.2530 -0.2549
 7327WAT      O30027   1.076   5.750   3.446 -0.0871 -0.0384  0.1808
 7327WAT     H130028   1.113   5.764   3.369 -1.2617 -1.2709 -0.6453
 7327WAT     H230029   1.078   5.828   3.484  0.2047  0.6698 -1.2345
 7327WAT    EPW30030   1.082   5.763   3.440 -0.2175 -0.1158 -0.1503
 7328WAT      O30031   6.565   6.688   3.352  0.3120  0.2043  0.6083
 7328WAT     H130032   6.634   6.654   3.394  0.2567  0.8007  1.1975
 7328WAT     H230033   6.584   6.772   3.345 -0.1847  0.3056  0.4210
 7328WAT    EPW30034   6.578   6.695   3.357  0.2305  0.3073  0.6677
 7329WAT      O30035   0.437   6.506   6.394 -0.1215  0.1104 -0.3472
 7329WAT     H130036   0.379   6.565   6.422  0.4905 -0.3503  2.0946
 7329WAT     H230037   0.493   6.553   6.347 -0.4861  1.2027  0.2681
 7329WAT    EPW30038   0.436   6.522   6.391 -0.0850  0.2037  0.1044
 7330WAT      O30039   2.696   3.491   0.874 -0.1001 -0.3653  0.4478
 7330WAT     H130040   2.664   3.543   0.812 -0.7942  0.9780  1.8725
 7330WAT     H230041   2.775   3.468   0.843 -0.8599 -0.6851 -1.4165
 7330WAT    EPW30042   2.703   3.495   0.860 -0.3148 -0.2141  0.3828
 7331WAT      O30043   2.785   6.877   4.945 -0.0593  0.0481  0.5888
 7331WAT     H130044   2.746   6.819   4.999  1.5182 -1.3677  0.2807
 7331WAT     H230045   2.869   6.856   4.950  0.3111  0.9290 -1.2195
 7331WAT    EPW30046   2.791   6.865   4.954  0.2284 -0.0309  0.2762
 7332WAT      O30047   4.597   6.923   1.440 -0.0798  0.1003 -0.2931
 7332WAT     H130048   4.526   6.872   1.436  0.6591 -1.1589  1.4577
 7332WAT     H230049   4.570   6.992   1.486 -0.5366  0.3130 -0.8738
 7332WAT    EPW30050   4.582   6.926   1.447 -0.0381 -0.0543 -0.1202
 7333WAT      O30051   0.335   4.866   1.298 -0.6729 -0.4854 -0.4413
 7333WAT     H130052   0.376   4.857   1.375 -0.0368  2.5739 -0.3145
 7333WAT     H230053   0.401   4.865   1.240 -0.9759 -0.8685 -0.7880
 7333WAT    EPW30054   0.351   4.864   1.301 -0.6237 -0.0901 -0.4738
 7334WAT      O30055   3.079   1.384   5.762 -0.2839 -0.0071  0.0646
 7334WAT     H130056   3.061   1.466   5.785 -1.5853 -0.4780  0.7955
 7334WAT     H230057   3.112   1.348   5.834 -0.2782 -0.2903 -0.0755
 7334WAT    EPW30058   3.081   1.391   5.776 -0.4753 -0.1185  0.1519
 7335WAT      O30059   0.071   1.976   0.582  0.6858 -0.4576 -0.1256
 7335WAT     H130060   0.089   2.044   0.530  0.3013  1.5046  2.1690
 7335WAT     H230061  -0.001   2.000   0.624  1.8260 -1.2622  2.4475
 7335WAT    EPW30062   0.063   1.989   0.580  0.7974 -0.2866  0.5935
 7336WAT      O30063   6.119   7.035   3.117  0.2897  0.4852 -0.2507
 7336WAT     H130064   6.086   7.116   3.123  2.3074  1.3165  0.4416
 7336WAT     H230065   6.072   6.999   3.054 -2.0557  1.4770  0.7907
 7336WAT    EPW30066   6.107   7.042   3.109  0.2413  0.7545  0.0054
 7337WAT      O30067   0.564   1.491   4.855 -0.4606  0.4659 -0.4960
 7337WAT     H130068   0.639   1.448   4.855  0.3652  1.8417 -0.5715
 7337WAT     H230069   0.586   1.570   4.826 -2.2184  0.4383 -2.0907
 7337WAT    EPW30070   0.578   1.496   4.851 -0.5982  0.6650 -0.7427
 7338WAT      O30071   3.395   5.790   0.616  0.0517 -0.4956 -0.1324
 7338WAT     H130072   3.379   5.763   0.535 -0.1184 -2.4220  0.4997
 7338WAT     H230073   3.442   5.725   0.650  1.1820  0.8358  0.9536
 7338WAT    EPW30074   3.400   5.777   0.609  0.1936 -0.5835  0.1214
 7339WAT      O30075   2.808   5.405   6.975 -0.4189  0.4671  0.0347
 7339WAT     H130076   2.764   5.454   7.032 -0.5134 -0.2870  0.6317
 7339WAT     H230077   2.892   5.422   6.993 -0.4521  0.5601  0.1029
 7339WAT    EPW30078   2.814   5.415   6.986 -0.4377  0.3694  0.1330
 7340WAT      O30079   6.697   1.792   5.327  0.2844 -0.1250  0.1857
 7340WAT     H130080   6.708   1.721   5.277 -1.2945 -0.1042 -0.2358
 7340WAT     H230081   6.779   1.819   5.341  0.8446 -0.9239 -1.2602
 7340WAT    EPW30082   6.711   1.786   5.321  0.1339 -0.2400 -0.0902
 7341WAT      O30083   0.675   1.094   0.075 -1.2538  0.4187 -0.0955
 7341WAT     H130084   0.623   1.035   0.039 -1.0528  0.5370 -0.5853
 7341WAT     H230085   0.666   1.164   0.024  0.5466 -0.0423 -1.1209
 7341WAT    EPW30086   0.666   1.095   0.062 -0.9581  0.3681 -0.3193
 7342WAT      O30087   5.212   6.715   5.002  0.0173 -0.6046  0.5343
 7342WAT     H130088   5.290   6.685   4.977  1.1840  1.3579  1.5705
 7342WAT     H230089   5.156   6.671   4.951  1.6944 -2.7263  0.3691
 7342WAT    EPW30090   5.215   6.704   4.991  0.4374 -0.6281  0.6630
 7343WAT      O30091   2.291   7.013   6.563 -0.6146  0.3068  0.1250
 7343WAT     H130092   2.353   7.048   6.613 -0.2951 -0.0193 -0.0384
 7343WAT     H230093   2.326   7.017   6.483  0.0928 -1.7595  0.2614
 7343WAT    EPW30094   2.306   7.019   6.558 -0.4629 -0.0466  0.1210
 7344WAT      O30095   3.285   6.458   2.264 -0.1517  0.0330  0.5302
 7344WAT     H130096   3.332   6.393   2.230 -0.8391 -0.3950  0.3772
 7344WAT     H230097   3.323   6.530   2.233  1.6670 -0.2079  2.0379
 7344WAT    EPW30098   3.298   6.459   2.255  0.0154 -0.0658  0.7303
 7345WAT      O30099   6.577   4.163   6.365 -0.0882  0.4007 -0.8814
 7345WAT     H130100   6.613   4.095   6.408  0.7610  1.0685 -0.5045
 7345WAT     H230101   6.522   4.197   6.423  1.7717  1.8946  0.1077
 7345WAT    EPW30102   6.574   4.158   6.380  0.3120  0.7200 -0.6796
 7346WAT      O30103   2.391   3.691   2.390  0.0262 -0.7178  0.0817
 7346WAT     H130104   2.399   3.673   2.475 -0.2122  2.1763  0.8067
 7346WAT     H230105   2.305   3.705   2.381  0.2497  0.5024 -0.2601
 7346WAT    EPW30106   2.379   3.690   2.401  0.0240 -0.1100  0.1383
 7347WAT      O30107   5.801   0.169   4.964 -0.6421  0.0043  0.1943
 7347WAT     H130108   5.728   0.195   4.923 -0.7895  1.6952  1.4299
 7347WAT     H230109   5.863   0.176   4.903 -0.9915  1.6752 -0.0212
 7347WAT    EPW30110   5.799   0.174   4.949 -0.7155  0.5009  0.3450
 7348WAT      O30111   5.878   3.933   6.659 -0.0886  0.0020 -0.5036
 7348WAT     H130112   5.950   3.884   6.652 -1.0339 -1.4353 -0.6879
 7348WAT     H230113   5.833   3.912   6.587 -0.3316  1.5545 -0.8519
 7348WAT    EPW30114   5.882   3.923   6.647 -0.2641  0.0190 -0.5823
 7349WAT      O30115   2.415   1.797   2.610  0.1320 -0.0611  0.2720
 7349WAT     H130116   2.496   1.828   2.621  0.1802 -0.3489  0.7552
 7349WAT     H230117   2.428   1.712   2.593  0.0086  0.1734 -1.1290
 7349WAT    EPW30118   2.429   1.789   2.609  0.1209 -0.0690  0.1364
 7350WAT      O30119   0.458   6.460   4.939 -0.2129 -0.8619  0.3161
 7350WAT     H130120   0.386   6.415   4.957 -1.5830  0.5726 -1.2301
 7350WAT     H230121   0.432   6.543   4.943  1.0365 -0.3268 -1.4015
 7350WAT    EPW30122   0.443   6.466   4.943 -0.2307 -0.5709 -0.1660
 7351WAT      O30123   5.624   5.490   5.558  0.2496 -0.5213 -0.2113
 7351WAT     H130124   5.703   5.526   5.551 -0.0513  0.5494  1.3306
 7351WAT     H230125   5.619   5.469   5.643 -0.5489 -1.9733 -0.5988
 7351WAT    EPW30126   5.635   5.492   5.570  0.0872 -0.5776 -0.0408
 7352WAT      O30127   7.222   7.086   5.245 -0.1328 -0.1194  0.6879
 7352WAT     H130128   7.228   7.048   5.167 -0.1199  0.4138  0.4279
 7352WAT     H230129   7.145   7.059   5.276 -0.2804 -0.0749  0.3554
 7352WAT    EPW30130   7.212   7.076   5.238 -0.1527 -0.0341  0.6004
 7353WAT      O30131   4.162   0.229   1.461  0.2504 -0.0335 -0.2108
 7353WAT     H130132   4.211   0.194   1.399 -0.4185  0.0939 -0.8282
 7353WAT     H230133   4.166   0.315   1.445 -0.2521 -0.0281 -0.3454
 7353WAT    EPW30134   4.170   0.236   1.450  0.0774 -0.0139 -0.3219
 7354WAT      O30135   2.577   3.225   4.802 -0.3370 -0.6155 -0.0809
 7354WAT     H130136   2.558   3.284   4.864 -0.9099 -0.9504  0.0762
 7354WAT     H230137   2.656   3.249   4.773  0.3582 -0.9484  1.4024
 7354WAT    EPW30138   2.586   3.237   4.807 -0.3189 -0.7142  0.1614
 7355WAT      O30139   2.035   5.452   5.439 -0.2698 -0.2294 -0.6264
 7355WAT     H130140   2.101   5.462   5.384  1.9632 -0.3274  1.8494
 7355WAT     H230141   2.003   5.533   5.449  0.7276  0.1527 -0.4329
 7355WAT    EPW30142   2.040   5.465   5.433  0.2074 -0.1874 -0.2321
 7356WAT      O30143   6.152   2.167   5.321 -0.1435  0.2934  0.3688
 7356WAT     H130144   6.077   2.149   5.362 -0.3778  1.4201  0.4456
 7356WAT     H230145   6.128   2.179   5.239  0.1392 -0.5443  0.1439
 7356WAT    EPW30146   6.138   2.166   5.315 -0.1363  0.3361  0.3469
 7357WAT      O30147   2.653   0.500   4.468  0.8170  0.0775  0.2336
 7357WAT     H130148   2.590   0.527   4.522  2.6710  1.8313  1.6453
 7357WAT     H230149   2.665   0.416   4.490  1.0655  0.5688  2.1260
 7357WAT    EPW30150   2.645   0.492   4.479  1.1276  0.4092  0.7217
 7358WAT      O30151   1.561   1.441   3.284  0.5506 -0.1553  0.2524
 7358WAT     H130152   1.555   1.357   3.262  0.2553 -0.4402  1.3364
 7358WAT     H230153   1.552   1.440   3.371  0.9244  0.9597  0.3256
 7358WAT    EPW30154   1.559   1.428   3.294  0.5622 -0.0327  0.4233
 7359WAT      O30155   3.206   5.852   1.884  0.1312 -0.2512  0.2199
 7359WAT     H130156   3.235   5.814   1.811 -2.2417  0.8755 -1.4427
 7359WAT     H230157   3.138   5.801   1.907  0.4345 -0.1963  1.2531
 7359WAT    EPW30158   3.200   5.839   1.877 -0.1745 -0.0767  0.1269
 7360WAT      O30159   2.824   1.798   0.538  0.0399  0.0381  0.0253
 7360WAT     H130160   2.902   1.759   0.539  0.4118  0.7673  0.4237
 7360WAT     H230161   2.778   1.751   0.482  0.5196 -0.8865  0.3890
 7360WAT    EPW30162   2.829   1.785   0.530  0.1657  0.0093  0.1379
 7361WAT      O30163   2.661   2.174   0.913 -0.2392  0.8474  0.0928
 7361WAT     H130164   2.699   2.252   0.904 -0.3105  1.0000  0.9919
 7361WAT     H230165   2.707   2.123   0.859  0.7891  1.1811  0.6253
 7361WAT    EPW30166   2.674   2.178   0.904 -0.0978  0.9192  0.3043
 7362WAT      O30167   3.707   5.687   4.054  0.2812  0.4401  0.5799
 7362WAT     H130168   3.784   5.678   4.013 -0.1327  0.7771 -0.2941
 7362WAT     H230169   3.727   5.670   4.137  0.8117 -2.0114  0.0391
 7362WAT    EPW30170   3.721   5.684   4.060  0.2984  0.1277  0.3709
 7363WAT      O30171   1.292   0.662   5.779  0.6364 -0.1201 -0.0438
 7363WAT     H130172   1.318   0.668   5.862 -1.8844  2.0459  0.7346
 7363WAT     H230173   1.345   0.718   5.737  0.9200 -0.0348  0.4245
 7363WAT    EPW30174   1.304   0.671   5.785  0.3059  0.2124  0.1403
 7364WAT      O30175   0.599   0.117   1.879  0.1539  0.2733 -0.3652
 7364WAT     H130176   0.624   0.117   1.796  0.3996 -0.8185 -0.2985
 7364WAT     H230177   0.653   0.061   1.918  0.2120  0.9560  0.5911
 7364WAT    EPW30178   0.611   0.109   1.873  0.1988  0.2129 -0.2141
 7365WAT      O30179   5.164   5.890   4.789 -0.0253 -0.2478  0.0871
 7365WAT     H130180   5.131   5.820   4.829 -2.5268  1.0989  0.5689
 7365WAT     H230181   5.211   5.929   4.851  0.2725 -0.7895  0.2081
 7365WAT    EPW30182   5.166   5.886   4.804 -0.3508 -0.1289  0.1761
 7366WAT      O30183   4.783   5.786   1.346 -0.0511  0.1935 -0.2486
 7366WAT     H130184   4.862   5.798   1.380  0.1127  2.5446 -1.2407
 7366WAT     H230185   4.729   5.812   1.409 -0.0186 -0.5778  0.1092
 7366WAT    EPW30186   4.786   5.792   1.360 -0.0221  0.4269 -0.3423
 7367WAT      O30187   1.158   1.264   0.492 -0.1635  0.0609 -0.3671
 7367WAT     H130188   1.161   1.216   0.565 -0.2916  1.9319  0.9204
 7367WAT     H230189   1.230   1.238   0.449  0.4199 -0.4413  0.8431
 7367WAT    EPW30190   1.169   1.253   0.496 -0.0962  0.2631  0.0019
 7368WAT      O30191   2.198   1.552   0.059 -0.1827  0.7628 -0.1994
 7368WAT     H130192   2.242   1.497   0.007 -0.0235 -0.3701  1.0772
 7368WAT     H230193   2.259   1.580   0.115 -0.7587  0.3677  0.6395
 7368WAT    EPW30194   2.213   1.548   0.059 -0.2442  0.5371  0.1131
 7369WAT      O30195   3.481   3.804   6.841 -0.1677  0.4837 -0.4459
 7369WAT     H130196   3.543   3.743   6.838  0.2832  0.9707 -2.6728
 7369WAT     H230197   3.504   3.853   6.910 -0.2242 -1.4488  1.0417
 7369WAT    EPW30198   3.494   3.802   6.851 -0.1094  0.2702 -0.5551
 7370WAT      O30199   1.755   1.296   1.535 -0.2252 -0.4826 -0.1267
 7370WAT     H130200   1.778   1.315   1.617  0.7791  1.8528 -0.8713
 7370WAT     H230201   1.703   1.362   1.512 -0.7092 -1.2426 -1.2995
 7370WAT    EPW30202   1.751   1.308   1.543 -0.1484 -0.2499 -0.4099
 7371WAT      O30203   6.000   3.243   5.586  0.7750  0.3888  0.0823
 7371WAT     H130204   6.021   3.207   5.663 -0.0280  2.4841  1.3753
 7371WAT     H230205   6.037   3.322   5.590 -1.0073  1.3212 -0.7451
 7371WAT    EPW30206   6.009   3.249   5.598  0.3931  0.8360  0.1511
 7372WAT      O30207   1.045   3.495   6.298 -0.1814 -0.3248  0.3332
 7372WAT     H130208   1.099   3.561   6.279 -0.1007 -0.2059  0.9465
 7372WAT     H230209   0.996   3.526   6.363  1.6806 -1.7302  2.5608
 7372WAT    EPW30210   1.046   3.509   6.305  0.1056 -0.5148  0.7529
 7373WAT      O30211   2.316   3.298   7.231 -0.4439  1.0025 -0.3649
 7373WAT     H130212   2.239   3.299   7.191  0.5718 -0.8233 -2.6334
 7373WAT     H230213   2.372   3.312   7.166  1.3356 -1.8424  0.3611
 7373WAT    EPW30214   2.313   3.300   7.215 -0.0310  0.3126 -0.5928
 7374WAT      O30215   1.253   7.096   0.930  0.7435 -0.5801 -0.2290
 7374WAT     H130216   1.339   7.087   0.918  0.8958  0.2461  0.1535
 7374WAT     H230217   1.247   7.168   0.980 -0.1207 -1.1431  0.5114
 7374WAT    EPW30218   1.265   7.105   0.936  0.6383 -0.5412 -0.0631
 7375WAT      O30219   4.371   5.967   5.964 -0.2445  0.0991  0.4294
 7375WAT     H130220   4.385   5.882   5.945 -1.3264  0.2059 -1.0462
 7375WAT     H230221   4.341   5.965   6.046 -0.6704 -1.0124  0.2675
 7375WAT    EPW30222   4.368   5.954   5.973 -0.4672 -0.0494  0.1875
 7376WAT      O30223   1.735   6.041   0.405 -0.2106 -0.3469 -0.2895
 7376WAT     H130224   1.808   5.996   0.425 -0.2721  0.6444  2.7861
 7376WAT     H230225   1.752   6.075   0.327  2.5122 -0.4200  0.1779
 7376WAT    EPW30226   1.748   6.039   0.397  0.1825 -0.2113  0.2339
 7377WAT      O30227   0.778   5.895   1.411 -0.7324 -0.2162  0.0240
 7377WAT     H130228   0.739   5.901   1.489 -1.2935 -0.0625 -0.2606
 7377WAT     H230229   0.840   5.836   1.424 -1.5814 -1.0728  0.2790
 7377WAT    EPW30230   0.781   5.887   1.425 -0.9407 -0.3200  0.0197
 7378WAT      O30231   2.431   0.950   3.086 -0.1277 -0.0101  0.1722
 7378WAT     H130232   2.439   0.919   3.005 -1.1524 -1.5916  0.6299
 7378WAT     H230233   2.406   1.033   3.074  1.3329  0.2939 -1.1063
 7378WAT    EPW30234   2.429   0.958   3.072 -0.0633 -0.1988  0.0509
 7379WAT      O30235   3.203   6.955   0.584  0.1135  0.2225  0.1054
 7379WAT     H130236   3.141   7.004   0.546  1.7543  0.9766 -1.7715
 7379WAT     H230237   3.263   7.013   0.608 -0.2017 -0.4042  2.7112
 7379WAT    EPW30238   3.202   6.971   0.582  0.3093  0.2413  0.2131
 7380WAT      O30239   4.911   6.159   4.972 -0.2474 -0.0462  0.5332
 7380WAT     H130240   4.854   6.198   5.026  1.5933  1.7872  1.2810
 7380WAT     H230241   4.964   6.116   5.026  0.7560  0.6277  0.1124
 7380WAT    EPW30242   4.910   6.159   4.988  0.1727  0.3242  0.5815
 7381WAT      O30243   4.772   5.856   5.478  0.3013 -0.2762 -0.1500
 7381WAT     H130244   4.720   5.789   5.500 -0.2643  0.7222  1.7541
 7381WAT     H230245   4.722   5.902   5.424  1.7866 -2.8688 -4.2704
 7381WAT    EPW30246   4.757   5.853   5.473  0.4372 -0.5117 -0.4774
 7382WAT      O30247   1.202   0.561   1.773 -0.3571  0.3231 -0.3035
 7382WAT     H130248   1.118   0.584   1.774  0.1576  2.6910  2.9502
 7382WAT     H230249   1.243   0.632   1.741  0.5264 -0.2400 -0.4693
 7382WAT    EPW30250   1.196   0.575   1.768 -0.1506  0.5897  0.1527
 7383WAT      O30251   1.929   0.447   3.916 -0.1082 -0.3088 -0.7131
 7383WAT     H130252   1.888   0.371   3.929  0.1705 -0.2221  0.8561
 7383WAT     H230253   2.003   0.438   3.962 -0.4289  1.1812  0.1558
 7383WAT    EPW30254   1.934   0.434   3.925 -0.1144 -0.0759 -0.3529
 7384WAT      O30255   5.353   0.047   3.273  0.2493 -0.8050  0.6211
 7384WAT     H130256   5.279   0.080   3.306  0.4603  0.3037  0.0530
 7384WAT     H230257   5.329  -0.029   3.239 -0.4584 -0.8443  1.1842
 7384WAT    EPW30258   5.339   0.041   3.273  0.1759 -0.6470  0.6203
 7385WAT      O30259   3.336   6.154   4.908 -0.3342 -0.3718  0.2936
 7385WAT     H130260   3.325   6.218   4.966  0.7609  0.8528 -0.7575
 7385WAT     H230261   3.267   6.162   4.855 -1.2250 -1.3571  1.2691
 7385WAT    EPW30262   3.324   6.165   4.909 -0.3040 -0.3364  0.2824
 7386WAT      O30263   1.997   1.178   6.596  0.7694  0.6004 -0.6977
 7386WAT     H130264   2.055   1.200   6.657 -0.2538 -0.3185  0.6535
 7386WAT     H230265   2.043   1.179   6.522  2.5107 -0.1359  0.3306
 7386WAT    EPW30266   2.012   1.181   6.594  0.8755  0.3559 -0.3462
 7387WAT      O30267   3.687   6.757   3.492  0.5372 -0.5124  0.5854
 7387WAT     H130268   3.677   6.758   3.405 -0.3721  1.6176  0.6681
 7387WAT     H230269   3.704   6.673   3.509 -2.1692 -1.6007 -1.3381
 7387WAT    EPW30270   3.688   6.745   3.481  0.0031 -0.3585  0.3135
 7388WAT      O30271   2.544   3.395   5.014 -0.3376  0.4447  0.5192
 7388WAT     H130272   2.531   3.466   4.965 -0.4027  0.2582  0.2634
 7388WAT     H230273   2.619   3.412   5.056 -0.9987  1.1981  1.4191
 7388WAT    EPW30274   2.553   3.408   5.013 -0.4449  0.5285  0.6143
 7389WAT      O30275   2.770   0.262   4.566 -0.2278  0.1526  0.4735
 7389WAT     H130276   2.719   0.198   4.536 -0.7706  0.4297  0.7796
 7389WAT     H230277   2.848   0.244   4.532 -0.5918 -0.1236 -0.2279
 7389WAT    EPW30278   2.774   0.250   4.557 -0.3618  0.1527  0.4151
 7390WAT      O30279   3.853   1.602   4.614 -0.1519 -0.2174 -0.3144
 7390WAT     H130280   3.912   1.598   4.550 -0.6907  0.6888 -0.8933
 7390WAT     H230281   3.814   1.680   4.601  0.9667  0.8747  2.1917
 7390WAT    EPW30282   3.856   1.613   4.602 -0.0662  0.0778 -0.0297
 7391WAT      O30283   2.382   4.752   7.378  0.2277 -0.0263 -0.0349
 7391WAT     H130284   2.339   4.767   7.452 -1.4577 -0.0300 -0.9743
 7391WAT     H230285   2.358   4.818   7.326  0.5704 -0.5793 -0.9291
 7391WAT    EPW30286   2.372   4.764   7.381  0.0294 -0.1085 -0.3058
 7392WAT      O30287   0.853   0.857   5.288  0.2542  0.2875  0.2618
 7392WAT     H130288   0.787   0.901   5.324  0.7224  0.9016  0.3862
 7392WAT     H230289   0.915   0.918   5.278  0.9630 -0.3705  0.5631
 7392WAT    EPW30290   0.852   0.872   5.292  0.4281  0.2810  0.3247
 7393WAT      O30291   4.096   2.103   2.466  0.0843  0.2665  0.0873
 7393WAT     H130292   4.176   2.128   2.490  0.5151 -0.4328 -0.5651
 7393WAT     H230293   4.079   2.037   2.521 -0.1913  0.6429  0.4550
 7393WAT    EPW30294   4.106   2.097   2.478  0.1073  0.2188  0.0452
 7394WAT      O30295   1.346   1.724   2.018  0.1953  0.0666 -0.0678
 7394WAT     H130296   1.283   1.770   2.058 -0.5974 -1.6307  0.7537
 7394WAT     H230297   1.310   1.703   1.941 -0.0544 -0.4650  0.1897
 7394WAT    EPW30298   1.331   1.728   2.013  0.0413 -0.2627  0.0916
 7395WAT      O30299   0.785   5.615   2.660  0.0533 -0.3000  0.5249
 7395WAT     H130300   0.709   5.652   2.642 -0.3441 -0.9960  0.7470
 7395WAT     H230301   0.773   5.578   2.738 -0.8140 -4.0231 -1.1216
 7395WAT    EPW30302   0.772   5.615   2.669 -0.1335 -0.9528  0.3145
 7396WAT      O30303   4.559   5.586   3.000  0.1418  1.0748  0.3581
 7396WAT     H130304   4.514   5.547   3.064 -0.5614 -2.6778 -2.0367
 7396WAT     H230305   4.497   5.630   2.957 -0.0587  0.9304  0.4911
 7396WAT    EPW30306   4.543   5.586   3.003  0.0083  0.4991  0.0240
 7397WAT      O30307   6.017   5.475   2.278 -0.0708 -0.0549  0.2712
 7397WAT     H130308   6.090   5.460   2.231  1.2748  0.7386  2.0104
 7397WAT     H230309   5.987   5.394   2.294  1.4326 -0.5203  0.9784
 7397WAT    EPW30310   6.024   5.461   2.273  0.3500 -0.0064  0.6326
 7398WAT      O30311   1.205   5.371   2.248 -1.0046 -0.1009  0.3150
 7398WAT     H130312   1.220   5.403   2.328 -1.9377 -0.0777  0.4857
 7398WAT     H230313   1.200   5.285   2.261 -0.7872 -0.1294  0.2184
 7398WAT    EPW30314   1.206   5.363   2.262 -1.1103 -0.1017  0.3259
 7399WAT      O30315   6.518   1.444   7.341 -0.1290 -0.3402 -0.1502
 7399WAT     H130316   6.575   1.379   7.353 -1.4047 -1.4902  0.0365
 7399WAT     H230317   6.529   1.466   7.257  0.1185 -1.0202 -0.3009
 7399WAT    EPW30318   6.528   1.437   7.331 -0.2809 -0.6105 -0.1449
 7400WAT      O30319   5.823   0.308   7.212 -0.7275  0.2567 -0.1273
 7400WAT     H130320   5.879   0.301   7.146  0.1258  0.8948  0.5036
 7400WAT     H230321   5.837   0.234   7.258 -1.9707 -0.6305 -1.1145
 7400WAT    EPW30322   5.833   0.296   7.209 -0.7851  0.2199 -0.1799
 7401WAT      O30323   2.799   5.725   5.743 -0.2608  0.3665 -0.0641
 7401WAT     H130324   2.762   5.663   5.793 -1.3259 -0.5319 -1.8398
 7401WAT     H230325   2.739   5.788   5.740 -0.6863 -0.0740 -1.0811
 7401WAT    EPW30326   2.785   5.725   5.750 -0.4810  0.1687 -0.4766
 7402WAT      O30327   3.749   6.021   1.777 -0.1539 -0.0680 -0.3970
 7402WAT     H130328   3.764   6.101   1.810  1.5063 -0.3843 -0.2920
 7402WAT     H230329   3.746   5.970   1.847  3.1866 -0.7123 -0.5554
 7402WAT    EPW30330   3.751   6.026   1.792  0.5848 -0.2099 -0.4049
 7403WAT      O30331   6.032   7.045   5.722 -0.0373  0.4121  0.0927
 7403WAT     H130332   5.945   7.044   5.712  0.1276  1.4900 -2.0021
 7403WAT     H230333   6.060   7.093   5.655  2.0815  1.5332  1.6409
 7403WAT    EPW30334   6.023   7.052   5.711  0.3001  0.7369  0.0120
 7404WAT      O30335   6.235   6.458   6.766 -0.3132 -0.2964 -0.0952
 7404WAT     H130336   6.259   6.536   6.735  0.8354  0.1602  1.8060
 7404WAT     H230337   6.251   6.404   6.699  1.6774  0.6635 -0.4752
 7404WAT    EPW30338   6.241   6.462   6.751  0.1505 -0.0872  0.1296
 7405WAT      O30339   2.798   0.950   2.500  0.2208 -0.9071 -0.3218
 7405WAT     H130340   2.774   0.958   2.584  0.9572  0.3125 -0.1941
 7405WAT     H230341   2.817   1.032   2.478 -1.0601 -1.0239 -2.0359
 7405WAT    EPW30342   2.797   0.964   2.509  0.1403 -0.7442 -0.5562
 7406WAT      O30343   6.851   2.534   0.984  0.5057 -0.0564  0.1662
 7406WAT     H130344   6.774   2.496   1.000  1.8016 -3.2303 -0.2924
 7406WAT     H230345   6.865   2.516   0.900  2.4351 -1.0883  0.6434
 7406WAT    EPW30346   6.842   2.525   0.974  0.9821 -0.6777  0.1690
 7407WAT      O30347   2.795   4.089   2.164 -0.4258  0.1945  0.4159
 7407WAT     H130348   2.836   4.043   2.103  1.3832  0.8288  1.0894
 7407WAT     H230349   2.761   4.157   2.121  1.6571  1.1617  0.1856
 7407WAT    EPW30350   2.796   4.092   2.149  0.1491  0.4311  0.4814
 7408WAT      O30351   2.312   5.348   2.553 -0.1104 -0.2175 -0.0241
 7408WAT     H130352   2.248   5.405   2.569 -0.1764 -0.2518 -0.1661
 7408WAT     H230353   2.382   5.384   2.591 -0.6125 -1.1144  1.8847
 7408WAT    EPW30354   2.313   5.362   2.561 -0.1943 -0.3551  0.2369
 7409WAT      O30355   4.795   0.984   5.765 -0.3406 -0.9170  0.0908
 7409WAT     H130356   4.790   0.973   5.851  1.3109  1.3931  0.5854
 7409WAT     H230357   4.782   1.069   5.754 -0.3734 -1.1321 -1.9311
 7409WAT    EPW30358   4.793   0.995   5.776 -0.1015 -0.6075 -0.1348
 7410WAT      O30359   1.564   0.474   3.132 -0.6157 -0.5426  0.3187
 7410WAT     H130360   1.539   0.533   3.191 -0.8128  0.3013 -0.5833
 7410WAT     H230361   1.636   0.510   3.097  0.4995 -1.8077  1.1755
 7410WAT    EPW30362   1.571   0.488   3.136 -0.4800 -0.6048  0.3120
 7411WAT      O30363   1.740   6.254   4.398  0.1713  0.2458  0.2668
 7411WAT     H130364   1.777   6.303   4.460  1.8609 -0.8068  0.1651
 7411WAT     H230365   1.678   6.210   4.441  0.9237 -0.0330  1.1063
 7411WAT    EPW30366   1.736   6.255   4.414  0.5320  0.0491  0.3758
 7412WAT      O30367   1.932   6.794   2.271 -0.4152  0.4732 -0.5046
 7412WAT     H130368   1.868   6.777   2.213 -0.6411  1.0120 -0.4244
 7412WAT     H230369   1.893   6.786   2.348  0.3033 -1.9689 -0.3221
 7412WAT    EPW30370   1.917   6.790   2.274 -0.3424  0.1920 -0.4658
 7413WAT      O30371   1.236   6.077   7.379  0.1737 -0.0159 -0.0746
 7413WAT     H130372   1.160   6.035   7.383  0.2110 -0.1168 -0.3357
 7413WAT     H230373   1.264   6.078   7.461 -0.5934  0.9403  0.1852
 7413WAT    EPW30374   1.229   6.071   7.392  0.0659  0.1105 -0.0748
 7414WAT      O30375   5.250   5.599   2.908 -0.5773  0.4233 -0.3937
 7414WAT     H130376   5.333   5.579   2.889 -0.2202  1.5609 -0.0639
 7414WAT     H230377   5.255   5.629   2.990 -1.2988  0.6234 -0.4239
 7414WAT    EPW30378   5.263   5.600   2.917 -0.6312  0.6209 -0.3494
 7415WAT      O30379   3.561   5.436   2.396 -0.3762  0.6170 -0.2301
 7415WAT     H130380   3.515   5.362   2.390 -0.0467  0.4398 -0.6913
 7415WAT     H230381   3.519   5.482   2.456 -0.1596 -0.2479  0.5997
 7415WAT    EPW30382   3.548   5.432   2.404 -0.2955  0.4630 -0.1756
 7416WAT      O30383   6.777   0.289   7.136  0.0787 -0.1139 -0.9525
 7416WAT     H130384   6.864   0.292   7.130  0.4027 -0.5586  1.8849
 7416WAT     H230385   6.757   0.212   7.100  1.4693 -2.0773  2.0697
 7416WAT    EPW30386   6.787   0.278   7.130  0.3320 -0.4697 -0.0869
 7417WAT      O30387   5.827   1.466   7.357 -0.4518  0.0297  0.1428
 7417WAT     H130388   5.748   1.498   7.372  0.4116  2.1599  0.5504
 7417WAT     H230389   5.857   1.447   7.437 -0.2958 -0.1181  0.0509
 7417WAT    EPW30390   5.820   1.468   7.371 -0.3012  0.3225  0.1894
 7418WAT      O30391   6.593   1.674   5.876  0.0879 -0.8080  0.1053
 7418WAT     H130392   6.510   1.678   5.902 -0.1766 -0.2767 -0.7825
 7418WAT     H230393   6.593   1.608   5.818  0.1908 -0.5253 -0.2183
 7418WAT    EPW30394   6.581   1.665   5.871  0.0641 -0.6877 -0.0736
 7419WAT      O30395   1.664   5.005   7.269  0.5350  0.4728  0.0815
 7419WAT     H130396   1.731   5.047   7.232  1.7242 -0.0737  1.5032
 7419WAT     H230397   1.609   5.069   7.289  1.7637  1.2585  1.1022
 7419WAT    EPW30398   1.666   5.021   7.267  0.8922  0.5082  0.4423
 7420WAT      O30399   5.664   6.535   4.436  0.2717 -0.2527 -0.3340
 7420WAT     H130400   5.654   6.552   4.521  0.3898 -1.6440 -0.0095
 7420WAT     H230401   5.603   6.474   4.420 -0.3817  0.6563 -1.4899
 7420WAT    EPW30402   5.653   6.529   4.446  0.1926 -0.3239 -0.4568
 7421WAT      O30403   5.940   6.332   3.859  0.0616 -0.0855  0.0144
 7421WAT     H130404   5.882   6.269   3.851  0.0692 -0.2767  1.3347
 7421WAT     H230405   5.907   6.385   3.920  0.2398  0.9887 -0.7706
 7421WAT    EPW30406   5.927   6.331   3.866  0.0891  0.0449  0.0935
 7422WAT      O30407   4.633   1.267   2.956  0.2007  0.5325 -0.2283
 7422WAT     H130408   4.588   1.225   3.018  0.9170  1.1980  0.7892
 7422WAT     H230409   4.700   1.302   3.000  1.0150  0.6134 -1.4816
 7422WAT    EPW30410   4.637   1.266   2.972  0.4268  0.6428 -0.2631
 7423WAT      O30411   5.615   5.577   0.599 -0.0327  0.4198 -0.2179
 7423WAT     H130412   5.570   5.649   0.614 -2.0688 -0.7598 -0.3282
 7423WAT     H230413   5.620   5.574   0.512  1.2640  1.0915 -0.1923
 7423WAT    EPW30414   5.609   5.587   0.588 -0.1419  0.3448 -0.2304
 7424WAT      O30415   6.192   2.894   1.624  0.4760 -0.4935  0.9430
 7424WAT     H130416   6.127   2.879   1.682 -0.6906  0.2033 -0.1261
 7424WAT     H230417   6.160   2.861   1.550 -0.3239  3.0278 -0.4806
 7424WAT    EPW30418   6.177   2.887   1.622  0.1855  0.1296  0.5748
 7425WAT      O30419   6.325   5.168   1.844  0.0106  0.3494  0.0594
 7425WAT     H130420   6.309   5.138   1.764  1.1295 -1.2900  0.4034
 7425WAT     H230421   6.378   5.108   1.878 -0.3517  1.0673  1.9974
 7425WAT    EPW30422   6.331   5.154   1.837  0.1224  0.2133  0.3965
 7426WAT      O30423   1.751   3.651   0.452  0.0782 -0.2847 -0.1663
 7426WAT     H130424   1.838   3.653   0.460  0.0753  1.2070 -0.2281
 7426WAT     H230425   1.724   3.642   0.534  0.2757  3.1517  0.4185
 7426WAT    EPW30426   1.760   3.650   0.465  0.1069  0.4433 -0.0890
 7427WAT      O30427   6.427   4.005   6.857 -0.5991  0.0256 -0.1835
 7427WAT     H130428   6.484   4.064   6.829 -1.1542  0.1217 -1.1722
 7427WAT     H230429   6.352   4.050   6.862 -0.7461 -0.2733  0.3696
 7427WAT    EPW30430   6.424   4.020   6.853 -0.7028 -0.0044 -0.2479
 7428WAT      O30431   5.713   4.494   5.719  0.4713  0.4847 -0.0514
 7428WAT     H130432   5.654   4.501   5.783  0.8003  1.1465  0.1859
 7428WAT     H230433   5.691   4.559   5.664  1.1114  0.8838  0.1538
 7428WAT    EPW30434   5.701   4.505   5.721  0.6145  0.6414  0.0140
 7429WAT      O30435   6.069   6.237   3.247 -0.4527  0.7346 -0.1181
 7429WAT     H130436   6.012   6.293   3.280  0.6113  1.4665  0.5456
 7429WAT     H230437   6.145   6.261   3.283  0.4339  0.3534 -1.6480
 7429WAT    EPW30438   6.072   6.249   3.257 -0.1645  0.7864 -0.2461
 7430WAT      O30439   3.705   0.259   1.450  0.1463 -0.4574  0.3730
 7430WAT     H130440   3.622   0.248   1.424  0.7132 -1.8826 -0.9905
 7430WAT     H230441   3.697   0.303   1.525 -1.7100  2.2183 -1.1821
 7430WAT    EPW30442   3.691   0.264   1.457 -0.0442 -0.2727 -0.0582
 7431WAT      O30443   0.628   2.921   6.857  0.1132 -0.1732 -0.1246
 7431WAT     H130444   0.686   2.962   6.908  0.5599 -0.5790 -0.2979
 7431WAT     H230445   0.596   2.858   6.908 -3.1172  2.3709  1.3441
 7431WAT    EPW30446   0.632   2.918   6.872 -0.2980  0.1427  0.0668
 7432WAT      O30447   1.216   6.934   1.304  0.3939 -0.9076  0.2166
 7432WAT     H130448   1.182   6.940   1.224  0.8027 -0.8797  0.0469
 7432WAT     H230449   1.286   6.884   1.293  0.0224 -1.5531  0.6926
 7432WAT    EPW30450   1.221   6.928   1.291  0.3994 -0.9988  0.2619
 7433WAT      O30451   4.866   2.514   5.265 -0.0804  0.6310  0.1018
 7433WAT     H130452   4.905   2.555   5.332 -0.3059  2.1294 -0.6352
 7433WAT     H230453   4.818   2.453   5.303 -1.3398  2.3645  1.4779
 7433WAT    EPW30454   4.865   2.511   5.280 -0.2997  1.1084  0.1962
 7434WAT      O30455   3.120   4.416   2.467 -0.0718  0.2254  0.4418
 7434WAT     H130456   3.190   4.392   2.422  0.1761 -2.6173  2.0413
 7434WAT     H230457   3.092   4.487   2.427  4.8659  2.8622  0.8918
 7434WAT    EPW30458   3.126   4.423   2.455  0.6942  0.1950  0.7445
 7435WAT      O30459   2.851   3.348   2.140  0.0876 -0.0964  0.1260
 7435WAT     H130460   2.929   3.386   2.125 -0.0267  0.6919  1.3341
 7435WAT     H230461   2.823   3.389   2.212 -2.2314  0.8406 -1.2238
 7435WAT    EPW30462   2.858   3.360   2.148 -0.2719  0.1585  0.1050
 7436WAT      O30463   4.166   4.432   2.196 -0.1539 -0.2340 -0.1761
 7436WAT     H130464   4.180   4.490   2.133 -1.1280  1.0302  0.7281
 7436WAT     H230465   4.092   4.460   2.234  0.1508 -1.2148  1.2248
 7436WAT    EPW30466   4.157   4.445   2.192 -0.2528 -0.1921  0.1644
 7437WAT      O30467   6.596   1.423   1.664  0.4669 -0.1841 -0.4539
 7437WAT     H130468   6.540   1.429   1.598  1.6556  0.1362 -1.4760
 7437WAT     H230469   6.672   1.404   1.625  1.6249  1.9257  0.5578
 7437WAT    EPW30470   6.599   1.421   1.649  0.8136  0.1749 -0.4554
 7438WAT      O30471   6.867   5.424   6.188  0.2369  0.4182 -0.2921
 7438WAT     H130472   6.913   5.420   6.115 -0.8360 -0.6754 -0.9478
 7438WAT     H230473   6.832   5.504   6.186  4.0873  2.4354  1.5814
 7438WAT    EPW30474   6.868   5.436   6.177  0.6472  0.5547 -0.1122
 7439WAT      O30475   3.510   3.058   1.820  0.3380  0.1160  0.0349
 7439WAT     H130476   3.452   3.009   1.778 -1.4251  1.5123  0.7045
 7439WAT     H230477   3.568   3.079   1.759 -0.5265 -0.3184 -0.9638
 7439WAT    EPW30478   3.510   3.054   1.805 -0.0502  0.2581 -0.0137
 7440WAT      O30479   1.136   6.624   6.849  0.5135 -0.3709  0.0080
 7440WAT     H130480   1.169   6.597   6.773  1.3544 -0.0762  0.2483
 7440WAT     H230481   1.207   6.634   6.899 -0.1020 -1.6228  1.1951
 7440WAT    EPW30482   1.152   6.622   6.845  0.5468 -0.5123  0.2188
 7441WAT      O30483   4.698   3.824   1.474 -0.2732  0.4175 -0.6278
 7441WAT     H130484   4.653   3.896   1.453  0.1602  0.4993 -1.2879
 7441WAT     H230485   4.761   3.853   1.526 -1.6518  0.1475  1.2860
 7441WAT    EPW30486   4.700   3.839   1.478 -0.4128  0.3897 -0.4426
 7442WAT      O30487   2.794   4.786   6.402  0.1733  0.3014 -0.1837
 7442WAT     H130488   2.856   4.786   6.463 -0.4387  0.5065  0.4566
 7442WAT     H230489   2.821   4.846   6.345  0.5749  0.3653  0.0677
 7442WAT    EPW30490   2.807   4.795   6.403  0.1422  0.3411 -0.0520
 7443WAT      O30491   0.095   0.963   2.973  0.2839 -0.3631  0.4873
 7443WAT     H130492   0.079   1.034   3.020  0.3147  0.4819 -0.7330
 7443WAT     H230493   0.094   0.899   3.032 -1.3592  0.4320  1.3855
 7443WAT    EPW30494   0.092   0.964   2.989  0.0457 -0.1208  0.4397
 7444WAT      O30495   0.908   1.963   7.075  0.1772  0.4253 -0.0914
 7444WAT     H130496   0.836   2.003   7.104  0.9193  1.4020  0.4601
 7444WAT     H230497   0.904   1.976   6.988 -0.1219  0.7793 -0.0271
 7444WAT    EPW30498   0.896   1.971   7.066  0.2427  0.6219 -0.0004
 7445WAT      O30499   1.312   7.162   1.493  0.2980 -0.3885  0.2125
 7445WAT     H130500   1.398   7.154   1.506  0.7009  0.5887 -1.4424
 7445WAT     H230501   1.290   7.087   1.455  0.2149 -0.9961  1.4156
 7445WAT    EPW30502   1.321   7.150   1.489  0.3452 -0.3339  0.1457
 7446WAT      O30503   3.862   6.606   2.333 -0.1124  0.3944 -0.2765
 7446WAT     H130504   3.938   6.607   2.289 -0.4795  1.3716 -0.9365
 7446WAT     H230505   3.819   6.539   2.297  0.6346 -0.5406  0.5026
 7446WAT    EPW30506   3.867   6.596   2.321 -0.0563  0.4007 -0.2589
 7447WAT      O30507   2.381   1.188   0.382  0.2180 -0.5409  0.0160
 7447WAT     H130508   2.435   1.248   0.416 -0.9170  0.7107 -0.3069
 7447WAT     H230509   2.312   1.235   0.356 -0.1752 -1.8335 -1.4048
 7447WAT    EPW30510   2.379   1.204   0.383 -0.0077 -0.5469 -0.2416
 7448WAT      O30511   1.424   1.471   1.006 -0.1766  0.8366  0.1663
 7448WAT     H130512   1.343   1.470   1.037 -0.1741  3.5360  0.4917
 7448WAT     H230513   1.471   1.438   1.072 -0.7746  1.4709  0.9356
 7448WAT    EPW30514   1.419   1.466   1.020 -0.2646  1.3290  0.3280
 7449WAT      O30515   0.941   4.386   7.265  0.0181 -0.7111  0.0014
 7449WAT     H130516   0.932   4.463   7.224  1.5919  0.2543  1.3489
 7449WAT     H230517   0.864   4.375   7.305 -0.6347 -0.4377 -1.1353
 7449WAT    EPW30518   0.928   4.396   7.265  0.1541 -0.5281  0.0325
 7450WAT      O30519   3.112   6.853   2.081  0.1836  0.0473  0.3175
 7450WAT     H130520   3.178   6.843   2.025  0.9182  1.1990  0.9548
 7450WAT     H230521   3.085   6.771   2.095  0.8756 -0.3656 -0.6471
 7450WAT    EPW30522   3.118   6.839   2.075  0.3943  0.1565  0.2692
 7451WAT      O30523   1.508   6.189   0.480  0.6160  0.3978 -0.6858
 7451WAT     H130524   1.578   6.144   0.454  0.2514  0.6650 -2.2384
 7451WAT     H230525   1.530   6.217   0.560  1.6873 -0.7433 -0.5533
 7451WAT    EPW30526   1.522   6.187   0.488  0.7204  0.2687 -0.8955
 7452WAT      O30527   4.762   0.168   3.411 -0.0622 -0.2496 -0.2588
 7452WAT     H130528   4.708   0.151   3.344 -0.7875 -1.6824  0.6511
 7452WAT     H230529   4.829   0.209   3.373 -1.7903  1.6987 -1.4198
 7452WAT    EPW30530   4.764   0.172   3.395 -0.4246 -0.1735 -0.2959
 7453WAT      O30531   1.858   4.746   1.271 -0.5664  0.5766 -0.2429
 7453WAT     H130532   1.839   4.684   1.330  0.0998  1.3155  0.7925
 7453WAT     H230533   1.780   4.783   1.255 -1.5134 -2.2478 -3.0264
 7453WAT    EPW30534   1.844   4.742   1.278 -0.6079  0.2686 -0.5011
 7454WAT      O30535   3.772   1.029   2.387  0.1232  0.1089  0.0074
 7454WAT     H130536   3.784   1.103   2.433 -1.1864 -0.1166  0.7380
 7454WAT     H230537   3.838   0.978   2.414 -1.3946 -0.5630  2.8424
 7454WAT    EPW30538   3.784   1.033   2.398 -0.2945 -0.0237  0.5341
 7455WAT      O30539   4.988   4.224   4.455 -0.0751 -0.7141 -0.2014
 7455WAT     H130540   5.029   4.236   4.531 -1.8465 -0.1023  0.6953
 7455WAT     H230541   5.008   4.142   4.434  1.8576 -0.3498  0.0002
 7455WAT    EPW30542   4.997   4.214   4.463 -0.0513 -0.5699 -0.0392
 7456WAT      O30543   2.497   4.881   2.778 -0.4917  0.0213  0.4273
 7456WAT     H130544   2.492   4.878   2.691  0.7433 -1.8379  0.3727
 7456WAT     H230545   2.577   4.851   2.795 -1.4591 -1.6944  2.2726
 7456WAT    EPW30546   2.508   4.876   2.767 -0.4522 -0.5068  0.6918
 7457WAT      O30547   0.423   3.140   1.106 -0.5063 -0.1907 -0.1192
 7457WAT     H130548   0.406   3.063   1.144  0.4932 -0.7643 -0.7988
 7457WAT     H230549   0.348   3.159   1.066 -1.6698  0.5440  2.2347
 7457WAT    EPW30550   0.409   3.132   1.105 -0.5305 -0.1669  0.1281
 7458WAT      O30551   0.068   4.709   4.773  0.1071  0.0266  0.2379
 7458WAT     H130552  -0.017   4.705   4.754  0.0768 -0.6363  0.4952
 7458WAT     H230553   0.075   4.782   4.821 -0.4188 -0.2229  0.7037
 7458WAT    EPW30554   0.057   4.719   4.777  0.0249 -0.1082  0.3447
 7459WAT      O30555   1.769   0.192   7.156 -0.4523 -0.0903 -0.5918
 7459WAT     H130556   1.766   0.134   7.221  1.5572 -0.8306 -1.0928
 7459WAT     H230557   1.796   0.265   7.195  0.7099 -0.5229 -0.5382
 7459WAT    EPW30558   1.773   0.194   7.171  0.0162 -0.2636 -0.6579
 7460WAT      O30559   3.556   1.804   0.644 -0.0193  0.0291 -0.1433
 7460WAT     H130560   3.563   1.873   0.591  0.2782  1.2530  1.4026
 7460WAT     H230561   3.499   1.831   0.705 -2.2223 -2.1819 -1.0438
 7460WAT    EPW30562   3.549   1.818   0.645 -0.3008 -0.1167 -0.0479
 7461WAT      O30563   3.367   2.084   4.208  0.2488  0.5042 -0.7370
 7461WAT     H130564   3.351   2.001   4.227 -1.8537  0.6082 -1.7327
 7461WAT     H230565   3.434   2.105   4.260 -0.3790 -1.2565  0.8858
 7461WAT    EPW30566   3.375   2.075   4.218 -0.1545  0.2595 -0.6443
 7462WAT      O30567   6.269   2.457   6.471 -0.2372 -0.2089  0.5511
 7462WAT     H130568   6.198   2.409   6.454  0.2889 -0.8935  0.2347
 7462WAT     H230569   6.333   2.398   6.478 -0.0147  0.2276  2.7354
 7462WAT    EPW30570   6.268   2.442   6.469 -0.1266 -0.2455  0.8270
 7463WAT      O30571   2.190   5.371   0.758 -0.3944 -0.0118 -0.1194
 7463WAT     H130572   2.216   5.448   0.729 -1.6322  0.1514 -0.8520
 7463WAT     H230573   2.103   5.376   0.757 -0.4978 -1.0660  0.7686
 7463WAT    EPW30574   2.181   5.383   0.754 -0.5925 -0.1434 -0.0964
 7464WAT      O30575   4.287   4.679   4.619 -0.3064 -0.2290  0.6457
 7464WAT     H130576   4.332   4.604   4.622 -0.1436 -0.0824  2.5495
 7464WAT     H230577   4.212   4.656   4.582  0.7931 -0.7164 -1.4832
 7464WAT    EPW30578   4.283   4.665   4.614 -0.1199 -0.2793  0.6124
 7465WAT      O30579   0.897   0.536   1.788 -0.2748  0.5856 -0.2078
 7465WAT     H130580   0.816   0.536   1.755  0.2884 -1.3306 -1.7608
 7465WAT     H230581   0.899   0.463   1.836  0.4818  0.6938 -0.0696
 7465WAT    EPW30582   0.885   0.525   1.790 -0.0799  0.3185 -0.4168
 7466WAT      O30583   3.081   3.576   0.482 -0.1691  0.1875 -0.6581
 7466WAT     H130584   3.027   3.642   0.497 -0.3315 -0.1854  0.4236
 7466WAT     H230585   3.160   3.611   0.493 -0.2762 -0.1591  1.6220
 7466WAT    EPW30586   3.085   3.591   0.486 -0.2089  0.0812 -0.1615
 7467WAT      O30587   3.179   3.638   6.536  0.3800 -0.4044 -0.7852
 7467WAT     H130588   3.094   3.660   6.532 -0.0561 -1.5571  1.0459
 7467WAT     H230589   3.219   3.709   6.506 -1.1986  0.4790 -0.9557
 7467WAT    EPW30590   3.172   3.652   6.531  0.0824 -0.4442 -0.5399
 7468WAT      O30591   3.572   4.010   1.183  0.3962  0.4459 -0.3114
 7468WAT     H130592   3.506   4.003   1.240  1.6624  0.2478  1.1916
 7468WAT     H230593   3.591   4.095   1.184 -1.0970  0.8934 -2.3219
 7468WAT    EPW30594   3.565   4.022   1.191  0.3627  0.4827 -0.3863
 7469WAT      O30595   4.557   2.062   7.179  0.6407 -0.0806 -0.3658
 7469WAT     H130596   4.482   2.104   7.164 -0.1259 -0.5092  1.8758
 7469WAT     H230597   4.532   1.979   7.191  1.6079 -0.4196 -0.6085
 7469WAT    EPW30598   4.542   2.056   7.179  0.6704 -0.1940 -0.0705
 7470WAT      O30599   1.573   3.113   6.410 -0.1891 -0.4136 -0.3883
 7470WAT     H130600   1.511   3.084   6.465  0.8702 -2.0809 -0.0160
 7470WAT     H230601   1.531   3.121   6.334 -1.0350 -0.7805  0.0294
 7470WAT    EPW30602   1.558   3.110   6.407 -0.1575 -0.7141 -0.2716
 7471WAT      O30603   0.646   1.743   4.756 -0.7116 -0.5024  0.3170
 7471WAT     H130604   0.574   1.788   4.737 -0.3100  0.2292  0.4657
 7471WAT     H230605   0.697   1.754   4.686 -0.1229  0.3251  0.8537
 7471WAT    EPW30606   0.643   1.752   4.743 -0.5653 -0.2721  0.4182
 7472WAT      O30607   4.789   2.585   4.250  0.3824  0.3095 -0.3475
 7472WAT     H130608   4.800   2.618   4.330 -0.0869 -2.2724  0.9072
 7472WAT     H230609   4.871   2.567   4.224  0.4519 -1.7423  1.0059
 7472WAT    EPW30610   4.803   2.587   4.258  0.3233 -0.3750  0.0377
 7473WAT      O30611   6.074   1.165   7.357 -0.1488 -0.2866 -0.5133
 7473WAT     H130612   6.001   1.201   7.325  0.9837  1.6842 -1.0321
 7473WAT     H230613   6.123   1.234   7.377  0.6646 -1.4977  2.0947
 7473WAT    EPW30614   6.070   1.181   7.355  0.1386 -0.1744 -0.2047
 7474WAT      O30615   4.910   0.705   4.480 -0.3817  0.1585  0.3517
 7474WAT     H130616   4.844   0.668   4.436 -0.8821  1.0961  0.2814
 7474WAT     H230617   4.873   0.728   4.556 -0.5318  1.9166 -0.1984
 7474WAT    EPW30618   4.895   0.703   4.485 -0.4778  0.5567  0.2600
 7475WAT      O30619   7.021   2.506   1.230 -0.0454 -0.3102  0.5320
 7475WAT     H130620   6.967   2.545   1.174 -0.6593  0.3103  1.5244
 7475WAT     H230621   6.978   2.435   1.255  0.4153 -0.8231 -0.0980
 7475WAT    EPW30622   7.007   2.502   1.225 -0.0681 -0.2943  0.5855
 7476WAT      O30623   4.829   7.099   2.139 -0.1137 -0.4404  0.2617
 7476WAT     H130624   4.759   7.055   2.110  0.0470 -0.9956  0.7008
 7476WAT     H230625   4.803   7.133   2.215 -0.6322  1.2732 -0.6265
 7476WAT    EPW30626   4.815   7.097   2.146 -0.1665 -0.2693  0.1954
 7477WAT      O30627   1.910   1.212   4.064 -0.0648  0.2994 -0.0404
 7477WAT     H130628   1.866   1.148   4.024 -0.8379  0.4842  0.4819
 7477WAT     H230629   1.993   1.186   4.061 -0.5057 -1.4515  1.4327
 7477WAT    EPW30630   1.916   1.199   4.058 -0.2442  0.0681  0.2543
 7478WAT      O30631   0.625   2.649   0.538 -0.3169 -0.5025  0.5056
 7478WAT     H130632   0.682   2.687   0.484 -0.8710 -0.9150 -0.4112
 7478WAT     H230633   0.629   2.565   0.515  0.1619 -0.8501  1.8149
 7478WAT    EPW30634   0.634   2.643   0.526 -0.3281 -0.6148  0.5636
 7479WAT      O30635   2.619   1.328   4.923  0.0716 -0.4321  0.2039
 7479WAT     H130636   2.598   1.411   4.910 -0.3270 -0.4990  0.4027
 7479WAT     H230637   2.703   1.324   4.900 -0.3503 -0.3397 -1.4549
 7479WAT    EPW30638   2.628   1.339   4.918 -0.0496 -0.4283 -0.0118
 7480WAT      O30639   2.165   4.963   2.358 -0.3814  0.4802 -0.4639
 7480WAT     H130640   2.162   5.047   2.382 -0.5748  0.7032 -1.2283
 7480WAT     H230641   2.092   4.929   2.392 -2.1017  1.4190 -2.9117
 7480WAT    EPW30642   2.153   4.971   2.367 -0.6641  0.6518 -0.9384
 7481WAT      O30643   2.023   3.391   2.983 -0.0356 -0.0771 -0.1279
 7481WAT     H130644   1.941   3.377   3.011 -0.7226  1.6329 -1.0790
 7481WAT     H230645   2.037   3.324   2.929 -0.6270 -0.6636  0.4273
 7481WAT    EPW30646   2.013   3.379   2.979 -0.2244  0.0889 -0.1864
 7482WAT      O30647   6.678   5.415   5.030 -0.2413 -0.2226 -0.2002
 7482WAT     H130648   6.648   5.444   5.107 -0.5556 -0.5313 -0.2067
 7482WAT     H230649   6.764   5.403   5.045 -0.1634  0.4033 -0.1052
 7482WAT    EPW30650   6.686   5.418   5.044 -0.2762 -0.1757 -0.1871
 7483WAT      O30651   3.062   4.050   0.706  0.3636  0.2191  0.5007
 7483WAT     H130652   2.999   4.110   0.712  0.9195  0.6636  2.6410
 7483WAT     H230653   3.018   3.974   0.711 -0.0584  0.5243  1.8823
 7483WAT    EPW30654   3.046   4.047   0.708  0.3834  0.3298  1.0209
 7484WAT      O30655   4.392   0.749   6.341  0.2087  0.1523  0.0794
 7484WAT     H130656   4.417   0.774   6.261 -1.4908 -0.9444 -0.8692
 7484WAT     H230657   4.455   0.695   6.367  0.4683  0.0194 -0.8133
 7484WAT    EPW30658   4.405   0.744   6.333 -0.0040 -0.0294 -0.1926
 7485WAT      O30659   5.663   2.414   2.984 -0.0657  0.8409 -0.4702
 7485WAT     H130660   5.663   2.374   3.061 -1.1873 -1.1183 -1.4019
 7485WAT     H230661   5.737   2.460   2.984 -0.8951  2.3687  2.4403
 7485WAT    EPW30662   5.674   2.415   2.995 -0.3539  0.7772 -0.1779
 7486WAT      O30663   1.460   3.074   5.442  0.2055  0.3707 -0.3371
 7486WAT     H130664   1.477   3.009   5.497 -0.0422 -0.3453 -1.0838
 7486WAT     H230665   1.373   3.075   5.437  0.2355 -0.2420 -1.4618
 7486WAT    EPW30666   1.450   3.065   5.449  0.1734  0.1744 -0.6136
 7487WAT      O30667   1.550   5.482   0.220  0.2614  0.0763  0.2586
 7487WAT     H130668   1.520   5.402   0.233 -0.9153  0.7447  2.0386
 7487WAT     H230669   1.611   5.492   0.282  0.4338  0.5332  0.0233
 7487WAT    EPW30670   1.555   5.472   0.231  0.1131  0.2425  0.4868
 7488WAT      O30671   2.359   2.765   1.324  0.4314  0.0027 -0.1757
 7488WAT     H130672   2.294   2.756   1.265  1.2108 -2.5636 -0.7636
 7488WAT     H230673   2.349   2.846   1.352  0.0837  1.5060 -3.9921
 7488WAT    EPW30674   2.348   2.775   1.319  0.4952 -0.1543 -0.8263
 7489WAT      O30675   2.970   0.184   6.958 -1.1184 -0.1768 -0.1162
 7489WAT     H130676   3.019   0.112   6.965  0.4939  1.0005  1.5189
 7489WAT     H230677   3.005   0.225   6.889 -0.4264  0.1591  0.4158
 7489WAT    EPW30678   2.983   0.179   6.949 -0.7780  0.0467  0.2039
 7490WAT      O30679   5.583   1.658   5.216 -0.6393  0.5511 -0.2361
 7490WAT     H130680   5.567   1.680   5.299 -0.1354  0.7999 -0.1974
 7490WAT     H230681   5.671   1.655   5.213 -0.6603 -0.8815 -0.3841
 7490WAT    EPW30682   5.594   1.661   5.228 -0.5680  0.3762 -0.2523
 7491WAT      O30683   3.448   0.205   1.372  0.5358  0.5798  0.3597
 7491WAT     H130684   3.415   0.193   1.451  1.0037 -0.8028  0.3834
 7491WAT     H230685   3.414   0.139   1.326 -0.1278  1.6450 -0.7389
 7491WAT    EPW30686   3.438   0.193   1.377  0.5069  0.5329  0.2010
 7492WAT      O30687   6.708   1.372   3.542  0.2250  0.2785  0.0514
 7492WAT     H130688   6.778   1.354   3.590 -0.4796  1.1853  1.4716
 7492WAT     H230689   6.716   1.458   3.526 -0.2050  0.2412 -0.3951
 7492WAT    EPW30690   6.719   1.382   3.546  0.0574  0.4070  0.1953
 7493WAT      O30691   4.072   2.903   2.391 -0.2657 -0.1553 -0.3864
 7493WAT     H130692   4.085   2.822   2.362 -2.2601 -0.8946  0.5889
 7493WAT     H230693   4.092   2.899   2.475 -1.0234  0.1719 -0.1778
 7493WAT    EPW30694   4.077   2.891   2.399 -0.6723 -0.2162 -0.2115
 7494WAT      O30695   4.803   5.205   1.770  0.1511 -0.2128  0.6432
 7494WAT     H130696   4.765   5.143   1.723 -1.2422  1.0138  0.0663
 7494WAT     H230697   4.809   5.272   1.715  1.7220  0.1540  1.2146
 7494WAT    EPW30698   4.798   5.206   1.755  0.1773  0.0226  0.6424
 7495WAT      O30699   7.062   3.202   2.183  0.1982  0.7121 -0.5345
 7495WAT     H130700   7.045   3.285   2.203 -1.4074  0.3980 -0.5101
 7495WAT     H230701   7.069   3.163   2.261  2.5481  1.0561 -0.4807
 7495WAT    EPW30702   7.061   3.209   2.198  0.3082  0.7165 -0.5229
 7496WAT      O30703   4.202   4.810   7.182  0.6195  0.3786  0.0375
 7496WAT     H130704   4.176   4.733   7.214 -1.5710 -0.5182 -3.3407
 7496WAT     H230705   4.250   4.788   7.113  1.6688  2.1161  0.1522
 7496WAT    EPW30706   4.206   4.795   7.176  0.4509  0.5028 -0.4446
 7497WAT      O30707   1.677   2.566   4.387 -0.5821 -0.2393 -0.2743
 7497WAT     H130708   1.713   2.645   4.388  1.2679 -0.9699 -1.9986
 7497WAT     H230709   1.651   2.554   4.470  1.7545  1.0008  0.7132
 7497WAT    EPW30710   1.678   2.576   4.399  0.0363 -0.1641 -0.3832
 7498WAT      O30711   0.171   2.247   5.008 -0.0962  0.0395 -0.1362
 7498WAT     H130712   0.108   2.271   4.952 -0.8341  0.1313  0.7082
 7498WAT     H230713   0.129   2.192   5.062  0.2957  0.8619  1.0344
 7498WAT    EPW30714   0.155   2.242   5.008 -0.1473  0.1745  0.1615
 7499WAT      O30715   1.048   3.578   6.617 -0.1631  0.5519  0.2341
 7499WAT     H130716   1.043   3.504   6.663  0.6542 -0.6618 -1.5321
 7499WAT     H230717   0.979   3.624   6.645 -2.1952 -1.9268 -0.3772
 7499WAT    EPW30718   1.037   3.574   6.628 -0.3426  0.0064 -0.1171
 7500WAT      O30719   0.580   4.034   5.248  0.1915  0.5776 -0.4557
 7500WAT     H130720   0.603   4.048   5.165  2.0355 -1.2795 -0.3469
 7500WAT     H230721   0.649   3.991   5.282 -0.5839  1.0691  1.9847
 7500WAT    EPW30722   0.594   4.030   5.241  0.3494  0.3759 -0.0791
 7501WAT      O30723   0.088   4.308   5.582 -0.2655  0.0858 -0.9827
 7501WAT     H130724   0.175   4.315   5.581 -0.0427 -1.9495 -0.4917
 7501WAT     H230725   0.071   4.256   5.514 -1.0629  0.0394 -0.7530
 7501WAT    EPW30726   0.098   4.302   5.572 -0.3504 -0.2217 -0.8762
 7502WAT      O30727   4.677   6.286   5.170  0.1327  0.5125  0.6629
 7502WAT     H130728   4.657   6.267   5.252 -1.0306  0.1577  0.3143
 7502WAT     H230729   4.623   6.236   5.123 -0.2759  1.7929 -0.3078
 7502WAT    EPW30730   4.666   6.276   5.175 -0.0995  0.6492  0.4680
 7503WAT      O30731   4.283   3.861   2.385 -0.0921 -0.3179  0.1478
 7503WAT     H130732   4.329   3.928   2.352  0.3282 -0.8589 -0.3857
 7503WAT     H230733   4.299   3.796   2.329 -0.1736 -0.9784  0.8822
 7503WAT    EPW30734   4.292   3.862   2.372 -0.0421 -0.4954  0.1775
 7504WAT      O30735   0.358   0.175   4.331  0.1761 -0.5248 -0.3011
 7504WAT     H130736   0.372   0.213   4.408  1.0920  0.6602 -1.0041
 7504WAT     H230737   0.435   0.181   4.291 -0.6309  0.1947 -1.8387
 7504WAT    EPW30738   0.372   0.182   4.336  0.1922 -0.2435 -0.6321
 7505WAT      O30739   0.929   5.365   2.664  0.1035 -0.3514 -0.6142
 7505WAT     H130740   0.999   5.410   2.693 -0.5138  0.9633 -1.0998
 7505WAT     H230741   0.881   5.425   2.624 -1.9208 -0.9672  0.7471
 7505WAT    EPW30742   0.932   5.381   2.663 -0.2867 -0.2482 -0.4849
 7506WAT      O30743   5.700   3.749   3.739  0.4706 -0.3675 -0.6034
 7506WAT     H130744   5.658   3.810   3.785 -0.6414  0.3455 -2.4227
 7506WAT     H230745   5.679   3.675   3.779  0.9917  0.3383  1.0404
 7506WAT    EPW30746   5.691   3.747   3.751  0.3833 -0.1579 -0.6293
 7507WAT      O30747   4.359   2.473   6.248  0.2350 -0.1004  0.3380
 7507WAT     H130748   4.276   2.466   6.222  0.2502 -0.6823  0.4238
 7507WAT     H230749   4.404   2.460   6.174  0.2857 -2.0501  0.6459
 7507WAT    EPW30750   4.353   2.470   6.233  0.2447 -0.4743  0.3962
 7508WAT      O30751   1.737   3.661   4.985  0.2143  0.3728 -0.2452
 7508WAT     H130752   1.695   3.658   5.061  1.6773 -1.7162  0.5778
 7508WAT     H230753   1.746   3.577   4.964  2.1256  0.8215 -1.3974
 7508WAT    EPW30754   1.732   3.648   4.993  0.7127  0.1305 -0.2938
 7509WAT      O30755   1.899   0.214   2.976 -0.4126 -0.4542  0.2720
 7509WAT     H130756   1.853   0.141   2.987  0.1428 -0.7373  0.7613
 7509WAT     H230757   1.963   0.208   3.035 -0.7068  0.7101  0.7485
 7509WAT    EPW30758   1.901   0.202   2.987 -0.3740 -0.3240  0.4147
 7510WAT      O30759   7.015   4.598   3.331  0.3697 -0.5496  0.1297
 7510WAT     H130760   7.033   4.557   3.255 -0.2920  0.2891 -0.5010
 7510WAT     H230761   6.930   4.582   3.343  0.2222  0.2082  0.1363
 7510WAT    EPW30762   7.005   4.589   3.321  0.2502 -0.3138  0.0375
 7511WAT      O30763   6.212   4.420   5.764  0.1307 -0.4580 -0.2322
 7511WAT     H130764   6.151   4.377   5.810  0.1435 -1.6548 -1.2795
 7511WAT     H230765   6.166   4.471   5.711  0.1160  1.1716  1.2355
 7511WAT    EPW30766   6.196   4.421   5.763  0.1304 -0.3940 -0.1701
 7512WAT      O30767   1.091   4.461   0.448 -0.1189  0.5220 -0.6486
 7512WAT     H130768   1.019   4.509   0.438 -1.6433 -1.3061  0.8237
 7512WAT     H230769   1.069   4.384   0.414  1.4099  0.1086 -0.7790
 7512WAT    EPW30770   1.077   4.457   0.442 -0.1182  0.1908 -0.4504
 7513WAT      O30771   5.825   1.711   7.172 -0.4487 -0.0672 -0.1477
 7513WAT     H130772   5.856   1.651   7.227 -0.4234 -0.0554 -0.1491
 7513WAT     H230773   5.845   1.786   7.211  0.5298 -0.0338 -0.6899
 7513WAT    EPW30774   5.832   1.713   7.186 -0.3004 -0.0605 -0.2280
 7514WAT      O30775   6.149   3.442   6.672 -0.1534 -0.2945  0.1109
 7514WAT     H130776   6.093   3.483   6.725 -0.9175 -1.0810 -0.0613
 7514WAT     H230777   6.217   3.496   6.668 -0.8667  0.6476  0.3885
 7514WAT    EPW30778   6.150   3.456   6.679 -0.3716 -0.2715  0.1265
 7515WAT      O30779   5.416   1.041   7.352 -0.1825 -0.0997  0.1826
 7515WAT     H130780   5.378   1.006   7.281 -0.3935 -2.7203  1.4734
 7515WAT     H230781   5.501   1.040   7.331 -0.2188 -1.1160  0.0212
 7515WAT    EPW30782   5.423   1.036   7.338 -0.2190 -0.6369  0.3494
 7516WAT      O30783   6.777   1.193   5.898  0.6737  0.5975  0.1643
 7516WAT     H130784   6.701   1.160   5.924  1.5700 -1.5999  0.2291
 7516WAT     H230785   6.771   1.278   5.919 -1.3621  0.3057  1.0043
 7516WAT    EPW30786   6.765   1.201   5.905  0.5053  0.2298  0.2979
 7517WAT      O30787   6.499   5.399   0.972 -0.0692 -0.3711 -0.5135
 7517WAT     H130788   6.458   5.429   0.901  1.9773  0.7381 -1.3188
 7517WAT     H230789   6.579   5.379   0.943  0.5372 -0.7722  1.2976
 7517WAT    EPW30790   6.505   5.401   0.957  0.3227 -0.2665 -0.3649
 7518WAT      O30791   5.773   6.216   3.142  0.8961  0.2895  0.3200
 7518WAT     H130792   5.800   6.289   3.102  1.0187 -0.7505 -1.6122
 7518WAT     H230793   5.843   6.164   3.138 -0.2754 -1.2945 -1.8772
 7518WAT    EPW30794   5.787   6.219   3.135  0.7411 -0.0981 -0.2900
 7519WAT      O30795   0.362   0.120   1.140 -0.4744  0.1065 -0.1453
 7519WAT     H130796   0.448   0.111   1.132 -0.2428  1.3992  0.5964
 7519WAT     H230797   0.335   0.125   1.057 -0.1184 -2.2550 -0.4569
 7519WAT    EPW30798   0.371   0.120   1.126 -0.3876 -0.0514 -0.0818
 7520WAT      O30799   6.347   4.035   1.760  0.0289 -0.3039 -0.0114
 7520WAT     H130800   6.385   4.109   1.733 -1.3389  0.7288  0.7785
 7520WAT     H230801   6.298   4.011   1.692  0.5707 -0.5608 -0.3150
 7520WAT    EPW30802   6.346   4.042   1.746 -0.0931 -0.1893  0.0604
 7521WAT      O30803   2.125   5.544   5.851 -0.5287 -0.1921 -0.0635
 7521WAT     H130804   2.167   5.516   5.922 -2.4729  1.5661  1.9233
 7521WAT     H230805   2.091   5.471   5.818  0.1212 -1.0183  1.0039
 7521WAT    EPW30806   2.126   5.529   5.856 -0.7199 -0.0544  0.3877
 7522WAT      O30807   0.601   5.532   6.703 -0.0342 -0.1467 -0.3078
 7522WAT     H130808   0.651   5.492   6.644  1.3215  1.2443 -0.1863
 7522WAT     H230809   0.586   5.471   6.763 -0.1890 -1.1640 -1.3520
 7522WAT    EPW30810   0.606   5.517   6.703  0.1432 -0.0915 -0.4441
 7523WAT      O30811   0.858   6.064   4.177  0.0360 -0.2057  0.0221
 7523WAT     H130812   0.876   6.143   4.208 -1.9453  0.6101 -0.7456
 7523WAT     H230813   0.928   6.044   4.129  0.1348  1.5776 -0.6447
 7523WAT    EPW30814   0.871   6.073   4.175 -0.2421  0.1783 -0.1898
 7524WAT      O30815   1.484   0.388   1.616 -0.0798  0.2468  0.3081
 7524WAT     H130816   1.474   0.389   1.530 -1.7159  0.3691  0.4727
 7524WAT     H230817   1.534   0.459   1.631  1.1653 -0.3940 -0.5980
 7524WAT    EPW30818   1.490   0.399   1.606 -0.1376  0.1702  0.1985
 7525WAT      O30819   7.198   4.488   4.449 -0.3257 -0.1856  0.0180
 7525WAT     H130820   7.155   4.537   4.507  0.6998  0.6400  0.1107
 7525WAT     H230821   7.273   4.468   4.491  1.0808  1.6237 -1.4881
 7525WAT    EPW30822   7.203   4.492   4.464  0.0336  0.2036 -0.1908
 7526WAT      O30823   5.815   3.204   4.990  0.0548 -0.5640  0.0397
 7526WAT     H130824   5.879   3.200   5.050  0.1128 -0.7833 -0.0348
 7526WAT     H230825   5.854   3.179   4.916 -0.1075 -0.6608 -0.0141
 7526WAT    EPW30826   5.830   3.200   4.988  0.0394 -0.6107  0.0207
 7527WAT      O30827   5.211   7.173   5.548 -0.5141  0.2105 -0.1048
 7527WAT     H130828   5.253   7.249   5.551  1.4741 -0.8058 -0.8883
 7527WAT     H230829   5.164   7.173   5.622 -0.5766  2.1722 -0.0972
 7527WAT    EPW30830   5.210   7.184   5.559 -0.2297  0.3501 -0.2194
 7528WAT      O30831   1.444   5.695   4.203  0.1550  0.7661  0.0054
 7528WAT     H130832   1.358   5.711   4.207 -0.4260 -1.9478  0.1599
 7528WAT     H230833   1.465   5.713   4.121 -1.3794 -1.7736 -1.0409
 7528WAT    EPW30834   1.434   5.700   4.192 -0.1575 -0.0099 -0.1264
 7529WAT      O30835   2.606   2.294   5.009 -0.2592  0.0513 -0.7388
 7529WAT     H130836   2.636   2.226   5.055 -1.6031  0.2437  0.5082
 7529WAT     H230837   2.602   2.263   4.928  1.9038 -0.3949 -0.7396
 7529WAT    EPW30838   2.610   2.279   5.004 -0.1382  0.0138 -0.5547
 7530WAT      O30839   6.585   5.627   5.891 -0.2950  0.4300  0.1641
 7530WAT     H130840   6.604   5.581   5.962 -1.7244  0.1715  0.4067
 7530WAT     H230841   6.498   5.623   5.886 -0.4386  2.6259 -0.1418
 7530WAT    EPW30842   6.575   5.620   5.901 -0.5273  0.7162  0.1547
 7531WAT      O30843   5.862   3.952   0.888 -0.0207 -0.0023  0.2545
 7531WAT     H130844   5.807   3.928   0.825  0.2930 -1.2082  0.4065
 7531WAT     H230845   5.845   4.036   0.900 -4.1442 -0.8468  2.4665
 7531WAT    EPW30846   5.851   3.961   0.881 -0.5835 -0.3052  0.6037
 7532WAT      O30847   1.053   1.841   0.656 -0.5667  0.2516 -0.4162
 7532WAT     H130848   1.071   1.897   0.720  1.6340  0.5066 -1.1831
 7532WAT     H230849   1.016   1.774   0.697 -0.4118  0.9447  0.9195
 7532WAT    EPW30850   1.050   1.840   0.671 -0.2187  0.3917 -0.3322
 7533WAT      O30851   1.872   6.558   5.676 -0.1046 -0.3152  0.1441
 7533WAT     H130852   1.904   6.572   5.756 -1.5250  1.2598  0.4991
 7533WAT     H230853   1.943   6.557   5.625  0.6544  1.2494  1.1050
 7533WAT    EPW30854   1.887   6.560   5.681 -0.2023  0.1486  0.3385
 7534WAT      O30855   3.754   6.357   2.228  0.0516  0.1836 -0.3896
 7534WAT     H130856   3.839   6.341   2.216 -0.2553 -1.2050 -0.9601
 7534WAT     H230857   3.728   6.387   2.150 -0.4211 -1.6968 -1.0321
 7534WAT    EPW30858   3.763   6.359   2.215 -0.0636 -0.2993 -0.5688
 7535WAT      O30859   6.817   1.940   0.736  0.0301  0.1051 -0.6292
 7535WAT     H130860   6.737   1.919   0.762  0.6196 -1.7894 -0.1884
 7535WAT     H230861   6.860   1.864   0.738  2.3963  1.3445  1.1080
 7535WAT    EPW30862   6.812   1.926   0.740  0.4667  0.0083 -0.3075
 7536WAT      O30863   4.066   6.908   2.163 -0.2458 -0.3369 -0.6581
 7536WAT     H130864   4.113   6.964   2.115 -0.9907 -0.3356 -1.4030
 7536WAT     H230865   4.041   6.956   2.232  2.6215 -0.9070  0.9324
 7536WAT    EPW30866   4.069   6.924   2.166  0.0677 -0.4209 -0.5332
 7537WAT      O30867   4.005   0.860   4.461  0.3941 -0.3215 -0.6088
 7537WAT     H130868   4.019   0.851   4.546 -0.6373 -0.5314 -0.4417
 7537WAT     H230869   3.988   0.945   4.452  0.1170 -0.3666 -0.5320
 7537WAT    EPW30870   4.005   0.871   4.472  0.2008 -0.3592 -0.5727
 7538WAT      O30871   3.329   2.236   2.269 -0.0044  0.0830  0.2373
 7538WAT     H130872   3.391   2.280   2.312  1.2021 -0.2474 -1.0665
 7538WAT     H230873   3.284   2.299   2.228  1.1450  0.2105 -0.8973
 7538WAT    EPW30874   3.332   2.252   2.269  0.3436  0.0531 -0.1229
 7539WAT      O30875   6.139   2.787   3.591 -0.1454  0.1596  0.4726
 7539WAT     H130876   6.087   2.721   3.614 -1.0815  0.9870  0.8069
 7539WAT     H230877   6.156   2.771   3.507 -0.7774 -0.2284  0.4114
 7539WAT    EPW30878   6.134   2.775   3.582 -0.3771  0.2245  0.5129
 7540WAT      O30879   0.879   4.232   4.493  0.2082 -0.3344 -0.2060
 7540WAT     H130880   0.872   4.145   4.496  0.2030 -0.4647 -2.6821
 7540WAT     H230881   0.896   4.249   4.410  1.6457  1.9818  0.4864
 7540WAT    EPW30882   0.880   4.222   4.481  0.4198 -0.0115 -0.4695
 7541WAT      O30883   0.555   1.367   1.999  0.3512 -0.7167  0.2927
 7541WAT     H130884   0.514   1.442   2.016  0.1694 -1.0479  1.3583
 7541WAT     H230885   0.492   1.307   2.006  1.0311 -1.2711  2.2620
 7541WAT    EPW30886   0.540   1.369   2.002  0.4248 -0.8475  0.7410
 7542WAT      O30887   0.888   4.848   5.429  0.1742  0.8314 -0.4978
 7542WAT     H130888   0.964   4.864   5.389  2.4890  0.2774  3.2484
 7542WAT     H230889   0.871   4.766   5.406  0.0643  1.2822 -2.1913
 7542WAT    EPW30890   0.897   4.838   5.420  0.4999  0.8162 -0.1946
 7543WAT      O30891   5.248   7.057   3.115  0.6843 -0.0001  0.0003
 7543WAT     H130892   5.171   7.092   3.136  1.2973  0.5291  1.5366
 7543WAT     H230893   5.243   7.045   3.029 -0.7223  0.9676 -0.0800
 7543WAT    EPW30894   5.236   7.060   3.106  0.5670  0.2210  0.2154
 7544WAT      O30895   6.938   6.228   6.304 -0.3185 -0.2853  0.6370
 7544WAT     H130896   6.851   6.215   6.309 -0.3370  0.0814  1.4362
 7544WAT     H230897   6.971   6.149   6.319 -0.5023 -0.1767  1.7018
 7544WAT    EPW30898   6.930   6.215   6.307 -0.3484 -0.2151  0.9124
 7545WAT      O30899   6.161   4.402   1.743  0.1853  0.3354  0.3960
 7545WAT     H130900   6.085   4.444   1.732 -0.0772 -0.0922  0.5322
 7545WAT     H230901   6.152   4.330   1.694  0.6649  0.4782  0.0906
 7545WAT    EPW30902   6.148   4.397   1.734  0.2174  0.2933  0.3710
 7546WAT      O30903   2.771   3.423   0.153 -0.5708 -0.0186 -0.2704
 7546WAT     H130904   2.757   3.508   0.169 -1.4007 -0.4423  1.5216
 7546WAT     H230905   2.851   3.409   0.185 -1.0668 -0.2261  0.9312
 7546WAT    EPW30906   2.781   3.433   0.160 -0.7666 -0.1118  0.1718
 7547WAT      O30907   5.433   4.197   4.009  0.0828  0.1600  0.4026
 7547WAT     H130908   5.387   4.123   4.006  0.3267  0.0293 -0.2547
 7547WAT     H230909   5.401   4.244   3.943 -0.8624  1.1296  1.5091
 7547WAT    EPW30910   5.422   4.193   3.999 -0.0208  0.2839  0.4690
 7548WAT      O30911   0.355   1.171   2.039 -0.6749 -0.0037  0.0177
 7548WAT     H130912   0.274   1.188   2.012 -0.3901  2.0036  0.2732
 7548WAT     H230913   0.343   1.115   2.105 -1.8158 -0.0801 -0.2324
 7548WAT    EPW30914   0.342   1.165   2.045 -0.8013  0.2815  0.0185
 7549WAT      O30915   2.308   4.983   1.153  0.3669 -0.6883 -0.6584
 7549WAT     H130916   2.388   4.963   1.125 -0.3026 -1.4319 -2.1100
 7549WAT     H230917   2.287   5.054   1.106 -0.4945 -1.5341 -1.5945
 7549WAT    EPW30918   2.317   4.991   1.142  0.1408 -0.9231 -1.0111
 7550WAT      O30919   6.608   2.443   1.077 -0.7893  0.4163 -0.1989
 7550WAT     H130920   6.627   2.405   1.153 -1.2678  2.5267  1.0594
 7550WAT     H230921   6.588   2.376   1.025 -2.7956 -1.0255  2.1965
 7550WAT    EPW30922   6.608   2.428   1.080 -1.1563  0.5151  0.3408
 7551WAT      O30923   0.344   4.422   4.794 -0.0363 -0.0698 -0.2665
 7551WAT     H130924   0.307   4.490   4.833  0.2030  0.2314 -0.5625
 7551WAT     H230925   0.280   4.392   4.742 -0.9142 -1.4483  1.4784
 7551WAT    EPW30926   0.329   4.427   4.792 -0.1306 -0.2289 -0.0524
 7552WAT      O30927   1.370   5.936   2.912 -0.1266 -0.2934 -0.2007
 7552WAT     H130928   1.348   5.911   2.832 -1.3196 -0.2063  0.0671
 7552WAT     H230929   1.322   6.008   2.924  0.1606 -0.2167  0.5264
 7552WAT    EPW30930   1.359   5.943   2.902 -0.2604 -0.2692 -0.0537
 7553WAT      O30931   6.479   7.024   1.770  0.0379 -0.1939  0.0136
 7553WAT     H130932   6.445   6.946   1.789 -0.3498  0.2119  1.0474
 7553WAT     H230933   6.440   7.046   1.695 -1.7798  0.1298  1.0142
 7553WAT    EPW30934   6.468   7.016   1.762 -0.2879 -0.0861  0.3141
 7554WAT      O30935   6.599   6.665   5.503 -0.0436 -0.6271 -0.2686
 7554WAT     H130936   6.550   6.635   5.568  0.7337 -1.2936  0.0225
 7554WAT     H230937   6.621   6.746   5.529 -0.9196 -0.3425 -0.3777
 7554WAT    EPW30938   6.595   6.673   5.516 -0.0581 -0.6835 -0.2417
 7555WAT      O30939   5.969   5.690   4.499  0.2031 -0.0349 -0.5222
 7555WAT     H130940   5.909   5.720   4.555  1.4813 -0.1370  0.9620
 7555WAT     H230941   5.956   5.604   4.499  1.8691 -0.3852  1.7817
 7555WAT    EPW30942   5.958   5.682   4.508  0.6380 -0.1017  0.0374
 7556WAT      O30943   2.966   3.336   3.625 -0.1836 -0.7639  0.0572
 7556WAT     H130944   2.931   3.375   3.694  0.1804  0.3836 -0.3749
 7556WAT     H230945   2.897   3.310   3.578 -0.4905  0.8209 -0.4333
 7556WAT    EPW30946   2.951   3.338   3.628 -0.1752 -0.3603 -0.0791
 7557WAT      O30947   1.312   2.117   3.213  0.1669  0.1518  0.1210
 7557WAT     H130948   1.235   2.086   3.185 -0.3477  0.2196  1.3930
 7557WAT     H230949   1.349   2.047   3.251  0.7501  0.1174 -0.4941
 7557WAT    EPW30950   1.306   2.102   3.214  0.1770  0.1567  0.2181
 7558WAT      O30951   4.654   0.940   6.703 -0.1242 -0.0520 -0.0137
 7558WAT     H130952   4.683   0.885   6.765  1.4473  1.2277  0.4531
 7558WAT     H230953   4.666   1.018   6.738  0.4158  0.7084 -1.7924
 7558WAT    EPW30954   4.660   0.943   6.717  0.1877  0.2494 -0.2075
 7559WAT      O30955   2.585   2.116   0.396  0.0233 -0.4876 -0.0090
 7559WAT     H130956   2.532   2.049   0.382 -0.8335  0.1921 -0.0604
 7559WAT     H230957   2.533   2.186   0.395  1.0614  0.3240 -1.1670
 7559WAT    EPW30958   2.570   2.117   0.394  0.0501 -0.2673 -0.1876
 7560WAT      O30959   1.901   0.515   0.437  0.2270 -0.1893 -0.1849
 7560WAT     H130960   1.832   0.489   0.483  0.6463  0.6667  0.9722
 7560WAT     H230961   1.869   0.576   0.384  0.0234 -0.0357  0.1127
 7560WAT    EPW30962   1.886   0.520   0.436  0.2588 -0.0402  0.0300
 7561WAT      O30963   6.866   0.243   0.312  0.2841  0.1930  0.1010
 7561WAT     H130964   6.793   0.197   0.301 -0.0251  1.1257 -2.7707
 7561WAT     H230965   6.842   0.308   0.365 -0.7882  0.0299 -0.1544
 7561WAT    EPW30966   6.852   0.246   0.318  0.0800  0.3067 -0.3609
 7562WAT      O30967   3.545   1.274   1.672 -0.1915  0.0598 -0.0946
 7562WAT     H130968   3.515   1.355   1.686  0.2681  0.6351 -2.0959
 7562WAT     H230969   3.484   1.223   1.709 -0.5056  1.2815  1.1815
 7562WAT    EPW30970   3.531   1.279   1.680 -0.1700  0.3252 -0.2017
 7563WAT      O30971   1.600   2.629   1.382 -0.2849  0.4239 -0.1817
 7563WAT     H130972   1.572   2.584   1.451 -1.8621 -0.1679 -1.1393
 7563WAT     H230973   1.535   2.685   1.366 -0.2467  0.1116 -1.5401
 7563WAT    EPW30974   1.586   2.630   1.390 -0.5122  0.2903 -0.5238
 7564WAT      O30975   5.941   4.577   1.081  0.4448  0.2015  0.4765
 7564WAT     H130976   5.906   4.542   1.153 -1.1774  1.4101  0.3259
 7564WAT     H230977   5.965   4.657   1.107  1.6134 -0.0222  0.1409
 7564WAT    EPW30978   5.940   4.583   1.096  0.3778  0.3470  0.4047
 7565WAT      O30979   2.056   0.345   5.237  0.4207 -0.1356 -1.1055
 7565WAT     H130980   1.981   0.303   5.220  1.3010 -1.2414 -2.4902
 7565WAT     H230981   2.041   0.426   5.209 -0.8388  0.1651  0.3036
 7565WAT    EPW30982   2.043   0.350   5.230  0.3647 -0.2545 -1.1019
 7566WAT      O30983   4.603   5.385   2.142  0.1153 -0.0375 -0.5584
 7566WAT     H130984   4.677   5.428   2.126  0.7168 -0.9251 -0.2479
 7566WAT     H230985   4.571   5.368   2.063 -0.0860  0.8941 -0.6822
 7566WAT    EPW30986   4.610   5.389   2.128  0.1744 -0.0310 -0.5308
 7567WAT      O30987   0.385   1.836   2.727  0.1505 -0.3329  0.5577
 7567WAT     H130988   0.400   1.884   2.656  2.3131  1.3851  2.0654
 7567WAT     H230989   0.452   1.779   2.729  0.7664  0.3893  1.7688
 7567WAT    EPW30990   0.397   1.834   2.717  0.5610  0.0276  0.9593
 7568WAT      O30991   0.922   0.525   3.992  0.4591  0.7601  0.7010
 7568WAT     H130992   0.978   0.502   3.929  1.5312 -1.3681  2.2863
 7568WAT     H230993   0.845   0.528   3.952  0.4757 -3.9317 -0.2521
 7568WAT    EPW30994   0.919   0.522   3.977  0.6199 -0.2473  0.7944
 7569WAT      O30995   4.729   1.743   3.771  0.1222  0.1597 -0.3865
 7569WAT     H130996   4.676   1.686   3.810 -0.6899  0.0299 -1.6336
 7569WAT     H230997   4.753   1.797   3.836  1.8030 -2.1603  1.1237
 7569WAT    EPW30998   4.725   1.743   3.787  0.2505 -0.2022 -0.3476
 7570WAT      O30999   0.593   6.280   0.838  0.0898  0.0756  0.0224
 7570WAT     H131000   0.670   6.311   0.864  0.3732  0.9413 -1.7146
 7570WAT     H231001   0.539   6.302   0.904  0.6544  2.6298 -0.2543
 7570WAT    EPW31002   0.597   6.288   0.852  0.2150  0.5808 -0.2751
 7571WAT      O31003   5.898   1.095   2.710  0.7854 -0.3330  0.0283
 7571WAT     H131004   5.839   1.031   2.714 -0.6675  0.5332 -3.5281
 7571WAT     H231005   5.946   1.074   2.641  1.0715  1.7549 -0.4867
 7571WAT    EPW31006   5.897   1.083   2.700  0.6130  0.1034 -0.5732
 7572WAT      O31007   6.720   4.671   5.696 -0.2002  0.6638  0.6122
 7572WAT     H131008   6.666   4.606   5.718 -0.3219  0.2157 -0.8766
 7572WAT     H231009   6.667   4.732   5.662  0.1733  0.2985 -0.6854
 7572WAT    EPW31010   6.704   4.670   5.695 -0.1630  0.5437  0.2006
 7573WAT      O31011   2.172   3.371   2.567  0.2966 -0.0895 -0.3113
 7573WAT     H131012   2.090   3.392   2.588  0.3228 -1.4581  1.3864
 7573WAT     H231013   2.175   3.385   2.481 -2.1558 -1.3033 -0.6832
 7573WAT    EPW31014   2.160   3.376   2.558 -0.0618 -0.4710 -0.1155
 7574WAT      O31015   1.565   2.478   5.020 -0.2757  0.1382 -0.0625
 7574WAT     H131016   1.612   2.415   5.056  1.1391  0.5741 -1.0666
 7574WAT     H231017   1.612   2.502   4.951 -2.1392  0.3849 -1.3165
 7574WAT    EPW31018   1.579   2.472   5.015 -0.3420  0.2390 -0.3961
 7575WAT      O31019   0.637   5.539   3.342  0.3314 -0.1478 -0.5457
 7575WAT     H131020   0.581   5.504   3.285 -0.8832  0.4555  0.2530
 7575WAT     H231021   0.591   5.603   3.380  2.3779  2.3313 -1.8592
 7575WAT    EPW31022   0.622   5.543   3.339  0.4543  0.3076 -0.6217
 7576WAT      O31023   3.070   4.226   6.032 -0.0471 -0.4453  0.1680
 7576WAT     H131024   3.116   4.190   5.968 -0.4268  0.2529 -0.5095
 7576WAT     H231025   3.114   4.299   6.050 -2.0187  1.4393 -2.0489
 7576WAT    EPW31026   3.084   4.231   6.025 -0.3944 -0.0637 -0.2596
 7577WAT      O31027   6.900   5.091   4.475  0.0313 -0.2171  0.4728
 7577WAT     H131028   6.915   5.022   4.425 -0.1213  0.7235 -0.9340
 7577WAT     H231029   6.813   5.095   4.481  0.0600 -1.2894  2.2725
 7577WAT    EPW31030   6.889   5.082   4.468  0.0130 -0.2366  0.5308
 7578WAT      O31031   0.880   6.938   5.951  0.0931  0.4277 -0.6802
 7578WAT     H131032   0.901   6.994   5.887  1.9643 -0.9800 -1.3949
 7578WAT     H231033   0.827   6.881   5.911 -0.7116  0.9102 -0.3139
 7578WAT    EPW31034   0.875   6.938   5.935  0.2506  0.2911 -0.7316
 7579WAT      O31035   5.762   6.096   4.286 -0.2395  0.0611 -0.0568
 7579WAT     H131036   5.693   6.072   4.239  0.1359 -1.1008 -0.0404
 7579WAT     H231037   5.738   6.081   4.369 -0.2600  0.4275  0.0054
 7579WAT    EPW31038   5.748   6.090   4.291 -0.1871 -0.0564 -0.0452
 7580WAT      O31039   7.076   0.962   5.501 -0.7032 -0.2384 -0.5794
 7580WAT     H131040   7.013   0.929   5.550 -1.1943 -2.0096 -2.2745
 7580WAT     H231041   7.113   0.892   5.465 -0.7701  0.9314 -3.1606
 7580WAT    EPW31042   7.072   0.947   5.503 -0.7856 -0.3272 -1.2111
 7581WAT      O31043   3.157   6.069   5.997  0.3676 -0.2760 -0.2064
 7581WAT     H131044   3.228   6.117   5.982 -0.9408  1.5418 -1.0828
 7581WAT     H231045   3.167   5.999   5.946  1.0640  0.4410 -1.0794
 7581WAT    EPW31046   3.169   6.066   5.987  0.2772  0.0985 -0.4649
 7582WAT      O31047   1.365   3.131   3.821  0.3954 -0.4493 -0.3272
 7582WAT     H131048   1.447   3.100   3.831  1.3322  1.6843 -0.8558
 7582WAT     H231049   1.351   3.125   3.736  0.3202 -0.0446 -0.3429
 7582WAT    EPW31050   1.375   3.126   3.810  0.5226 -0.0743 -0.4076
 7583WAT      O31051   5.261   5.838   2.442 -0.6957 -0.3536  0.1799
 7583WAT     H131052   5.240   5.780   2.503  0.5079 -0.9544  0.0694
 7583WAT     H231053   5.320   5.796   2.393 -0.6101  0.5863 -0.5731
 7583WAT    EPW31054   5.267   5.824   2.444 -0.5053 -0.3036  0.0524
 7584WAT      O31055   5.024   3.824   2.053  0.1330 -0.2832  0.1767
 7584WAT     H131056   5.066   3.783   2.117  1.4105 -0.3711 -0.6607
 7584WAT     H231057   5.059   3.905   2.055 -2.1169  0.7479  1.6074
 7584WAT    EPW31058   5.036   3.830   2.063 -0.0107 -0.1439  0.2644
 7585WAT      O31059   5.084   1.569   6.931 -0.1758  0.2648 -0.0902
 7585WAT     H131060   5.113   1.626   6.872  1.3393 -0.0938  0.2765
 7585WAT     H231061   5.081   1.615   7.005 -1.4967  0.5470 -0.2810
 7585WAT    EPW31062   5.088   1.584   6.933 -0.1471  0.2535 -0.0642
 7586WAT      O31063   2.052   0.752   3.695  0.0398 -0.2760 -0.6393
 7586WAT     H131064   2.051   0.811   3.631 -1.7953  0.1620 -0.2493
 7586WAT     H231065   2.019   0.680   3.657  0.7270 -0.5846 -0.6697
 7586WAT    EPW31066   2.047   0.750   3.680 -0.1298 -0.2569 -0.5862
 7587WAT      O31067   6.566   1.640   5.083 -0.7288  0.6557  0.5916
 7587WAT     H131068   6.537   1.560   5.064 -1.0556  0.3907  2.0754
 7587WAT     H231069   6.513   1.693   5.037  0.3636  0.0516 -1.5232
 7587WAT    EPW31070   6.554   1.636   5.073 -0.6157  0.5273  0.4984
 7588WAT      O31071   6.595   6.095   1.059  0.4249  0.1993 -0.3254
 7588WAT     H131072   6.511   6.104   1.035  0.2411  1.0758  0.5250
 7588WAT     H231073   6.639   6.136   0.996  0.3480 -1.4410 -1.4920
 7588WAT    EPW31074   6.589   6.102   1.046  0.3864  0.0865 -0.3721
 7589WAT      O31075   3.645   1.804   5.618  0.4687 -0.0544 -0.0836
 7589WAT     H131076   3.560   1.796   5.635  0.7020 -0.3600  1.0061
 7589WAT     H231077   3.680   1.734   5.656  1.5659  1.6966  2.4158
 7589WAT    EPW31078   3.637   1.793   5.626  0.6653  0.1591  0.4466
 7590WAT      O31079   1.724   6.771   2.060 -0.2743 -0.4723 -0.0277
 7590WAT     H131080   1.686   6.850   2.059  1.3084  0.4456  2.3763
 7590WAT     H231081   1.664   6.719   2.096 -1.0381 -0.1898 -0.8825
 7590WAT    EPW31082   1.710   6.775   2.065 -0.1533 -0.2950  0.2012
 7591WAT      O31083   3.746   1.918   3.377  0.2003  0.2649 -0.3059
 7591WAT     H131084   3.662   1.892   3.376  0.6945 -1.4336 -0.4743
 7591WAT     H231085   3.773   1.904   3.296  0.5192  1.3949 -0.4191
 7591WAT    EPW31086   3.737   1.912   3.365  0.3204  0.1809 -0.3475
 7592WAT      O31087   3.750   6.831   1.391  0.1420 -0.1254 -0.5247
 7592WAT     H131088   3.706   6.883   1.337  0.1236  0.0520 -0.3393
 7592WAT     H231089   3.824   6.875   1.405 -0.7112  0.8415  1.2671
 7592WAT    EPW31090   3.755   6.845   1.385  0.0133  0.0436 -0.2326
 7593WAT      O31091   2.850   4.930   2.941 -0.0607  0.5615 -0.9859
 7593WAT     H131092   2.780   4.972   2.971 -1.2454 -0.9030 -1.5606
 7593WAT     H231093   2.900   4.921   3.012 -0.8865  0.7945 -0.3564
 7593WAT    EPW31094   2.847   4.935   2.956 -0.3577  0.3796 -0.9778
 7594WAT      O31095   0.328   0.362   3.381 -0.3096  0.5365 -0.4042
 7594WAT     H131096   0.307   0.446   3.392 -0.8554  0.3905 -0.2755
 7594WAT     H231097   0.385   0.363   3.315 -0.5193  0.9833 -0.5810
 7594WAT    EPW31098   0.333   0.374   3.373 -0.4212  0.5809 -0.4113
 7595WAT      O31099   1.138   4.582   6.549 -0.0420  0.1704  0.3295
 7595WAT     H131100   1.210   4.536   6.566 -1.2155 -1.6321  0.5695
 7595WAT     H231101   1.161   4.664   6.571  1.7402 -0.4391  0.9040
 7595WAT    EPW31102   1.152   4.588   6.555  0.0479 -0.1859  0.4498
 7596WAT      O31103   4.218   0.650   0.242  0.1655 -0.6471 -0.4716
 7596WAT     H131104   4.282   0.674   0.188 -0.1132 -2.7875 -1.8787
 7596WAT     H231105   4.186   0.578   0.205 -0.4726 -1.8747  2.2733
 7596WAT    EPW31106   4.222   0.643   0.228  0.0301 -1.1446 -0.2740
 7597WAT      O31107   1.967   4.007   4.118 -0.1957 -0.2999 -0.3556
 7597WAT     H131108   1.979   4.038   4.199  0.5792  0.4876 -0.7610
 7597WAT     H231109   1.983   3.922   4.126 -1.7359 -0.5279  0.6485
 7597WAT    EPW31110   1.971   3.999   4.131 -0.3087 -0.2172 -0.2672
 7598WAT      O31111   2.699   0.999   5.598  0.2880 -0.1464  0.4147
 7598WAT     H131112   2.631   0.956   5.633  0.4189 -1.3838 -0.7792
 7598WAT     H231113   2.687   1.081   5.626 -1.6542 -0.3414  0.3177
 7598WAT    EPW31114   2.687   1.005   5.608  0.0204 -0.3580  0.2240
 7599WAT      O31115   4.490   7.220   0.955  0.4547  0.3497 -0.0557
 7599WAT     H131116   4.438   7.203   0.887 -1.3857  0.5292  1.2402
 7599WAT     H231117   4.493   7.144   0.998  0.6872  0.5315  0.2507
 7599WAT    EPW31118   4.483   7.206   0.951  0.2172  0.4031  0.1810
 7600WAT      O31119   2.863   6.157   0.790  0.4977  0.1382  0.3427
 7600WAT     H131120   2.834   6.238   0.775  0.7325 -0.1143 -1.7714
 7600WAT     H231121   2.890   6.130   0.711 -1.7616 -2.8737  0.4494
 7600WAT    EPW31122   2.863   6.165   0.776  0.1986 -0.3440  0.0462
 7601WAT      O31123   2.754   1.558   2.120 -0.2075 -0.4553  0.2353
 7601WAT     H131124   2.725   1.498   2.064 -1.1637  0.2346 -0.0321
 7601WAT     H231125   2.823   1.592   2.079 -1.5631  0.8310 -1.1005
 7601WAT    EPW31126   2.760   1.554   2.106 -0.5490 -0.1634 -0.0015
 7602WAT      O31127   0.419   0.730   2.906 -0.6895  0.3774 -0.2434
 7602WAT     H131128   0.418   0.810   2.940 -0.3084 -0.2546  1.3583
 7602WAT     H231129   0.368   0.736   2.835 -0.3693  2.0998 -0.3604
 7602WAT    EPW31130   0.412   0.743   2.900 -0.5859  0.5385 -0.0241
 7603WAT      O31131   0.855   2.284   5.283  0.0445  0.0947 -0.1940
 7603WAT     H131132   0.819   2.358   5.311  2.1866  0.3282  2.3014
 7603WAT     H231133   0.801   2.222   5.312 -0.9859  0.5697 -1.0257
 7603WAT    EPW31134   0.842   2.285   5.291  0.2087  0.1994  0.0518
 7604WAT      O31135   4.445   5.888   0.818  0.0840 -0.0284  0.1441
 7604WAT     H131136   4.467   5.908   0.736 -0.0282 -0.6124 -0.0372
 7604WAT     H231137   4.493   5.817   0.835  1.2734  0.9640  1.1370
 7604WAT    EPW31138   4.455   5.880   0.809  0.2431  0.0319  0.2640
 7605WAT      O31139   4.705   6.244   3.703  0.2323  0.5372  0.3758
 7605WAT     H131140   4.671   6.224   3.781 -3.6112  2.0286 -0.6609
 7605WAT     H231141   4.651   6.205   3.646  3.6267 -1.5944 -1.7378
 7605WAT    EPW31142   4.692   6.236   3.706  0.1659  0.4427 -0.0895
 7606WAT      O31143   3.443   2.044   1.310  0.2598  0.2379 -0.8200
 7606WAT     H131144   3.492   2.086   1.251  2.0530 -1.1805 -0.4471
 7606WAT     H231145   3.459   1.959   1.293  0.3762 -0.2119  1.2975
 7606WAT    EPW31146   3.453   2.037   1.299  0.5419 -0.0381 -0.4521
 7607WAT      O31147   3.545   1.162   4.274  0.0162  0.4282  0.8027
 7607WAT     H131148   3.509   1.085   4.254  1.2922 -0.4982  1.9192
 7607WAT     H231149   3.495   1.220   4.231  0.5978 -1.1471 -2.2846
 7607WAT    EPW31150   3.532   1.159   4.265  0.2906  0.0587  0.5115
 7608WAT      O31151   5.450   4.050   5.891  0.2094  0.1230  0.4870
 7608WAT     H131152   5.367   4.042   5.917  0.3563 -1.1082  0.6169
 7608WAT     H231153   5.444   4.100   5.820 -0.5749  0.5435  0.8298
 7608WAT    EPW31154   5.437   4.056   5.884  0.1153  0.0032  0.5568
 7609WAT      O31155   1.736   2.187   4.246  0.5264  0.3761  0.1254
 7609WAT     H131156   1.777   2.264   4.240  1.5468  0.0368  1.9448
 7609WAT     H231157   1.688   2.195   4.318  0.2179 -0.4955  0.0232
 7609WAT    EPW31158   1.735   2.199   4.256  0.6316  0.1972  0.3791
 7610WAT      O31159   1.159   3.603   6.939  0.2089 -0.1726  0.1528
 7610WAT     H131160   1.078   3.584   6.914 -0.3214  1.2844  0.6184
 7610WAT     H231161   1.179   3.674   6.892  0.2884  0.8839  1.6889
 7610WAT    EPW31162   1.150   3.611   6.928  0.1423  0.1987  0.4485
 7611WAT      O31163   0.480   2.225   0.398  0.1825  0.1284 -0.7802
 7611WAT     H131164   0.402   2.188   0.413 -0.6428  1.1512 -2.3432
 7611WAT     H231165   0.464   2.283   0.335  1.6398  2.4066  0.7996
 7611WAT    EPW31166   0.466   2.228   0.391  0.2758  0.6160 -0.7777
 7612WAT      O31167   3.537   5.492   0.019 -0.1945  1.1558 -0.0224
 7612WAT     H131168   3.522   5.434   0.082 -0.3132  2.3999  1.1460
 7612WAT     H231169   3.558   5.565   0.062  0.2233  1.9226 -1.4370
 7612WAT    EPW31170   3.538   5.494   0.034 -0.1503  1.4529 -0.0587
 7613WAT      O31171   7.146   3.036   1.733 -0.2067  0.5002  0.0845
 7613WAT     H131172   7.158   3.119   1.708  1.7886  0.2735  0.0938
 7613WAT     H231173   7.227   3.009   1.749 -0.4886 -2.1973 -2.2912
 7613WAT    EPW31174   7.160   3.045   1.731  0.0464  0.0682 -0.2651
 7614WAT      O31175   7.019   7.096   4.561 -0.2169 -0.9679  0.6827
 7614WAT     H131176   6.984   7.024   4.528 -1.8356  1.3673 -3.4278
 7614WAT     H231177   6.951   7.149   4.571  1.1920  0.9724  0.5786
 7614WAT    EPW31178   7.004   7.093   4.558 -0.2479 -0.3363  0.0601
 7615WAT      O31179   5.531   4.822   1.535  0.0885  0.0908 -0.3443
 7615WAT     H131180   5.519   4.738   1.555  1.0613  0.3006  1.3398
 7615WAT     H231181   5.456   4.846   1.498 -0.3215 -1.4217 -0.5400
 7615WAT    EPW31182   5.518   4.813   1.533  0.1716 -0.1016 -0.1245
 7616WAT      O31183   1.383   6.780   4.446  0.0105 -0.9928  0.2589
 7616WAT     H131184   1.469   6.768   4.460  0.4921  0.4132 -1.2571
 7616WAT     H231185   1.358   6.704   4.411  1.2358 -0.5419 -1.7130
 7616WAT    EPW31186   1.392   6.767   4.443  0.2627 -0.7185 -0.2563
 7617WAT      O31187   0.790   3.984   3.135  0.6129  0.2933  0.2295
 7617WAT     H131188   0.872   3.994   3.107 -0.2247  2.1793 -1.8617
 7617WAT     H231189   0.760   4.066   3.143 -1.2732 -0.3351  0.2185
 7617WAT    EPW31190   0.797   3.998   3.132  0.2106  0.4791 -0.0811
 7618WAT      O31191   1.998   2.264   6.526 -0.3040 -0.3739  0.2020
 7618WAT     H131192   1.911   2.258   6.527 -0.3904 -0.4517 -1.9790
 7618WAT     H231193   2.013   2.340   6.487  0.5492 -1.2359 -1.2543
 7618WAT    EPW31194   1.988   2.274   6.520 -0.1907 -0.5127 -0.3353
 7619WAT      O31195   6.828   7.088   3.128 -0.8897  0.8228  0.2627
 7619WAT     H131196   6.862   7.088   3.048 -1.0200 -1.9587  0.1248
 7619WAT     H231197   6.898   7.086   3.180 -0.8152  0.4886  0.1499
 7619WAT    EPW31198   6.843   7.088   3.124 -0.8979  0.3626  0.2257
 7620WAT      O31199   0.063   1.932   1.295 -0.1394  0.4457 -0.7288
 7620WAT     H131200   0.091   2.009   1.265 -0.8650  0.5635 -1.1029
 7620WAT     H231201   0.048   1.947   1.380  1.3011  0.2771 -0.4188
 7620WAT    EPW31202   0.065   1.945   1.304 -0.0338  0.4382 -0.7382
 7621WAT      O31203   5.685   6.836   3.547 -0.2052  0.4371 -0.5287
 7621WAT     H131204   5.697   6.869   3.467  1.9080 -2.6182 -1.6279
 7621WAT     H231205   5.733   6.889   3.598 -0.4372  1.5908 -1.4706
 7621WAT    EPW31206   5.694   6.849   3.543  0.0727  0.1562 -0.8302
 7622WAT      O31207   6.014   2.848   4.153 -0.2483 -0.0887 -0.4347
 7622WAT     H131208   5.930   2.864   4.138 -0.5689 -0.5292  0.7876
 7622WAT     H231209   6.016   2.826   4.237  1.0347 -0.4714 -0.5458
 7622WAT    EPW31210   6.002   2.847   4.163 -0.1062 -0.2103 -0.2705
 7623WAT      O31211   4.342   0.599   1.615  0.0737  0.0616 -0.2204
 7623WAT     H131212   4.402   0.662   1.610 -0.7607  0.8628 -0.6655
 7623WAT     H231213   4.285   0.631   1.673 -0.0333 -0.5821  0.0309
 7623WAT    EPW31214   4.342   0.613   1.622 -0.0654  0.0849 -0.2490
 7624WAT      O31215   1.559   4.582   0.284 -0.5135  0.5196 -0.3242
 7624WAT     H131216   1.483   4.589   0.241 -0.0889  1.7175 -0.9258
 7624WAT     H231217   1.583   4.665   0.297  1.3644  0.1982 -1.3680
 7624WAT    EPW31218   1.551   4.595   0.280 -0.1734  0.6491 -0.5673
 7625WAT      O31219   5.883   3.059   6.021  0.2567  0.2078 -0.7713
 7625WAT     H131220   5.900   2.973   6.019  1.4862  0.3368  1.4302
 7625WAT     H231221   5.813   3.067   5.969  1.0219 -1.8761 -2.2547
 7625WAT    EPW31222   5.875   3.047   6.013  0.5514 -0.0810 -0.6652
 7626WAT      O31223   1.594   2.872   6.092 -0.3746 -0.4343  0.0851
 7626WAT     H131224   1.560   2.854   6.013  2.9836 -2.5947 -1.1476
 7626WAT     H231225   1.568   2.804   6.141  1.0592 -1.5135 -0.5548
 7626WAT    EPW31226   1.585   2.859   6.087  0.3333 -0.9129 -0.1915
 7627WAT      O31227   2.876   0.787   2.098  0.5125 -0.7659 -0.1362
 7627WAT     H131228   2.903   0.870   2.093 -0.9417 -0.2370  0.4799
 7627WAT     H231229   2.896   0.763   2.179 -0.2811 -0.5740  0.1205
 7627WAT    EPW31230   2.883   0.796   2.109  0.1805 -0.6594 -0.0073
 7628WAT      O31231   5.547   2.329   6.638 -0.0526 -0.3242 -0.0302
 7628WAT     H131232   5.622   2.298   6.605  0.4611  1.6555 -0.8265
 7628WAT     H231233   5.566   2.344   6.721  1.0218  1.7286 -0.5812
 7628WAT    EPW31234   5.561   2.326   6.645  0.1820  0.2715 -0.2292
 7629WAT      O31235   6.996   6.720   1.143 -0.8427 -0.3616  0.8337
 7629WAT     H131236   7.012   6.802   1.168 -2.1615  0.1343  0.1438
 7629WAT     H231237   7.067   6.676   1.169 -0.3024  0.9131  1.5823
 7629WAT    EPW31238   7.009   6.725   1.150 -0.9577 -0.1000  0.8424
 7630WAT      O31239   3.671   5.562   2.160  0.5114  0.3028 -0.1386
 7630WAT     H131240   3.752   5.555   2.191  0.7765 -0.1805 -0.9029
 7630WAT     H231241   3.621   5.538   2.228  1.0135  0.4687  0.2931
 7630WAT    EPW31242   3.676   5.557   2.175  0.6248  0.2559 -0.1877
 7631WAT      O31243   1.086   0.681   6.664  0.1451  0.1464 -0.2208
 7631WAT     H131244   1.115   0.763   6.671 -2.6724  1.3245 -1.0831
 7631WAT     H231245   1.027   0.675   6.728  1.3077 -1.7385  0.7420
 7631WAT    EPW31246   1.082   0.693   6.675 -0.0994  0.0420 -0.2060
 7632WAT      O31247   4.218   5.040   3.158 -0.4161  0.1027 -0.1390
 7632WAT     H131248   4.254   5.009   3.085 -0.7606  0.0858 -0.3002
 7632WAT     H231249   4.255   4.992   3.221  1.1689  1.2230 -0.1365
 7632WAT    EPW31250   4.229   5.028   3.156 -0.2328  0.2657 -0.1625
 7633WAT      O31251   0.786   4.989   0.702 -0.2336  0.5527 -0.5457
 7633WAT     H131252   0.725   5.027   0.751  1.8084  1.4648  1.4328
 7633WAT     H231253   0.802   5.048   0.640 -0.0308  1.1117  0.0348
 7633WAT    EPW31254   0.779   5.003   0.700  0.0980  0.7700 -0.1677
 7634WAT      O31255   0.690   2.658   4.769 -0.1924 -0.0921  0.3919
 7634WAT     H131256   0.704   2.680   4.852 -1.6684 -0.0392  0.6445
 7634WAT     H231257   0.647   2.727   4.736 -2.4820 -1.3809  0.4743
 7634WAT    EPW31258   0.686   2.671   4.776 -0.7486 -0.2746  0.4414
 7635WAT      O31259   1.355   1.487   4.486  0.3158 -0.3332  0.3754
 7635WAT     H131260   1.405   1.556   4.500  0.5109 -0.3310 -0.2720
 7635WAT     H231261   1.351   1.447   4.563 -0.2371  0.6819  0.8902
 7635WAT    EPW31262   1.362   1.491   4.499  0.2630 -0.1829  0.3558
 7636WAT      O31263   0.203   7.133   1.216  0.3501 -0.3953  0.4516
 7636WAT     H131264   0.242   7.210   1.210  1.5129 -1.0379 -0.6863
 7636WAT     H231265   0.234   7.101   1.292  0.8136 -0.2365  0.3354
 7636WAT    EPW31266   0.213   7.139   1.226  0.5903 -0.4667  0.2663
 7637WAT      O31267   4.381   2.122   6.602 -0.2250  0.2675 -0.4010
 7637WAT     H131268   4.409   2.189   6.649  1.0795 -1.2573  1.1254
 7637WAT     H231269   4.410   2.140   6.521  0.6702  1.2206  0.1144
 7637WAT    EPW31270   4.389   2.135   6.597  0.0999  0.1830 -0.0994
 7638WAT      O31271   2.936   6.841   1.740  0.6828  0.3395 -0.1177
 7638WAT     H131272   3.006   6.889   1.764 -0.0435  1.1838  0.3581
 7638WAT     H231273   2.874   6.900   1.727 -0.0668 -0.4351 -0.1400
 7638WAT    EPW31274   2.937   6.857   1.742  0.4648  0.3498 -0.0507
 7639WAT      O31275   3.142   4.420   6.627  0.9062 -0.0739 -0.0138
 7639WAT     H131276   3.210   4.467   6.654  0.1192  2.7155 -2.3798
 7639WAT     H231277   3.177   4.367   6.567  1.0376  1.5646 -1.4478
 7639WAT    EPW31278   3.157   4.419   6.622  0.8094  0.5802 -0.5751
 7640WAT      O31279   3.637   1.438   2.032 -0.3612  0.3018 -0.1436
 7640WAT     H131280   3.666   1.517   2.009 -2.2953  1.3885  0.8366
 7640WAT     H231281   3.693   1.411   2.093 -0.5116  1.6566  0.6369
 7640WAT    EPW31282   3.649   1.445   2.038 -0.6691  0.6625  0.1165
 7641WAT      O31283   3.446   5.389   1.828  0.5479  0.6439  0.1047
 7641WAT     H131284   3.476   5.466   1.802  0.2964  1.2899  1.6535
 7641WAT     H231285   3.503   5.363   1.888 -0.2672  0.4191  0.8040
 7641WAT    EPW31286   3.459   5.396   1.833  0.3904  0.7061  0.4368
 7642WAT      O31287   3.307   6.000   7.380 -0.0268 -0.0444 -0.3046
 7642WAT     H131288   3.336   6.066   7.429 -0.2218  0.1847 -0.4916
 7642WAT     H231289   3.377   5.976   7.335  0.4449 -1.0143  0.9012
 7642WAT    EPW31290   3.321   6.006   7.380  0.0141 -0.1538 -0.1541
 7643WAT      O31291   7.002   2.060   4.586  0.1052  0.2559 -0.0392
 7643WAT     H131292   7.045   2.016   4.524 -0.0694 -0.3880  0.2891
 7643WAT     H231293   7.052   2.130   4.600  0.8048 -0.2465  0.0104
 7643WAT    EPW31294   7.016   2.064   4.579  0.1828  0.0865  0.0166
 7644WAT      O31295   0.600   6.182   0.442  0.1358 -0.1987  0.1276
 7644WAT     H131296   0.612   6.119   0.501 -0.3514  0.0374  0.4962
 7644WAT     H231297   0.619   6.255   0.486 -1.8705  0.1375  0.5631
 7644WAT    EPW31298   0.604   6.184   0.457 -0.2326 -0.1142  0.2464
 7645WAT      O31299   2.264   1.699   1.338  0.1430 -0.0298 -0.5455
 7645WAT     H131300   2.341   1.741   1.337 -0.1050  0.4156 -0.9551
 7645WAT     H231301   2.266   1.651   1.265  1.2562 -2.2883  0.8276
 7645WAT    EPW31302   2.276   1.698   1.327  0.2708 -0.2976 -0.4031
 7646WAT      O31303   3.990   1.400   3.923  0.3221 -0.1460  0.1096
 7646WAT     H131304   4.009   1.332   3.973  1.1603 -0.6629 -0.8740
 7646WAT     H231305   4.059   1.453   3.932  0.0521  0.1903  0.2271
 7646WAT    EPW31306   4.003   1.398   3.931  0.4061 -0.1727 -0.0183
 7647WAT      O31307   0.474   4.761   5.892 -0.4303 -0.4120  0.1169
 7647WAT     H131308   0.458   4.846   5.901 -0.2499 -0.2466 -0.9352
 7647WAT     H231309   0.558   4.752   5.913  0.4404  0.2347 -2.6407
 7647WAT    EPW31310   0.484   4.772   5.896 -0.2751 -0.2921 -0.4459
 7648WAT      O31311   4.015   7.094   0.962  0.0828  0.1292 -0.0570
 7648WAT     H131312   4.067   7.032   0.992  2.1721  1.4035 -0.8530
 7648WAT     H231313   3.985   7.062   0.887  0.8992 -0.0230 -0.3174
 7648WAT    EPW31314   4.018   7.080   0.956  0.5121  0.2950 -0.2131
 7649WAT      O31315   4.802   6.480   1.934  0.0319 -0.0027  0.0923
 7649WAT     H131316   4.795   6.448   1.853  0.2077  0.7608 -0.2352
 7649WAT     H231317   4.824   6.410   1.982 -1.2010 -0.6845 -0.3105
 7649WAT    EPW31318   4.804   6.465   1.929 -0.1243  0.0094 -0.0156
 7650WAT      O31319   6.133   4.229   7.359 -0.5890  0.0762 -0.0938
 7650WAT     H131320   6.184   4.158   7.361 -0.2258  0.3359 -0.0738
 7650WAT     H231321   6.053   4.196   7.370 -0.3144 -0.2094  1.2199
 7650WAT    EPW31322   6.129   4.213   7.361 -0.4948  0.0724  0.1032
 7651WAT      O31323   5.504   4.586   1.700 -0.2979  0.5476  0.0947
 7651WAT     H131324   5.421   4.581   1.729  0.1207  1.5000  1.6109
 7651WAT     H231325   5.549   4.609   1.772  1.5120 -1.2914 -0.3670
 7651WAT    EPW31326   5.498   4.589   1.715  0.0313  0.4166  0.2505
 7652WAT      O31327   3.303   1.332   3.398 -0.1393 -0.2912  0.9494
 7652WAT     H131328   3.248   1.399   3.411  2.1928  2.0750 -0.4011
 7652WAT     H231329   3.352   1.332   3.470  0.1179 -0.3057  0.7735
 7652WAT    EPW31330   3.302   1.342   3.411  0.2432  0.0562  0.7239
 7653WAT      O31331   1.221   6.621   3.535  0.1616  0.5172 -0.1026
 7653WAT     H131332   1.135   6.629   3.548  0.2384  0.0874  0.7542
 7653WAT     H231333   1.235   6.535   3.543  0.2583  0.1463 -3.1586
 7653WAT    EPW31334   1.210   6.610   3.538  0.1872  0.3989 -0.4275
 7654WAT      O31335   7.239   1.074   2.431  0.0283 -0.8705 -0.1920
 7654WAT     H131336   7.155   1.086   2.409 -0.4186 -0.7373  1.4301
 7654WAT     H231337   7.256   1.142   2.483  0.1569 -2.4900  2.0341
 7654WAT    EPW31338   7.229   1.086   2.435 -0.0187 -1.0900  0.3765
 7655WAT      O31339   0.829   0.538   2.169  0.2817 -0.0211  0.2135
 7655WAT     H131340   0.826   0.600   2.107 -0.7923 -0.4475 -0.1918
 7655WAT     H231341   0.821   0.464   2.123  0.8229 -0.4170  0.7556
 7655WAT    EPW31342   0.827   0.536   2.153  0.2030 -0.1426  0.2337
 7656WAT      O31343   2.168   0.188   6.880  0.0195  0.1237  0.5507
 7656WAT     H131344   2.111   0.152   6.935  0.9413 -2.6310 -0.1395
 7656WAT     H231345   2.194   0.121   6.831  2.7202  1.5492 -0.1496
 7656WAT    EPW31346   2.163   0.173   6.881  0.5547 -0.0726  0.3453
 7657WAT      O31347   1.990   1.203   0.179 -0.4742  0.0126  0.5566
 7657WAT     H131348   2.053   1.252   0.213 -0.2304  0.4571 -0.5070
 7657WAT     H231349   2.029   1.163   0.112 -1.0067 -0.6530  0.6364
 7657WAT    EPW31350   2.005   1.205   0.174 -0.5168 -0.0201  0.4113
 7658WAT      O31351   6.417   6.322   0.971 -0.2544 -0.4265 -0.0551
 7658WAT     H131352   6.471   6.390   0.979 -0.7843  0.2234 -1.4330
 7658WAT     H231353   6.339   6.356   0.991 -0.3483 -0.9791  0.5289
 7658WAT    EPW31354   6.413   6.337   0.975 -0.3466 -0.4121 -0.1724
 7659WAT      O31355   2.589   6.188   5.595 -0.8586 -0.9975  0.4300
 7659WAT     H131356   2.655   6.198   5.540 -0.0039 -1.6631  1.3032
 7659WAT     H231357   2.529   6.146   5.547 -1.0377  0.3955 -0.6285
 7659WAT    EPW31358   2.590   6.183   5.580 -0.7588 -0.8900  0.4026
 7660WAT      O31359   5.372   5.987   2.643 -0.3302 -0.1416  0.9256
 7660WAT     H131360   5.341   5.932   2.584 -2.2205  0.3199  1.4088
 7660WAT     H231361   5.404   5.935   2.705 -0.3893 -0.6640  0.5216
 7660WAT    EPW31362   5.372   5.971   2.644 -0.6182 -0.1506  0.9373
 7661WAT      O31363   5.414   2.876   5.326  0.1384 -0.8663  0.5894
 7661WAT     H131364   5.432   2.898   5.243  1.0406 -0.8839  0.7782
 7661WAT     H231365   5.337   2.835   5.319  0.4897 -1.3935 -0.3206
 7661WAT    EPW31366   5.405   2.873   5.313  0.3236 -0.9468  0.4828
 7662WAT      O31367   2.337   3.043   1.378 -0.7675  0.1045 -0.3708
 7662WAT     H131368   2.273   3.063   1.322 -0.1995 -1.6689 -1.7477
 7662WAT     H231369   2.409   3.073   1.339 -0.5527  0.5662  0.3574
 7662WAT    EPW31370   2.338   3.050   1.364 -0.6519 -0.0893 -0.4667
 7663WAT      O31371   6.729   6.430   6.346 -0.8015  0.8598 -0.1635
 7663WAT     H131372   6.694   6.404   6.422  0.1986  3.1779  1.2051
 7663WAT     H231373   6.807   6.391   6.345 -1.0992  0.2580 -0.3730
 7663WAT    EPW31374   6.735   6.421   6.357 -0.6977  1.1133  0.0078
 7664WAT      O31375   6.759   1.054   2.163 -0.1831 -0.4017  0.4193
 7664WAT     H131376   6.731   1.126   2.123  2.2917 -1.0423 -2.9737
 7664WAT     H231377   6.712   0.990   2.126  1.3424 -0.9140 -0.7521
 7664WAT    EPW31378   6.748   1.055   2.152  0.4078 -0.5720 -0.2549
 7665WAT      O31379   1.399   1.944   7.163 -0.0304  0.0186 -0.4888
 7665WAT     H131380   1.329   1.995   7.150  0.6831  1.2715  0.3829
 7665WAT     H231381   1.364   1.868   7.190 -1.1446 -0.1905 -2.3521
 7665WAT    EPW31382   1.383   1.940   7.165 -0.0896  0.1728 -0.6353
 7666WAT      O31383   6.977   5.020   1.530  0.0397  0.0994 -0.4851
 7666WAT     H131384   6.951   5.099   1.504 -1.1093 -0.3546 -0.7645
 7666WAT     H231385   6.988   5.029   1.616  1.0815  0.8663 -0.6863
 7666WAT    EPW31386   6.975   5.033   1.539  0.0238  0.1456 -0.5561
 7667WAT      O31387   3.624   5.295   4.595  0.0447 -0.3290 -0.6586
 7667WAT     H131388   3.675   5.328   4.658 -0.5511  0.4502 -0.5646
 7667WAT     H231389   3.619   5.210   4.615 -2.3310  0.2921  1.9709
 7667WAT    EPW31390   3.631   5.287   4.607 -0.3943 -0.1221 -0.2563
 7668WAT      O31391   7.134   1.914   6.157 -0.7521 -0.2822 -0.0316
 7668WAT     H131392   7.059   1.939   6.195 -0.4704 -0.2376  0.4893
 7668WAT     H231393   7.127   1.827   6.153 -0.0703 -0.4405  1.6329
 7668WAT    EPW31394   7.122   1.905   6.162 -0.6098 -0.2990  0.2912
 7669WAT      O31395   1.159   4.521   0.763  0.3629 -0.3341 -0.3472
 7669WAT     H131396   1.213   4.503   0.697  1.9304 -1.8363  1.2399
 7669WAT     H231397   1.093   4.465   0.751  0.0309  0.2353 -1.2770
 7669WAT    EPW31398   1.157   4.510   0.752  0.5454 -0.4719 -0.2501
 7670WAT      O31399   0.394   3.743   4.658 -0.0678  0.4179 -0.2160
 7670WAT     H131400   0.476   3.762   4.681 -0.0121 -0.3930  0.2768
 7670WAT     H231401   0.346   3.790   4.715  0.0682 -0.9083  1.0490
 7670WAT    EPW31402   0.399   3.753   4.670 -0.0395  0.1022  0.0437
 7671WAT      O31403   4.622   2.272   3.048  0.4911  0.1500  0.3478
 7671WAT     H131404   4.545   2.313   3.055 -1.3443 -2.6953 -1.2057
 7671WAT     H231405   4.620   2.214   3.113 -0.4948 -2.3783 -1.7523
 7671WAT    EPW31406   4.610   2.269   3.058  0.0743 -0.6438 -0.1919
 7672WAT      O31407   3.337   4.806   7.078  0.3618 -0.0451 -0.2730
 7672WAT     H131408   3.368   4.872   7.030 -0.8224 -0.3237 -1.4924
 7672WAT     H231409   3.407   4.754   7.090  0.9785  0.7079 -0.5442
 7672WAT    EPW31410   3.352   4.808   7.072  0.2780  0.0250 -0.4932
 7673WAT      O31411   2.439   7.225   1.945  0.5261 -0.2983  0.2433
 7673WAT     H131412   2.361   7.259   1.965  0.9495 -0.1537  1.8079
 7673WAT     H231413   2.492   7.294   1.939  0.2493 -0.2171 -2.6522
 7673WAT    EPW31414   2.435   7.240   1.947  0.5477 -0.2650  0.0467
 7674WAT      O31415   5.314   5.699   3.161  1.0394  0.2347  0.4028
 7674WAT     H131416   5.391   5.672   3.192  0.4903 -0.5802  1.0965
 7674WAT     H231417   5.257   5.675   3.223 -0.0297 -0.9771 -0.9794
 7674WAT    EPW31418   5.317   5.692   3.175  0.8004 -0.0647  0.3011
 7675WAT      O31419   6.649   1.065   2.423  0.3007  0.3891 -0.0597
 7675WAT     H131420   6.593   1.130   2.404  2.2343  2.4350  0.7700
 7675WAT     H231421   6.692   1.052   2.348 -0.7491 -0.7003 -0.5047
 7675WAT    EPW31422   6.647   1.073   2.409  0.4313  0.5304 -0.0029
 7676WAT      O31423   4.126   0.410   0.129 -0.2048  0.6372 -0.1177
 7676WAT     H131424   4.132   0.373   0.050 -0.1610 -0.9447  0.6009
 7676WAT     H231425   4.174   0.359   0.180 -1.3673  0.8214  1.2156
 7676WAT    EPW31426   4.134   0.397   0.125 -0.3701  0.4307  0.1854
 7677WAT      O31427   5.927   7.201   2.494 -0.1358  0.5225  0.0350
 7677WAT     H131428   5.918   7.118   2.520  1.0632  0.4722  0.3361
 7677WAT     H231429   5.864   7.243   2.538  0.4124  0.0548  1.3070
 7677WAT    EPW31430   5.916   7.195   2.505  0.1223  0.4460  0.2674
 7678WAT      O31431   4.146   3.932   1.285  0.7140 -0.4302 -0.1607
 7678WAT     H131432   4.160   3.982   1.215  0.6712 -0.6466 -0.3231
 7678WAT     H231433   4.150   3.989   1.352  0.7208 -0.2203 -0.3395
 7678WAT    EPW31434   4.149   3.948   1.285  0.7087 -0.4311 -0.2111
 7679WAT      O31435   1.716   1.677   5.213 -0.5720 -0.0705  0.0426
 7679WAT     H131436   1.700   1.745   5.160  1.4909  0.4422 -0.0398
 7679WAT     H231437   1.659   1.688   5.278  0.5255  2.6087  0.7208
 7679WAT    EPW31438   1.706   1.689   5.215 -0.1052  0.4010  0.1306
 7680WAT      O31439   0.123   3.663   6.047 -0.3354  0.3648  0.1924
 7680WAT     H131440   0.097   3.686   6.127  0.7054 -3.6331  1.9566
 7680WAT     H231441   0.052   3.624   6.013 -0.3066  0.6503 -0.2009
 7680WAT    EPW31442   0.108   3.660   6.054 -0.1774 -0.1836  0.3949
 7681WAT      O31443   2.781   3.552   1.848  0.2026  0.4257  0.7003
 7681WAT     H131444   2.724   3.568   1.784  0.1905 -2.4011 -0.1321
 7681WAT     H231445   2.752   3.602   1.914 -2.2109  0.3728 -0.2123
 7681WAT    EPW31446   2.769   3.562   1.848 -0.1557  0.0003  0.4426
 7682WAT      O31447   6.169   5.663   2.087  0.1598  0.1644  0.1721
 7682WAT     H131448   6.099   5.642   2.039  1.0604 -1.2093 -0.6157
 7682WAT     H231449   6.213   5.588   2.092  1.6087  1.0115  0.5835
 7682WAT    EPW31450   6.165   5.649   2.081  0.5069  0.0866  0.1165
 7683WAT      O31451   2.725   3.832   5.791  0.2835 -0.2665  0.3534
 7683WAT     H131452   2.641   3.850   5.806 -0.2494 -0.9844 -1.4970
 7683WAT     H231453   2.760   3.909   5.771  1.0046  0.7355  4.4670
 7683WAT    EPW31454   2.718   3.846   5.790  0.3113 -0.2245  0.6877
 7684WAT      O31455   0.272   6.545   1.831  0.3507 -0.1939 -0.0189
 7684WAT     H131456   0.259   6.470   1.787 -1.6336 -0.1580  0.3878
 7684WAT     H231457   0.215   6.599   1.794  0.4498  0.5715  0.9250
 7684WAT    EPW31458   0.261   6.542   1.819  0.0722 -0.0755  0.1806
 7685WAT      O31459   6.654   2.702   0.697 -0.1814 -0.4616  0.1930
 7685WAT     H131460   6.577   2.666   0.676  1.2726 -3.8014  0.0511
 7685WAT     H231461   6.707   2.634   0.706  3.0701  1.7124 -0.7451
 7685WAT    EPW31462   6.650   2.687   0.695  0.5137 -0.6338  0.0335
 7686WAT      O31463   5.241   5.519   4.512  0.2599  0.3047 -0.5527
 7686WAT     H131464   5.270   5.462   4.572  0.5288  0.2060 -0.7740
 7686WAT     H231465   5.167   5.548   4.546 -0.8663 -1.5417 -1.2709
 7686WAT    EPW31466   5.234   5.515   4.526  0.1332  0.0173 -0.6914
 7687WAT      O31467   1.993   4.613   0.571  0.0372 -0.3432  0.1415
 7687WAT     H131468   2.016   4.531   0.553 -1.3946 -0.7857  0.1798
 7687WAT     H231469   2.065   4.648   0.607  1.2341 -1.0241 -1.4958
 7687WAT    EPW31470   2.007   4.606   0.574  0.0025 -0.5092 -0.0947
 7688WAT      O31471   5.175   4.867   4.706  0.1866 -0.1122 -0.1878
 7688WAT     H131472   5.176   4.952   4.684  0.9947  0.1732  0.8921
 7688WAT     H231473   5.257   4.851   4.730  0.2427 -1.4390 -1.1724
 7688WAT    EPW31474   5.187   4.877   4.706  0.3143 -0.2660 -0.1737
 7689WAT      O31475   0.026   2.197   6.312 -0.1201  0.1753  0.0955
 7689WAT     H131476   0.075   2.266   6.332 -0.9545  0.5520  0.8957
 7689WAT     H231477  -0.034   2.230   6.257 -0.6410  0.1357  0.6367
 7689WAT    EPW31478   0.024   2.212   6.307 -0.3203  0.2251  0.2937
 7690WAT      O31479   5.279   6.672   3.698  0.0402 -0.2514  0.0096
 7690WAT     H131480   5.364   6.653   3.709 -0.0883  0.0076  1.7597
 7690WAT     H231481   5.239   6.625   3.759 -0.7035  2.1744  1.5582
 7690WAT    EPW31482   5.286   6.663   3.709 -0.0886  0.1452  0.4969
 7691WAT      O31483   4.556   1.611   6.304  0.1431  0.1072  0.0423
 7691WAT     H131484   4.500   1.613   6.370  0.9170  1.1197  0.6868
 7691WAT     H231485   4.634   1.610   6.342  0.6410  1.8472 -0.8188
 7691WAT    EPW31486   4.559   1.611   6.319  0.3310  0.5138  0.0103
 7692WAT      O31487   5.885   3.859   3.544  0.9179  0.0745 -0.1996
 7692WAT     H131488   5.962   3.819   3.529  0.9260 -0.0477  0.1597
 7692WAT     H231489   5.845   3.806   3.601 -0.6884 -1.4447 -2.5467
 7692WAT    EPW31490   5.891   3.845   3.550  0.6818 -0.1680 -0.4932
 7693WAT      O31491   2.728   7.189   3.489  0.4239 -0.2523  0.3966
 7693WAT     H131492   2.690   7.140   3.550  0.9409 -0.3205  0.6714
 7693WAT     H231493   2.729   7.139   3.419 -3.0531  0.8843 -0.6705
 7693WAT    EPW31494   2.723   7.175   3.488 -0.0133 -0.0945  0.2795
 7694WAT      O31495   2.101   2.213   3.173  0.2633  0.3279 -0.4368
 7694WAT     H131496   2.041   2.261   3.215  0.4861 -0.6770  1.1075
 7694WAT     H231497   2.069   2.132   3.177  0.7193  0.0779 -1.4851
 7694WAT    EPW31498   2.088   2.208   3.179  0.3636  0.1425 -0.3635
 7695WAT      O31499   1.587   0.441   1.106  0.4175 -0.0460  0.7477
 7695WAT     H131500   1.581   0.523   1.078 -2.9040  0.0295  1.2139
 7695WAT     H231501   1.577   0.394   1.033  2.3919 -0.1002  0.4705
 7695WAT    EPW31502   1.585   0.446   1.091  0.2185 -0.0429  0.7756
 7696WAT      O31503   5.488   0.415   4.301  0.2319 -0.6003 -0.0570
 7696WAT     H131504   5.422   0.401   4.246  1.1162 -1.0343 -1.0469
 7696WAT     H231505   5.524   0.489   4.273  0.8405 -0.9541 -0.2445
 7696WAT    EPW31506   5.484   0.424   4.289  0.4524 -0.7167 -0.2309
 7697WAT      O31507   0.216   3.496   5.818  0.1599  0.0587  0.1852
 7697WAT     H131508   0.195   3.576   5.791 -2.2479 -0.6811 -0.4293
 7697WAT     H231509   0.208   3.501   5.905 -0.8482  0.3067  0.0930
 7697WAT    EPW31510   0.211   3.509   5.827 -0.3447 -0.0140  0.0808
 7698WAT      O31511   1.297   1.311   5.723  0.2332  0.1923  0.1272
 7698WAT     H131512   1.245   1.317   5.653  0.6053  0.1894 -0.1507
 7698WAT     H231513   1.291   1.390   5.759 -1.4048 -0.3367  1.1438
 7698WAT    EPW31514   1.288   1.324   5.718  0.0462  0.1137  0.2363
 7699WAT      O31515   2.584   6.011   6.690 -0.6128 -0.3349  0.6009
 7699WAT     H131516   2.659   5.987   6.727  0.7232  0.1919 -1.5364
 7699WAT     H231517   2.610   6.069   6.629 -2.7624 -0.1720 -0.2381
 7699WAT    EPW31518   2.599   6.016   6.686 -0.7330 -0.2330  0.1612
 7700WAT      O31519   0.737   5.735   1.987 -0.1011  0.4527  0.3936
 7700WAT     H131520   0.672   5.793   1.981 -1.3633 -1.0443 -1.7877
 7700WAT     H231521   0.705   5.663   1.950  2.0038 -1.1343  1.4159
 7700WAT    EPW31522   0.723   5.733   1.980  0.0234 -0.0029  0.2224
 7701WAT      O31523   3.291   7.131   5.466  0.0052 -0.3477  0.7431
 7701WAT     H131524   3.334   7.194   5.508  0.2175  0.1639 -0.2188
 7701WAT     H231525   3.304   7.061   5.516  0.9503  0.0590  1.0872
 7701WAT    EPW31526   3.299   7.130   5.480  0.1762 -0.2120  0.6518
 7702WAT      O31527   4.568   3.554   0.916 -0.0954 -0.4828  0.4107
 7702WAT     H131528   4.568   3.573   0.831 -0.3530 -1.5709  0.1552
 7702WAT     H231529   4.493   3.589   0.945  0.8327  1.5017  0.6019
 7702WAT    EPW31530   4.557   3.562   0.908  0.0036 -0.3504  0.4012
 7703WAT      O31531   0.343   3.771   0.636  0.1413  0.2635 -0.1729
 7703WAT     H131532   0.322   3.727   0.563  0.6636 -0.8994  0.3391
 7703WAT     H231533   0.281   3.832   0.642 -0.9346 -0.7435 -0.6475
 7703WAT    EPW31534   0.331   3.773   0.626  0.0595 -0.0570 -0.1673
 7704WAT      O31535   6.921   4.477   5.599 -0.2267 -0.2637  0.1354
 7704WAT     H131536   6.987   4.516   5.557 -0.6866 -0.4670 -0.8025
 7704WAT     H231537   6.872   4.543   5.626  0.6058 -0.0875  1.2828
 7704WAT    EPW31538   6.923   4.492   5.596 -0.1717 -0.2677  0.1663
 7705WAT      O31539   6.683   1.114   3.093 -0.7001 -0.4821  0.0868
 7705WAT     H131540   6.623   1.082   3.148  0.1834 -0.3850  1.1363
 7705WAT     H231541   6.672   1.200   3.099  0.5355 -0.3967  1.4609
 7705WAT    EPW31542   6.672   1.122   3.102 -0.3871 -0.4551  0.4448
 7706WAT      O31543   6.904   5.986   5.895 -0.3978 -0.2035 -0.6116
 7706WAT     H131544   6.921   5.951   5.973 -1.6451  1.3804  0.4642
 7706WAT     H231545   6.838   5.937   5.865  0.1500 -0.8805 -0.7312
 7706WAT    EPW31546   6.897   5.974   5.902 -0.5012 -0.0695 -0.4703
 7707WAT      O31547   3.972   4.023   2.777  0.1598  0.0034 -0.5875
 7707WAT     H131548   3.951   3.994   2.857 -1.1465 -0.1748 -0.9720
 7707WAT     H231549   3.899   4.061   2.749  1.4338  2.6821 -0.6034
 7707WAT    EPW31550   3.958   4.024   2.785  0.1550  0.3728 -0.6466
 7708WAT      O31551   3.636   3.883   0.658 -0.3236  0.0152 -0.1636
 7708WAT     H131552   3.624   3.812   0.707 -0.9962  0.4005  0.2425
 7708WAT     H231553   3.582   3.942   0.693 -0.4777  0.4447 -1.0870
 7708WAT    EPW31554   3.627   3.881   0.670 -0.4457  0.1356 -0.2400
 7709WAT      O31555   2.498   3.455   3.523 -0.4013 -0.7947  0.0613
 7709WAT     H131556   2.535   3.534   3.521  0.2118 -1.0933 -1.7136
 7709WAT     H231557   2.414   3.473   3.541 -0.5438  0.3922 -1.5790
 7709WAT    EPW31558   2.491   3.470   3.525 -0.3318 -0.6635 -0.4432
 7710WAT      O31559   3.496   6.224   1.750 -0.4073 -0.3172 -0.6238
 7710WAT     H131560   3.497   6.174   1.679 -0.8344 -0.7786 -0.3102
 7710WAT     H231561   3.526   6.171   1.813  1.9373  0.6459 -0.7990
 7710WAT    EPW31562   3.501   6.209   1.749 -0.1240 -0.2431 -0.6034
 7711WAT      O31563   6.639   4.533   0.274  0.2911  0.0263 -0.0606
 7711WAT     H131564   6.657   4.498   0.352  3.1166  1.6418  0.1603
 7711WAT     H231565   6.714   4.524   0.230 -0.0507  2.3486 -1.2665
 7711WAT    EPW31566   6.653   4.527   0.279  0.6580  0.6080 -0.2061
 7712WAT      O31567   6.435   2.585   3.649  0.2410  0.1755  0.3506
 7712WAT     H131568   6.399   2.600   3.727  0.8581 -0.6944  0.8247
 7712WAT     H231569   6.472   2.661   3.628  0.6930  0.2238  1.2627
 7712WAT    EPW31570   6.435   2.598   3.657  0.3989  0.0541  0.5554
 7713WAT      O31571   2.319   5.070   0.415 -0.9090  0.1179  0.0935
 7713WAT     H131572   2.403   5.053   0.397 -0.6858 -0.2465  1.3847
 7713WAT     H231573   2.282   5.075   0.336  0.5130  1.2914 -0.5432
 7713WAT    EPW31574   2.326   5.068   0.401 -0.6660  0.2374  0.1902
 7714WAT      O31575   6.696   3.637   5.264  0.0335 -0.2292  0.2440
 7714WAT     H131576   6.674   3.587   5.196 -0.7230  0.0818  0.2545
 7714WAT     H231577   6.752   3.695   5.228 -1.4734  0.8475 -0.4613
 7714WAT    EPW31578   6.701   3.638   5.249 -0.3008 -0.0242  0.1414
 7715WAT      O31579   2.089   0.155   3.172  0.4267 -0.0572 -0.0942
 7715WAT     H131580   2.060   0.104   3.237 -2.4827  0.3510 -0.8979
 7715WAT     H231581   2.133   0.218   3.214 -0.2526 -0.5067  1.3699
 7715WAT    EPW31582   2.091   0.157   3.188 -0.1034 -0.0633  0.0033
 7716WAT      O31583   6.870   3.811   5.136  0.1215 -0.2686 -0.1503
 7716WAT     H131584   6.862   3.897   5.148 -1.0981 -0.5992  1.6228
 7716WAT     H231585   6.831   3.798   5.059 -0.6382  0.6185  0.0634
 7716WAT    EPW31586   6.863   3.822   5.126 -0.1709 -0.1864  0.1432
 7717WAT      O31587   4.474   1.380   4.667  0.0694  0.4567  0.4470
 7717WAT     H131588   4.548   1.417   4.638  0.6122 -0.3188  0.8248
 7717WAT     H231589   4.461   1.314   4.612 -0.7219  0.9963 -0.0283
 7717WAT    EPW31590   4.483   1.376   4.655  0.0327  0.4219  0.4326
 7718WAT      O31591   4.151   3.010   3.524 -0.3536 -0.4947 -0.1051
 7718WAT     H131592   4.123   3.078   3.477  1.6819 -0.8301 -1.9709
 7718WAT     H231593   4.115   2.941   3.485 -1.0307 -0.6203  0.7154
 7718WAT    EPW31594   4.142   3.010   3.511 -0.1529 -0.5628 -0.2595
 7719WAT      O31595   4.745   4.221   5.702 -0.0206 -0.3333  0.4459
 7719WAT     H131596   4.735   4.308   5.697  1.1855 -0.2079 -0.3329
 7719WAT     H231597   4.709   4.192   5.628 -1.9266 -0.6931  1.4622
 7719WAT    EPW31598   4.738   4.230   5.690 -0.1240 -0.3679  0.4810
 7720WAT      O31599   7.047   6.118   1.856 -0.3308  0.1077 -0.2154
 7720WAT     H131600   7.031   6.080   1.779  2.2607  0.8347 -1.2420
 7720WAT     H231601   7.020   6.200   1.844 -1.0528 -0.0834  0.0952
 7720WAT    EPW31602   7.041   6.124   1.843 -0.0546  0.1868 -0.3211
 7721WAT      O31603   1.434   6.956   4.981 -0.2212 -0.4187 -0.1692
 7721WAT     H131604   1.476   7.002   5.043  1.2340 -0.3095 -1.1890
 7721WAT     H231605   1.449   6.873   5.004 -0.0033 -0.3800 -0.1722
 7721WAT    EPW31606   1.443   6.950   4.994  0.0260 -0.3969 -0.3203
 7722WAT      O31607   1.960   6.686   1.663  0.7428 -0.9171 -0.2728
 7722WAT     H131608   1.992   6.605   1.668 -0.7178 -1.4617  1.1485
 7722WAT     H231609   1.880   6.679   1.697 -0.6951  0.5180 -3.0451
 7722WAT    EPW31610   1.953   6.673   1.669  0.3146 -0.7855 -0.4724
 7723WAT      O31611   4.572   0.657   4.964 -0.6884  0.0348  0.5029
 7723WAT     H131612   4.553   0.653   4.879 -2.2319  0.7186  0.7949
 7723WAT     H231613   4.528   0.590   4.999 -0.5108  0.0888  0.8431
 7723WAT    EPW31614   4.563   0.647   4.957 -0.8902  0.1438  0.5963
 7724WAT      O31615   6.354   2.613   0.552 -0.2925 -0.2128  0.9627
 7724WAT     H131616   6.326   2.567   0.621  1.4011 -1.2862  1.0004
 7724WAT     H231617   6.365   2.553   0.490 -0.3434  0.5187  0.2377
 7724WAT    EPW31618   6.352   2.598   0.553 -0.0498 -0.2633  0.8612
 7725WAT      O31619   5.652   1.331   4.975 -0.2967  0.5637  0.1399
 7725WAT     H131620   5.638   1.341   5.060  0.9866  0.5949  0.3767
 7725WAT     H231621   5.661   1.244   4.966  4.0325  0.7141  0.9207
 7725WAT    EPW31622   5.652   1.319   4.986  0.5324  0.5905  0.2902
 7726WAT      O31623   0.749   3.930   4.517  0.1766 -0.3069  0.0065
 7726WAT     H131624   0.710   3.906   4.443  0.0657 -2.0424  0.5580
 7726WAT     H231625   0.834   3.919   4.501  0.0905 -2.1485  0.5280
 7726WAT    EPW31626   0.756   3.925   4.504  0.1475 -0.8353  0.1650
 7727WAT      O31627   5.759   4.552   6.485  0.1237  0.0040 -0.0278
 7727WAT     H131628   5.845   4.547   6.502 -0.2189 -1.9006  1.4663
 7727WAT     H231629   5.729   4.602   6.550 -0.0795 -0.4493  0.2265
 7727WAT    EPW31630   5.768   4.559   6.497  0.0431 -0.3443  0.2305
 7728WAT      O31631   2.381   3.658   0.423 -0.0989 -0.3982  0.8127
 7728WAT     H131632   2.419   3.598   0.372  0.7015  1.0793 -0.4147
 7728WAT     H231633   2.307   3.619   0.449 -0.8738 -1.0392 -2.0188
 7728WAT    EPW31634   2.376   3.644   0.419 -0.0951 -0.2746  0.2131
 7729WAT      O31635   0.916   5.664   6.128  0.5836 -0.4187  0.1099
 7729WAT     H131636   0.981   5.723   6.136  2.2539 -2.2591  1.0100
 7729WAT     H231637   0.880   5.664   6.207  2.0361 -2.0967  0.8376
 7729WAT    EPW31638   0.920   5.673   6.141  1.0449 -0.9384  0.3503
 7730WAT      O31639   1.142   5.074   0.733  0.2663 -0.1333  0.2731
 7730WAT     H131640   1.131   4.993   0.702  2.0862 -0.4305  0.3373
 7730WAT     H231641   1.218   5.070   0.775  1.2640  2.0171 -1.1626
 7730WAT    EPW31642   1.151   5.061   0.734  0.6825  0.1404  0.0705
 7731WAT      O31643   6.827   3.836   4.667  0.1525  0.0158 -0.5409
 7731WAT     H131644   6.762   3.833   4.609 -0.8585  1.8338  0.3880
 7731WAT     H231645   6.794   3.792   4.736  0.7483 -0.8270 -0.7772
 7731WAT    EPW31646   6.813   3.829   4.669  0.0911  0.1598 -0.4386
 7732WAT      O31647   1.184   2.678   0.731 -0.1931  0.4767 -0.4679
 7732WAT     H131648   1.253   2.689   0.679  0.7696  1.2201  0.9240
 7732WAT     H231649   1.119   2.663   0.675  1.2610 -1.4276 -1.7824
 7732WAT    EPW31650   1.184   2.677   0.715  0.1639  0.3052 -0.4565
 7733WAT      O31651   1.322   1.565   5.843 -1.2209 -0.1963 -0.1784
 7733WAT     H131652   1.255   1.577   5.898 -0.5907  0.4883  0.4769
 7733WAT     H231653   1.383   1.527   5.893 -0.3329  1.1830 -0.1476
 7733WAT    EPW31654   1.321   1.561   5.859 -0.9967  0.1086 -0.0771
 7734WAT      O31655   3.458   2.483   1.152 -0.1337  0.4061 -0.1031
 7734WAT     H131656   3.383   2.459   1.116 -0.2208  0.2273  0.1930
 7734WAT     H231657   3.489   2.544   1.097  0.5289 -0.9945 -1.3587
 7734WAT    EPW31658   3.451   2.489   1.139 -0.0487  0.1728 -0.2449
 7735WAT      O31659   5.457   4.023   1.142  0.4483 -0.2910  0.6678
 7735WAT     H131660   5.452   4.110   1.134  1.4492 -0.0702  2.0463
 7735WAT     H231661   5.490   4.012   1.223  0.9465 -1.9263  0.2748
 7735WAT    EPW31662   5.461   4.034   1.153  0.6697 -0.5000  0.8134
 7736WAT      O31663   3.126   1.720   5.184 -0.5899  0.5464  0.5512
 7736WAT     H131664   3.163   1.736   5.262  0.9924 -2.1309  0.4710
 7736WAT     H231665   3.187   1.746   5.127 -0.4734 -0.2310  0.3128
 7736WAT    EPW31666   3.141   1.727   5.187 -0.3390  0.0361  0.5041
 7737WAT      O31667   4.368   6.988   2.190  0.0623 -0.1900 -0.8673
 7737WAT     H131668   4.322   7.063   2.198  0.7115  0.1199  0.2465
 7737WAT     H231669   4.420   7.003   2.122 -1.6652 -0.6756 -2.3867
 7737WAT    EPW31670   4.369   7.002   2.181 -0.0970 -0.2160 -0.9272
 7738WAT      O31671   1.235   4.442   6.945  0.3961  0.2327 -0.1786
 7738WAT     H131672   1.254   4.517   6.984 -0.2696  1.3259 -1.8636
 7738WAT     H231673   1.307   4.423   6.900  0.6575 -0.3007  0.4446
 7738WAT    EPW31674   1.249   4.450   6.944  0.3364  0.3154 -0.3355
 7739WAT      O31675   3.424   0.450   6.266 -0.1736 -0.2955 -0.3392
 7739WAT     H131676   3.412   0.512   6.206  0.6505  1.0687  0.8372
 7739WAT     H231677   3.507   0.425   6.254  0.5288  1.1050  1.1465
 7739WAT    EPW31678   3.435   0.455   6.255  0.0519  0.1129  0.0541
 7740WAT      O31679   7.217   6.728   2.009 -0.3216 -0.6060  0.6475
 7740WAT     H131680   7.146   6.778   2.000 -1.1467 -1.9427 -0.6020
 7740WAT     H231681   7.186   6.651   2.035  0.4112 -1.7756 -1.6636
 7740WAT    EPW31682   7.202   6.724   2.012 -0.3352 -0.9762  0.1215
 7741WAT      O31683   0.169   1.499   5.569  0.4468  0.1059  0.8063
 7741WAT     H131684   0.223   1.470   5.508 -1.0567 -1.9312  0.3240
 7741WAT     H231685   0.156   1.583   5.548  2.2534  0.2497  0.1386
 7741WAT    EPW31686   0.175   1.508   5.557  0.4916 -0.1738  0.6365
 7742WAT      O31687   4.514   6.303   3.228 -0.2120 -0.1108 -0.0317
 7742WAT     H131688   4.500   6.221   3.257  0.6890 -0.3003 -0.0991
 7742WAT     H231689   4.601   6.311   3.231 -0.3346  1.8246  2.7101
 7742WAT    EPW31690   4.525   6.292   3.233 -0.0970  0.1471  0.3633
 7743WAT      O31691   6.411   4.394   2.821  0.0389  0.3717 -0.2897
 7743WAT     H131692   6.407   4.476   2.791  1.7154  1.1667  1.4584
 7743WAT     H231693   6.463   4.400   2.891 -1.4284 -1.8365  1.1087
 7743WAT    EPW31694   6.418   4.407   2.827  0.0698  0.1629  0.1751
 7744WAT      O31695   4.156   6.661   2.248 -0.0705  0.1130 -0.0698
 7744WAT     H131696   4.132   6.739   2.217  1.2370 -0.2930 -2.3179
 7744WAT     H231697   4.198   6.681   2.322 -1.8673  1.2741  0.7360
 7744WAT    EPW31698   4.159   6.676   2.254 -0.1428  0.2245 -0.2829
 7745WAT      O31699   0.533   3.857   6.326  0.6085 -0.2013  0.6496
 7745WAT     H131700   0.546   3.911   6.393 -0.4903  0.9742 -0.0448
 7745WAT     H231701   0.535   3.910   6.257 -0.1732 -1.0876 -0.0790
 7745WAT    EPW31702   0.535   3.873   6.326  0.3307 -0.1586  0.4394
 7746WAT      O31703   4.439   1.491   2.820  0.0622  0.3757 -0.5518
 7746WAT     H131704   4.489   1.431   2.860  0.0145  0.2976 -0.6084
 7746WAT     H231705   4.490   1.561   2.815  0.3329  0.1522 -1.0304
 7746WAT    EPW31706   4.454   1.492   2.825  0.0952  0.3311 -0.6309
 7747WAT      O31707   5.117   6.802   0.303 -0.5311 -0.0148  0.1551
 7747WAT     H131708   5.140   6.883   0.322 -1.6864  0.3750 -0.0248
 7747WAT     H231709   5.048   6.787   0.355  0.6667 -1.4823  1.4134
 7747WAT    EPW31710   5.110   6.812   0.313 -0.5248 -0.1740  0.3144
 7748WAT      O31711   5.574   0.085   0.745  0.1769  0.1993 -0.3062
 7748WAT     H131712   5.573   0.029   0.811  0.9146 -1.1485 -1.3730
 7748WAT     H231713   5.659   0.103   0.734 -0.0901  2.3232  0.5978
 7748WAT    EPW31714   5.586   0.079   0.753  0.2464  0.3139 -0.3303
 7749WAT      O31715   2.788   5.618   1.796 -0.5603  0.0885  0.5401
 7749WAT     H131716   2.737   5.686   1.781  0.1022 -0.0647 -3.3063
 7749WAT     H231717   2.864   5.653   1.818 -0.5185  0.5517 -0.3379
 7749WAT    EPW31718   2.791   5.633   1.797 -0.4562  0.1343 -0.1578
 7750WAT      O31719   2.864   1.229   5.830  0.0087  0.5757  0.0054
 7750WAT     H131720   2.886   1.151   5.798 -1.1211  1.1569 -2.4588
 7750WAT     H231721   2.921   1.284   5.792 -1.0334  1.2431 -0.6390
 7750WAT    EPW31722   2.876   1.226   5.819 -0.3122  0.7601 -0.4538
 7751WAT      O31723   6.529   2.621   1.878  0.3479 -0.5624  0.1872
 7751WAT     H131724   6.455   2.668   1.874 -0.0396 -1.1038  0.7692
 7751WAT     H231725   6.591   2.681   1.886  0.0965 -0.0314 -1.4470
 7751WAT    EPW31726   6.527   2.636   1.879  0.2535 -0.5639  0.0317
 7752WAT      O31727   4.142   3.235   3.877  0.1451 -0.0273  0.2585
 7752WAT     H131728   4.191   3.214   3.947 -1.4947  0.4648  1.6211
 7752WAT     H231729   4.172   3.315   3.855  1.4346 -0.6451 -0.3572
 7752WAT    EPW31730   4.154   3.244   3.884  0.0934 -0.0459  0.3689
 7753WAT      O31731   1.623   3.347   5.573 -0.0219 -0.1176 -0.1639
 7753WAT     H131732   1.559   3.366   5.628 -1.3856 -3.3936 -0.3607
 7753WAT     H231733   1.583   3.341   5.495  1.2588  1.3021 -0.9862
 7753WAT    EPW31734   1.608   3.349   5.569 -0.0342 -0.3918 -0.3144
 7754WAT      O31735   6.303   6.229   5.637 -0.9730 -0.3852  0.1760
 7754WAT     H131736   6.270   6.163   5.683 -0.9207 -0.9150 -0.5393
 7754WAT     H231737   6.253   6.232   5.566  0.8827 -1.6350 -1.2687
 7754WAT    EPW31738   6.291   6.220   5.634 -0.6911 -0.6481 -0.1431
 7755WAT      O31739   5.387   2.057   3.165 -0.2603 -0.9331  0.7936
 7755WAT     H131740   5.377   2.111   3.232  1.4903  0.3496  0.0998
 7755WAT     H231741   5.470   2.070   3.140 -0.6313 -1.8736 -1.1663
 7755WAT    EPW31742   5.398   2.067   3.171 -0.0565 -0.8826  0.4016
 7756WAT      O31743   2.134   3.930   0.722 -0.0875  0.5847  0.2127
 7756WAT     H131744   2.135   3.926   0.635 -2.6730  1.5162  0.0402
 7756WAT     H231745   2.161   3.851   0.747 -0.3881 -0.0936 -1.4634
 7756WAT    EPW31746   2.138   3.918   0.713 -0.5138  0.6221 -0.0604
 7757WAT      O31747   5.447   1.022   4.380  0.3504 -0.2704 -0.4647
 7757WAT     H131748   5.496   1.086   4.412  0.8776 -0.5577 -0.6943
 7757WAT     H231749   5.368   1.037   4.415  0.9749 -0.7605  1.2288
 7757WAT    EPW31750   5.442   1.034   4.390  0.5206 -0.3852 -0.2485
 7758WAT      O31751   0.338   0.184   5.421  0.4789 -0.4430  0.3691
 7758WAT     H131752   0.394   0.163   5.357  0.8935  1.8065 -0.1130
 7758WAT     H231753   0.388   0.182   5.493  1.1883  1.3038 -0.0258
 7758WAT    EPW31754   0.354   0.181   5.423  0.6449  0.1473  0.2395
 7759WAT      O31755   2.101   3.213   0.176 -0.0897 -0.2336 -0.0624
 7759WAT     H131756   2.062   3.202   0.253 -0.1656  0.7244  0.0474
 7759WAT     H231757   2.128   3.296   0.178 -1.2359  0.2276 -1.5711
 7759WAT    EPW31758   2.100   3.224   0.188 -0.2702 -0.0240 -0.2690
 7760WAT      O31759   5.148   4.832   4.140 -0.3556 -0.0218 -0.4066
 7760WAT     H131760   5.194   4.859   4.210 -0.3553  0.2824 -0.5201
 7760WAT     H231761   5.141   4.746   4.151  0.4603 -0.1081 -0.5094
 7760WAT    EPW31762   5.154   4.823   4.152 -0.2350  0.0104 -0.4385
 7761WAT      O31763   4.494   0.622   4.689 -0.0561  0.3718 -0.2167
 7761WAT     H131764   4.434   0.660   4.639 -1.0389  1.2098  1.5095
 7761WAT     H231765   4.455   0.549   4.717  0.6511 -0.3215 -0.9681
 7761WAT    EPW31766   4.480   0.617   4.686 -0.0968  0.3932 -0.0727
 7762WAT      O31767   2.146   5.232   5.936  0.4498  0.2742  0.5390
 7762WAT     H131768   2.187   5.251   5.862  1.4231  0.1267  1.0240
 7762WAT     H231769   2.063   5.256   5.921  0.0830 -1.9286 -1.4319
 7762WAT    EPW31770   2.140   5.238   5.923  0.5394 -0.0730  0.3195
 7763WAT      O31771   5.076   5.806   5.583  0.2611 -0.1626  0.5949
 7763WAT     H131772   5.068   5.879   5.536 -1.0539 -1.5975 -1.5757
 7763WAT     H231773   5.015   5.814   5.644 -0.1432  0.3860  0.1298
 7763WAT    EPW31774   5.066   5.818   5.585  0.0071 -0.2935  0.2055
 7764WAT      O31775   2.982   5.651   6.761  0.9643  0.2483 -0.1160
 7764WAT     H131776   3.042   5.638   6.699  2.0562  1.2825  0.6697
 7764WAT     H231777   2.994   5.583   6.815 -1.0827 -1.5865 -1.7412
 7764WAT    EPW31778   2.993   5.639   6.760  0.8232  0.1300 -0.2400
 7765WAT      O31779   2.239   2.239   5.063 -0.5560  0.0393 -0.0790
 7765WAT     H131780   2.228   2.160   5.097  3.1726 -0.6211 -0.0000
 7765WAT     H231781   2.244   2.291   5.133 -0.7990 -0.0011 -0.0304
 7765WAT    EPW31782   2.238   2.235   5.078 -0.0411 -0.0642 -0.0601
 7766WAT      O31783   1.800   0.379   6.496 -0.2414 -0.1394 -0.5920
 7766WAT     H131784   1.746   0.327   6.451 -0.6487  0.6637 -1.0556
 7766WAT     H231785   1.805   0.342   6.574 -1.6347 -0.1184 -0.4775
 7766WAT    EPW31786   1.793   0.366   6.501 -0.5074 -0.0177 -0.6436
 7767WAT      O31787   1.483   0.359   7.218  0.2942 -0.2425  0.2558
 7767WAT     H131788   1.445   0.283   7.239  1.8483 -0.6178  1.9663
 7767WAT     H231789   1.416   0.414   7.208 -0.7912 -1.4163  0.7580
 7767WAT    EPW31790   1.468   0.356   7.219  0.3634 -0.4713  0.5827
 7768WAT      O31791   0.249   6.754   4.291  0.3300 -0.7613 -0.0701
 7768WAT     H131792   0.185   6.806   4.321 -0.7620 -2.1314  0.0525
 7768WAT     H231793   0.235   6.678   4.331  2.5786 -0.8803  0.6101
 7768WAT    EPW31794   0.237   6.751   4.301  0.5009 -0.9812  0.0485
 7769WAT      O31795   7.000   6.339   7.230  0.0376 -0.3968  0.1088
 7769WAT     H131796   7.060   6.336   7.293  1.5560 -1.9376 -1.3209
 7769WAT     H231797   6.925   6.338   7.274  1.0275 -0.3007  1.9120
 7769WAT    EPW31798   6.998   6.339   7.246  0.4081 -0.6102  0.1640
 7770WAT      O31799   0.096   2.915   1.804  0.1508  0.2160 -0.3415
 7770WAT     H131800   0.050   2.880   1.868  1.2946  1.3071  1.1517
 7770WAT     H231801   0.133   2.846   1.764  0.0640 -0.4379  0.6923
 7770WAT    EPW31802   0.095   2.900   1.807  0.3069  0.2806  0.0318
 7771WAT      O31803   5.647   2.687   0.512 -0.5657 -0.2593  0.4287
 7771WAT     H131804   5.674   2.723   0.587 -0.2731 -1.1762  0.7772
 7771WAT     H231805   5.601   2.751   0.474 -1.2045  0.0371  1.6490
 7771WAT    EPW31806   5.644   2.702   0.518 -0.6169 -0.3509  0.6605
 7772WAT      O31807   0.341   5.523   6.612 -0.4429  0.2698 -0.2703
 7772WAT     H131808   0.425   5.524   6.636 -0.7153 -0.2029  0.7639
 7772WAT     H231809   0.337   5.457   6.554 -0.1415  0.1522 -0.1613
 7772WAT    EPW31810   0.353   5.513   6.607 -0.4386  0.1826 -0.1014
 7773WAT      O31811   4.514   5.355   6.841 -0.0023 -0.1269 -0.3154
 7773WAT     H131812   4.599   5.348   6.860  0.2962  1.5386 -0.8632
 7773WAT     H231813   4.500   5.291   6.784  1.8090  1.6620 -3.0399
 7773WAT    EPW31814   4.525   5.345   6.836  0.3093  0.3834 -0.7988
 7774WAT      O31815   4.303   4.297   1.833  0.0764  0.0245 -0.1005
 7774WAT     H131816   4.217   4.296   1.822  0.2193  2.2563 -2.2625
 7774WAT     H231817   4.325   4.380   1.817  2.8320 -0.8660 -1.5966
 7774WAT    EPW31818   4.293   4.309   1.829  0.5046  0.2226 -0.6409
 7775WAT      O31819   5.605   6.620   0.899  0.0281 -0.0371  0.1013
 7775WAT     H131820   5.598   6.658   0.821  0.8981 -0.1328 -0.0271
 7775WAT     H231821   5.654   6.550   0.884 -4.5197 -3.5804 -0.4663
 7775WAT    EPW31822   5.611   6.616   0.886 -0.5152 -0.5747 -0.0015
 7776WAT      O31823   5.812   6.079   3.803  0.0766 -0.3357  0.0950
 7776WAT     H131824   5.775   6.034   3.738  0.0579 -0.1719 -0.0086
 7776WAT     H231825   5.850   6.017   3.852 -0.1479 -0.4844  0.0819
 7776WAT    EPW31826   5.812   6.063   3.801  0.0406 -0.3335  0.0778
 7777WAT      O31827   0.596   2.842   5.920  0.3684 -0.1680 -0.0344
 7777WAT     H131828   0.625   2.819   5.999  1.3426  0.6067 -0.1552
 7777WAT     H231829   0.631   2.782   5.867 -0.8139 -1.0816  0.1670
 7777WAT    EPW31830   0.605   2.829   5.924  0.3376 -0.1885 -0.0225
 7778WAT      O31831   4.274   7.099   7.047  0.3145 -0.1911 -0.4191
 7778WAT     H131832   4.316   7.096   7.123  1.2862 -0.2400 -0.9339
 7778WAT     H231833   4.243   7.180   7.043 -0.0652 -0.3005  0.1850
 7778WAT    EPW31834   4.275   7.110   7.057  0.4020 -0.2145 -0.4059
 7779WAT      O31835   2.797   4.507   7.073  0.0521  0.4799 -0.4175
 7779WAT     H131836   2.769   4.426   7.054  0.3975  0.0791  0.6897
 7779WAT     H231837   2.738   4.537   7.130  0.5110  0.5755  0.0228
 7779WAT    EPW31838   2.784   4.499   7.079  0.1709  0.4348 -0.1889
 7780WAT      O31839   1.360   4.193   1.329  0.6475 -0.5406 -0.1253
 7780WAT     H131840   1.397   4.264   1.363  1.3092 -0.4084 -1.0926
 7780WAT     H231841   1.424   4.156   1.284  0.0837 -1.3001 -0.3243
 7780WAT    EPW31842   1.375   4.198   1.328  0.6619 -0.6332 -0.2976
 7781WAT      O31843   1.085   0.582   2.281 -0.0978  0.4572  0.1947
 7781WAT     H131844   1.133   0.571   2.209  0.6080 -1.3988  0.8762
 7781WAT     H231845   1.004   0.568   2.254  0.0107  1.1334 -0.5012
 7781WAT    EPW31846   1.080   0.578   2.267  0.0225  0.2830  0.1926
 7782WAT      O31847   3.139   2.071   5.173 -0.0380  0.6361  0.0786
 7782WAT     H131848   3.086   2.058   5.241 -1.1678  0.2506 -0.8465
 7782WAT     H231849   3.102   2.025   5.109  0.6672  1.4768 -0.9594
 7782WAT    EPW31850   3.126   2.062   5.173 -0.1007  0.7033 -0.2114
 7783WAT      O31851   6.277   2.385   2.978 -0.0695  0.4087 -0.3203
 7783WAT     H131852   6.197   2.418   2.971 -0.3090  0.0362  0.6055
 7783WAT     H231853   6.287   2.373   3.064  0.2769 -1.2365 -0.5648
 7783WAT    EPW31854   6.267   2.388   2.990 -0.0537  0.1106 -0.2197
 7784WAT      O31855   4.904   6.213   5.955 -0.1875 -0.2324  0.8988
 7784WAT     H131856   4.960   6.149   5.934  1.1147  1.0186  0.3822
 7784WAT     H231857   4.928   6.236   6.035  0.3754  0.6038  0.5106
 7784WAT    EPW31858   4.916   6.207   5.963  0.0880  0.0760  0.7651
 7785WAT      O31859   0.703   0.469   3.120  0.5173  0.4425  0.4429
 7785WAT     H131860   0.674   0.481   3.202  1.8376 -0.6833  1.1035
 7785WAT     H231861   0.742   0.392   3.123  1.2522  0.7225 -1.0819
 7785WAT    EPW31862   0.704   0.460   3.132  0.8209  0.3176  0.3153
 7786WAT      O31863   1.326   1.131   4.618  0.5067 -0.1311  0.1181
 7786WAT     H131864   1.396   1.098   4.659  0.0633  0.2047  1.1803
 7786WAT     H231865   1.323   1.214   4.646  1.2593  0.6896 -2.0441
 7786WAT    EPW31866   1.336   1.139   4.629  0.5524  0.0397 -0.0444
 7787WAT      O31867   4.657   7.186   4.583  0.0636 -0.0715  0.2801
 7787WAT     H131868   4.677   7.202   4.667 -1.7725 -0.5961  0.8671
 7787WAT     H231869   4.640   7.101   4.582 -0.0111 -0.0552 -0.6309
 7787WAT    EPW31870   4.658   7.176   4.595 -0.2186 -0.1466  0.2322
 7788WAT      O31871   5.754   3.523   0.804  0.3672  0.0422  0.0115
 7788WAT     H131872   5.801   3.587   0.769  1.8541 -0.6100  0.7177
 7788WAT     H231873   5.734   3.472   0.736 -0.5454  1.0350 -0.4997
 7788WAT    EPW31874   5.758   3.525   0.788  0.4520  0.0925  0.0403
 7789WAT      O31875   6.246   5.286   1.429 -0.4766  0.0679 -0.0308
 7789WAT     H131876   6.256   5.214   1.478 -0.9591  1.3558  2.0865
 7789WAT     H231877   6.261   5.257   1.348 -0.1614 -2.3062  0.7756
 7789WAT    EPW31878   6.250   5.271   1.425 -0.5013 -0.0926  0.4011
 7790WAT      O31879   0.596   4.962   2.779  0.2452 -0.3708  0.2437
 7790WAT     H131880   0.663   4.974   2.725 -0.2434 -2.3123 -0.9057
 7790WAT     H231881   0.529   4.998   2.736 -0.0985 -1.7139 -0.4225
 7790WAT    EPW31882   0.596   4.969   2.764  0.1222 -0.8560 -0.0245
 7791WAT      O31883   6.874   6.427   1.492 -0.2059  0.2782 -0.3551
 7791WAT     H131884   6.806   6.394   1.535 -0.6638  0.7955 -0.6569
 7791WAT     H231885   6.897   6.496   1.541  0.6625 -0.4078  0.2093
 7791WAT    EPW31886   6.867   6.432   1.506 -0.1453  0.2532 -0.3163
 7792WAT      O31887   4.063   0.132   5.009  0.4304  0.1780  0.2541
 7792WAT     H131888   4.144   0.141   5.039  0.4241  1.8852 -0.1089
 7792WAT     H231889   4.065   0.175   4.933 -0.4304 -1.1037 -0.5299
 7792WAT    EPW31890   4.075   0.140   5.002  0.3023  0.2409  0.0847
 7793WAT      O31891   5.146   4.001   1.840  0.1716  0.2116  0.2802
 7793WAT     H131892   5.108   4.049   1.902 -1.2124  0.9191 -1.0493
 7793WAT     H231893   5.147   4.054   1.771  0.4809 -0.9872 -0.6730
 7793WAT    EPW31894   5.141   4.016   1.839  0.0128  0.1390 -0.0570
 7794WAT      O31895   3.113   4.039   5.813  0.3436  0.7490  0.1156
 7794WAT     H131896   3.105   4.048   5.727 -0.8686 -1.2366 -0.0359
 7794WAT     H231897   3.130   3.954   5.823  0.3268  0.9138  1.8557
 7794WAT    EPW31898   3.114   4.028   5.802  0.1620  0.4800  0.3503
 7795WAT      O31899   5.202   3.520   0.871  0.2083  0.2037  0.7131
 7795WAT     H131900   5.169   3.578   0.815  0.5555  0.2773  0.5796
 7795WAT     H231901   5.285   3.546   0.879 -0.0253  0.6469  1.8434
 7795WAT    EPW31902   5.210   3.533   0.864  0.2251  0.2800  0.8603
 7796WAT      O31903   2.333   2.996   4.224  0.0404  0.3292 -0.8887
 7796WAT     H131904   2.254   3.016   4.193 -0.2450  0.2757 -0.2088
 7796WAT     H231905   2.349   3.060   4.281  0.8185  0.7635 -1.5656
 7796WAT    EPW31906   2.324   3.009   4.228  0.1132  0.3855 -0.8883
 7797WAT      O31907   1.156   2.088   7.122 -0.3129 -0.4778  0.5507
 7797WAT     H131908   1.079   2.056   7.099 -0.2120 -0.5327  0.2878
 7797WAT     H231909   1.142   2.120   7.202 -1.0117  0.9341 -0.1073
 7797WAT    EPW31910   1.143   2.088   7.130 -0.4012 -0.2773  0.4146
 7798WAT      O31911   2.403   3.956   0.023  0.0812  0.2972  0.2862
 7798WAT     H131912   2.488   3.944   0.011  0.4756  1.3861  1.8042
 7798WAT     H231913   2.392   3.943   0.109 -1.1560  0.8716  0.2342
 7798WAT    EPW31914   2.414   3.952   0.034 -0.0433  0.5429  0.5027
 7799WAT      O31915   6.455   2.239   0.123  0.3879  0.1548 -0.0917
 7799WAT     H131916   6.415   2.176   0.078 -0.8682  1.7055 -1.2672
 7799WAT     H231917   6.407   2.310   0.106  2.2272  1.6274  0.4668
 7799WAT    EPW31918   6.442   2.240   0.114  0.4741  0.6014 -0.1828
 7800WAT      O31919   2.041   2.430   7.262 -0.0911 -0.0657 -0.1701
 7800WAT     H131920   1.960   2.431   7.229 -0.2098 -1.6871 -0.0370
 7800WAT     H231921   2.086   2.381   7.204  0.3489 -0.6578  0.6497
 7800WAT    EPW31922   2.036   2.423   7.249 -0.0437 -0.3927 -0.0293
 7801WAT      O31923   1.467   0.613   6.007 -0.2365  0.0257 -0.2862
 7801WAT     H131924   1.438   0.569   6.076  1.1964 -0.6606 -0.0961
 7801WAT     H231925   1.536   0.656   6.036 -0.8917  1.4823 -0.7794
 7801WAT    EPW31926   1.473   0.613   6.021 -0.1216  0.1395 -0.3310
 7802WAT      O31927   3.532   6.349   0.558  0.0972  0.1409  0.4163
 7802WAT     H131928   3.500   6.268   0.555  2.9748 -1.1587  0.8428
 7802WAT     H231929   3.553   6.360   0.642 -0.1729  1.3143  0.3435
 7802WAT    EPW31930   3.531   6.338   0.570  0.4824  0.1223  0.4686
 7803WAT      O31931   1.765   3.097   5.590 -0.6699  0.0460  0.0737
 7803WAT     H131932   1.817   3.098   5.520 -2.7662 -0.5777 -1.6222
 7803WAT     H231933   1.708   3.161   5.574 -0.1475  1.0785  2.1362
 7803WAT    EPW31934   1.764   3.106   5.577 -0.9024  0.1064  0.1278
 7804WAT      O31935   5.752   6.868   6.990 -0.0116  0.2293 -0.5860
 7804WAT     H131936   5.759   6.904   7.069  0.5726 -0.2893 -0.4001
 7804WAT     H231937   5.835   6.855   6.966 -0.1928  0.1217 -1.1663
 7804WAT    EPW31938   5.765   6.872   6.998  0.0479  0.1368 -0.6443
 7805WAT      O31939   0.809   6.169   2.485 -0.3377  0.6452  0.2570
 7805WAT     H131940   0.812   6.223   2.553 -1.9328 -0.5011  1.3321
 7805WAT     H231941   0.799   6.222   2.417 -0.4523  1.7631  1.1133
 7805WAT    EPW31942   0.808   6.185   2.485 -0.5903  0.6410  0.5423
 7806WAT      O31943   2.747   2.141   5.837 -0.3223  0.3993 -0.1957
 7806WAT     H131944   2.704   2.108   5.769  0.8210 -0.8277 -0.3521
 7806WAT     H231945   2.770   2.071   5.884  0.3094  1.1113  0.6063
 7806WAT    EPW31946   2.744   2.126   5.834 -0.0601  0.3232 -0.1003
 7807WAT      O31947   1.830   0.231   5.609 -0.1169 -0.0860 -0.2955
 7807WAT     H131948   1.856   0.252   5.690 -0.5926  0.1899 -0.2087
 7807WAT     H231949   1.758   0.184   5.623  1.3393 -2.5472 -0.4443
 7807WAT    EPW31950   1.823   0.228   5.623  0.0280 -0.4088 -0.3047
 7808WAT      O31951   5.999   3.174   5.186  0.1465 -0.3707 -0.6890
 7808WAT     H131952   6.068   3.150   5.139  1.0009  2.2998 -0.9783
 7808WAT     H231953   5.980   3.102   5.232  1.4537 -1.9953 -2.4940
 7808WAT    EPW31954   6.006   3.160   5.186  0.4658 -0.2162 -0.9984
 7809WAT      O31955   2.916   2.079   4.535  0.1077  0.8889 -0.8145
 7809WAT     H131956   2.884   2.151   4.497 -0.1270  0.6486 -1.0669
 7809WAT     H231957   2.849   2.048   4.582  0.3533  1.1067 -0.3054
 7809WAT    EPW31958   2.902   2.085   4.537  0.1093  0.8856 -0.7765
 7810WAT      O31959   4.496   0.785   2.946 -0.4155 -0.3021 -0.1927
 7810WAT     H131960   4.481   0.793   2.860  2.5439  1.4003 -0.6835
 7810WAT     H231961   4.434   0.834   2.983 -0.7896  0.2175 -1.4606
 7810WAT    EPW31962   4.484   0.793   2.939 -0.0336  0.0261 -0.4525
 7811WAT      O31963   2.035   6.273   2.599 -0.6149  0.1327 -0.3598
 7811WAT     H131964   2.036   6.360   2.603 -0.8806  0.4407 -3.9278
 7811WAT     H231965   2.117   6.252   2.579 -0.6789 -0.4021 -0.0849
 7811WAT    EPW31966   2.047   6.283   2.597 -0.6636  0.0992 -0.8463
 7812WAT      O31967   6.960   1.013   5.990  0.2542 -0.0066 -0.2158
 7812WAT     H131968   6.902   1.071   5.960  0.3777  1.2552  1.7906
 7812WAT     H231969   6.927   0.936   5.965 -1.3188  0.7825 -0.7001
 7812WAT    EPW31970   6.946   1.010   5.982  0.0401  0.2964  0.0090
 7813WAT      O31971   4.261   0.491   2.685  0.7660  0.2117 -0.3391
 7813WAT     H131972   4.195   0.542   2.659  0.0558 -1.6893 -2.5750
 7813WAT     H231973   4.222   0.414   2.700  1.5177  0.4206  4.4442
 7813WAT    EPW31974   4.245   0.487   2.683  0.7722 -0.0382  0.0372
 7814WAT      O31975   3.284   0.452   3.966  0.2198  0.5097  0.0936
 7814WAT     H131976   3.202   0.431   3.945  0.5706 -1.1862  0.3133
 7814WAT     H231977   3.331   0.421   3.899  0.7371  0.9598  0.2453
 7814WAT    EPW31978   3.279   0.444   3.953  0.3481  0.3257  0.1485
 7815WAT      O31979   5.070   5.482   0.844  0.5751 -0.4720 -0.4530
 7815WAT     H131980   5.108   5.454   0.770  1.0180 -1.0021 -0.0368
 7815WAT     H231981   5.118   5.552   0.866  0.6401 -0.5000 -0.5040
 7815WAT    EPW31982   5.083   5.488   0.836  0.6502 -0.5544 -0.3990
 7816WAT      O31983   0.608   5.980   7.174 -0.2229  0.1493 -0.1518
 7816WAT     H131984   0.649   5.941   7.240  0.3261 -0.3925 -0.8046
 7816WAT     H231985   0.572   5.914   7.130 -0.0512  0.4421 -0.7473
 7816WAT    EPW31986   0.609   5.965   7.177 -0.1164  0.1125 -0.3362
 7817WAT      O31987   4.503   4.621   0.893  0.1567  0.2881 -0.2730
 7817WAT     H131988   4.560   4.602   0.829  0.9320 -0.7073  0.6726
 7817WAT     H231989   4.427   4.589   0.863  0.8218 -1.6441 -0.0452
 7817WAT    EPW31990   4.500   4.613   0.879  0.3695 -0.1443 -0.0997
 7818WAT      O31991   2.208   0.332   3.545 -0.0837  0.7560  0.5133
 7818WAT     H131992   2.212   0.352   3.460  2.2435 -1.9530 -0.1583
 7818WAT     H231993   2.191   0.246   3.545  0.6271  0.5492  2.7756
 7818WAT    EPW31994   2.206   0.322   3.533  0.3651  0.3253  0.7483
 7819WAT      O31995   5.098   5.575   2.379 -0.2265  0.0260  0.6149
 7819WAT     H131996   5.176   5.540   2.397 -0.3322 -0.7761 -0.3956
 7819WAT     H231997   5.045   5.506   2.379 -0.6128  0.3018 -0.4400
 7819WAT    EPW31998   5.102   5.560   2.381 -0.2992 -0.0517  0.3098
 7820WAT      O31999   3.263   5.284   7.218 -0.4989  0.1240 -0.5189
 7820WAT     H132000   3.258   5.211   7.265  0.9044  0.3027 -0.0534
 7820WAT     H232001   3.328   5.269   7.163 -0.1426  1.0400 -0.3627
 7820WAT    EPW32002   3.272   5.271   7.217 -0.2389  0.2857 -0.4271
 7821WAT      O32003   5.720   1.624   0.505 -0.0357  0.3080  0.3482
 7821WAT     H132004   5.700   1.691   0.453 -0.1504  0.0966  0.1188
 7821WAT     H232005   5.652   1.619   0.559 -0.4261 -0.1456 -0.1658
 7821WAT    EPW32006   5.707   1.633   0.505 -0.1103  0.2098  0.2384
 7822WAT      O32007   3.409   1.355   4.146  0.2527 -0.1352 -0.1353
 7822WAT     H132008   3.323   1.368   4.153  0.1646 -0.3510 -0.7725
 7822WAT     H232009   3.422   1.349   4.060  0.9217 -0.0175 -0.0474
 7822WAT    EPW32010   3.398   1.356   4.134  0.3385 -0.1497 -0.2164
 7823WAT      O32011   0.597   4.875   7.304  0.1932 -0.4144  0.0016
 7823WAT     H132012   0.523   4.880   7.350  0.5526 -0.8040  0.6420
 7823WAT     H232013   0.599   4.791   7.279 -0.5443  0.0261 -1.6797
 7823WAT    EPW32014   0.587   4.863   7.307  0.1374 -0.4069 -0.1522
 7824WAT      O32015   5.321   5.328   3.182  0.3436  0.2181 -0.2966
 7824WAT     H132016   5.278   5.253   3.190 -0.4810  0.5817 -1.1927
 7824WAT     H232017   5.310   5.366   3.259 -1.0138  0.3348 -0.5273
 7824WAT    EPW32018   5.313   5.322   3.194  0.0213  0.2891 -0.4630
 7825WAT      O32019   4.158   4.456   0.177  0.3119  0.1517 -0.4704
 7825WAT     H132020   4.153   4.480   0.094  0.5124 -1.2190 -0.8932
 7825WAT     H232021   4.188   4.527   0.217 -0.5783  1.0984 -1.4264
 7825WAT    EPW32022   4.161   4.470   0.171  0.2100  0.0891 -0.6741
 7826WAT      O32023   4.341   1.850   5.922  0.2445  0.1020 -0.0146
 7826WAT     H132024   4.388   1.777   5.933  0.3972  0.3371  0.9791
 7826WAT     H232025   4.400   1.910   5.902  0.1297 -0.0129 -0.7294
 7826WAT    EPW32026   4.357   1.848   5.921  0.2501  0.1198  0.0266
 7827WAT      O32027   1.593   6.583   3.813  0.1613 -0.8282 -0.6408
 7827WAT     H132028   1.595   6.594   3.899 -0.0254  0.1674 -0.7613
 7827WAT     H232029   1.645   6.514   3.801 -1.3060 -2.2192  0.4407
 7827WAT    EPW32030   1.601   6.574   3.824 -0.0830 -0.8866 -0.4988
 7828WAT      O32031   0.125   7.104   0.442  0.1086 -0.0363  0.0624
 7828WAT     H132032   0.196   7.135   0.403  0.3765  1.2497  1.4782
 7828WAT     H232033   0.143   7.019   0.452  1.0322  0.0834 -0.4396
 7828WAT    EPW32034   0.138   7.096   0.438  0.2846  0.1713  0.1974
 7829WAT      O32035   2.148   5.801   1.352  0.2887 -0.1365 -0.9554
 7829WAT     H132036   2.171   5.797   1.268  1.7943 -0.6699 -0.5565
 7829WAT     H232037   2.109   5.879   1.359  2.9776  1.3949 -1.5198
 7829WAT    EPW32038   2.146   5.812   1.341  0.9083  0.0109 -0.9798
 7830WAT      O32039   6.388   6.154   7.320 -0.1379  0.1560  0.1420
 7830WAT     H132040   6.423   6.086   7.363  0.6194 -1.1345 -2.3376
 7830WAT     H232041   6.304   6.132   7.312  0.3854 -1.3685 -2.0118
 7830WAT    EPW32042   6.381   6.141   7.325  0.0513 -0.2598 -0.5424
 7831WAT      O32043   2.896   1.149   3.177 -0.5953  0.7976 -0.0083
 7831WAT     H132044   2.954   1.112   3.231 -0.1811  1.2209 -0.1631
 7831WAT     H232045   2.819   1.123   3.210 -0.3488 -1.7573 -1.1789
 7831WAT    EPW32046   2.893   1.140   3.190 -0.4977  0.4827 -0.2041
 7832WAT      O32047   6.339   2.192   7.143 -0.4639  0.3173 -0.4628
 7832WAT     H132048   6.288   2.227   7.082 -1.2030  1.0349  0.5352
 7832WAT     H232049   6.282   2.165   7.204  0.2285 -0.7075 -0.2374
 7832WAT    EPW32050   6.323   2.193   7.143 -0.4708  0.2719 -0.2821
 7833WAT      O32051   2.627   1.161   0.601  0.2323 -0.0982  0.0291
 7833WAT     H132052   2.668   1.236   0.619 -2.6474  1.6756 -0.2936
 7833WAT     H232053   2.679   1.124   0.541  3.0551  0.2628  2.0497
 7833WAT    EPW32054   2.641   1.166   0.595  0.2239  0.2171  0.2799
 7834WAT      O32055   4.720   0.005   2.346 -0.6441  0.5034  0.2845
 7834WAT     H132056   4.665   0.062   2.309 -0.7024 -0.4522 -1.1742
 7834WAT     H232057   4.667  -0.044   2.396 -0.4783  2.1948  2.2747
 7834WAT    EPW32058   4.704   0.006   2.348 -0.6282  0.6121  0.3630
 7835WAT      O32059   2.965   3.736   5.382 -0.2040  0.2286 -0.4867
 7835WAT     H132060   3.028   3.732   5.323 -1.2358  0.0727 -1.6220
 7835WAT     H232061   2.985   3.807   5.430  1.2152 -0.2643 -0.3195
 7835WAT    EPW32062   2.977   3.746   5.381 -0.1468  0.1328 -0.6297
 7836WAT      O32063   4.373   5.003   3.730  0.0748 -0.0728 -0.9375
 7836WAT     H132064   4.357   5.004   3.815  0.1566 -1.0525 -0.8986
 7836WAT     H232065   4.460   5.007   3.725  0.1235 -0.9393 -0.9333
 7836WAT    EPW32066   4.384   5.003   3.742  0.0941 -0.3455 -0.9312
 7837WAT      O32067   2.684   3.487   6.552  0.7357 -0.3477  0.0299
 7837WAT     H132068   2.716   3.448   6.623  2.2743 -0.8131 -0.8782
 7837WAT     H232069   2.658   3.565   6.582 -0.0894 -1.1007  1.3779
 7837WAT    EPW32070   2.685   3.493   6.567  0.8411 -0.5276  0.0948
 7838WAT      O32071   5.281   3.343   7.372 -0.0906 -0.3148 -0.1361
 7838WAT     H132072   5.246   3.370   7.297  1.3702 -0.9623 -1.1014
 7838WAT     H232073   5.367   3.341   7.356  0.2037 -1.2940  1.2717
 7838WAT    EPW32074   5.288   3.347   7.359  0.1687 -0.5551 -0.0707
 7839WAT      O32075   3.548   6.546   7.236  0.1195  0.2390  0.0119
 7839WAT     H132076   3.584   6.601   7.180 -1.5403  0.5955 -0.7728
 7839WAT     H232077   3.518   6.481   7.186  0.6384 -0.6019  0.7499
 7839WAT    EPW32078   3.549   6.544   7.221 -0.0490  0.1675  0.0050
 7840WAT      O32079   1.820   2.430   3.520 -0.0576  0.1120  0.6187
 7840WAT     H132080   1.835   2.508   3.555  0.5859  0.7361 -0.9736
 7840WAT     H232081   1.876   2.378   3.562 -0.7805  0.4043  1.9843
 7840WAT    EPW32082   1.831   2.434   3.531 -0.0693  0.2474  0.5852
 7841WAT      O32083   5.924   1.107   1.542  0.2502  0.7578 -0.4618
 7841WAT     H132084   5.863   1.065   1.496 -0.2296  1.2574 -0.2935
 7841WAT     H232085   5.922   1.188   1.510  1.2119  0.6451 -0.8229
 7841WAT    EPW32086   5.914   1.113   1.531  0.3214  0.8149 -0.4903
 7842WAT      O32087   7.127   6.763   5.506 -0.7539 -0.2646  0.1024
 7842WAT     H132088   7.073   6.729   5.566 -0.2975 -2.3394 -0.5854
 7842WAT     H232089   7.153   6.837   5.543 -1.8132 -0.6293  1.7274
 7842WAT    EPW32090   7.123   6.769   5.521 -0.8429 -0.6249  0.2409
 7843WAT      O32091   0.681   5.296   6.443  0.3732  0.6995  0.3731
 7843WAT     H132092   0.748   5.290   6.498  0.9550 -0.1224 -0.4064
 7843WAT     H232093   0.624   5.237   6.473  0.2413  0.9894  0.6961
 7843WAT    EPW32094   0.682   5.286   6.455  0.4397  0.6209  0.3057
 7844WAT      O32095   3.665   7.169   2.810  0.2453  0.2484  0.2164
 7844WAT     H132096   3.698   7.089   2.820  1.1653  0.6922  0.8867
 7844WAT     H232097   3.730   7.221   2.835 -0.0547  1.2443 -0.9502
 7844WAT    EPW32098   3.679   7.165   2.815  0.3369  0.4610  0.1431
 7845WAT      O32099   4.149   1.781   7.060  0.2959 -0.4002 -0.1581
 7845WAT     H132100   4.110   1.795   6.983 -2.0328 -1.0124  0.8134
 7845WAT     H232101   4.159   1.695   7.063  2.6590 -0.2080 -0.7385
 7845WAT    EPW32102   4.145   1.771   7.049  0.3010 -0.4623 -0.1003
 7846WAT      O32103   5.467   0.615   6.338  0.6085  0.1991 -0.8658
 7846WAT     H132104   5.384   0.589   6.341  0.6489  0.1327 -0.2172
 7846WAT     H232105   5.498   0.593   6.416  1.2456  0.1985 -1.1143
 7846WAT    EPW32106   5.459   0.608   6.350  0.7086  0.1892 -0.8067
 7847WAT      O32107   3.983   6.633   3.254  0.2188  0.4314  0.3765
 7847WAT     H132108   4.025   6.624   3.178 -0.0129 -2.4655  0.4690
 7847WAT     H232109   3.901   6.648   3.229  0.5664  2.3004  0.1667
 7847WAT    EPW32110   3.977   6.634   3.239  0.2359  0.2795  0.3592
 7848WAT      O32111   5.666   4.893   4.376 -0.4504 -0.2840 -0.0147
 7848WAT     H132112   5.711   4.967   4.365 -0.5582 -0.1645  0.3461
 7848WAT     H232113   5.620   4.907   4.449  0.2510 -1.0583  0.5983
 7848WAT    EPW32114   5.666   4.906   4.385 -0.3627 -0.3807  0.1292
 7849WAT      O32115   6.697   4.519   2.905  0.5079  0.1979  0.1399
 7849WAT     H132116   6.769   4.527   2.857 -0.2872 -0.7157 -1.2702
 7849WAT     H232117   6.672   4.601   2.918  1.7116  0.5238  0.5432
 7849WAT    EPW32118   6.704   4.532   2.900  0.5683  0.1111 -0.0088
 7850WAT      O32119   2.995   0.698   3.972  0.3496  0.4425  0.0793
 7850WAT     H132120   2.998   0.618   3.938  0.6390  1.4184 -2.4050
 7850WAT     H232121   2.953   0.687   4.048  1.1187 -2.1576  0.1984
 7850WAT    EPW32122   2.989   0.685   3.978  0.5059  0.2025 -0.2701
 7851WAT      O32123   6.722   0.782   4.168 -0.3121  0.2974  0.3232
 7851WAT     H132124   6.806   0.762   4.180 -0.2061  0.8693  0.5445
 7851WAT     H232125   6.717   0.866   4.188 -0.3883  1.0182 -2.3650
 7851WAT    EPW32126   6.733   0.791   4.172 -0.3077  0.4884 -0.0412
 7852WAT      O32127   6.241   1.168   4.179 -0.6358  0.2066  0.3277
 7852WAT     H132128   6.316   1.208   4.159  0.5791 -1.7625  0.6656
 7852WAT     H232129   6.238   1.173   4.266  0.4730 -1.8305  0.5673
 7852WAT    EPW32130   6.251   1.174   4.189 -0.2925 -0.3852  0.4130
 7853WAT      O32131   2.591   3.401   3.103  0.0262  0.1544 -0.0169
 7853WAT     H132132   2.553   3.326   3.124 -0.0933  0.2707  0.1834
 7853WAT     H232133   2.525   3.458   3.102  0.2174  0.3898  0.4998
 7853WAT    EPW32134   2.576   3.398   3.106  0.0367  0.2063  0.0890
 7854WAT      O32135   4.097   1.405   3.263 -0.1159 -0.9944 -0.5246
 7854WAT     H132136   4.172   1.407   3.218 -0.2681 -2.1913 -0.8376
 7854WAT     H232137   4.090   1.322   3.288  0.7512 -0.1946  3.0426
 7854WAT    EPW32138   4.107   1.393   3.260 -0.0103 -1.0530 -0.0439
 7855WAT      O32139   4.618   1.598   4.150 -0.0548 -0.4067  0.1454
 7855WAT     H132140   4.701   1.624   4.157  0.0891 -1.0092  0.7426
 7855WAT     H232141   4.573   1.665   4.184  0.1330  0.1899 -0.7496
 7855WAT    EPW32142   4.624   1.612   4.156 -0.0058 -0.4076  0.1014
 7856WAT      O32143   6.861   2.116   2.338  0.3763 -0.7367  0.5074
 7856WAT     H132144   6.868   2.062   2.406 -1.5623 -1.5957  0.0968
 7856WAT     H232145   6.876   2.195   2.372  0.8448 -1.2908  1.6217
 7856WAT    EPW32146   6.864   2.120   2.353  0.1591 -0.9454  0.6114
 7857WAT      O32147   3.291   2.310   3.207 -0.5071  0.3041  0.1608
 7857WAT     H132148   3.248   2.325   3.133  0.5585  0.4186 -0.4622
 7857WAT     H232149   3.311   2.391   3.236  3.2632  0.3781 -2.0103
 7857WAT    EPW32150   3.288   2.324   3.201  0.2072  0.3319 -0.2520
 7858WAT      O32151   3.974   0.112   4.509 -0.0724 -0.7904 -0.1239
 7858WAT     H132152   4.040   0.128   4.454 -0.6325  0.2321 -0.5308
 7858WAT     H232153   3.903   0.128   4.461 -0.6091  2.5132  1.4394
 7858WAT    EPW32154   3.973   0.117   4.494 -0.2344 -0.1513  0.0470
 7859WAT      O32155   7.261   4.776   0.064 -0.1734 -0.4611  0.0148
 7859WAT     H132156   7.325   4.722   0.041  0.0561 -0.1667 -0.0463
 7859WAT     H232157   7.289   4.812   0.138  0.6682  1.1733 -1.0347
 7859WAT    EPW32158   7.275   4.773   0.071 -0.0152 -0.1762 -0.1492
 7860WAT      O32159   1.276   0.043   3.676  0.5800 -0.3053  0.0195
 7860WAT     H132160   1.302   0.084   3.603  0.6701  2.9110  1.6814
 7860WAT     H232161   1.210  -0.007   3.649 -0.9206  2.4661 -2.0095
 7860WAT    EPW32162   1.270   0.042   3.661  0.3717  0.5792 -0.0347
 7861WAT      O32163   5.143   6.749   6.690 -0.6229 -0.3705  0.6567
 7861WAT     H132164   5.096   6.804   6.739 -0.4554 -1.6894  2.3832
 7861WAT     H232165   5.181   6.697   6.748  1.6147 -0.4653 -0.7702
 7861WAT    EPW32166   5.142   6.749   6.705 -0.2676 -0.5793  0.7010
 7862WAT      O32167   1.613   4.682   4.183 -0.2641 -0.9429 -0.2751
 7862WAT     H132168   1.614   4.606   4.226 -0.5980 -1.5809 -1.3521
 7862WAT     H232169   1.697   4.707   4.183 -0.3727 -0.4403  1.5274
 7862WAT    EPW32170   1.626   4.675   4.189 -0.3294 -0.9629 -0.1679
 7863WAT      O32171   7.174   0.007   2.796  0.2446 -0.2384  0.4126
 7863WAT     H132172   7.248  -0.036   2.777 -0.0445  0.0383 -1.5585
 7863WAT     H232173   7.176   0.075   2.742  0.0474  1.5587  2.5488
 7863WAT    EPW32174   7.185   0.011   2.785  0.1727  0.0679  0.4370
 7864WAT      O32175   7.161   6.286   0.556  0.1536 -0.1560  0.0141
 7864WAT     H132176   7.114   6.317   0.490 -0.3165  0.7872  0.7687
 7864WAT     H232177   7.128   6.327   0.626  0.7774 -0.9647  0.8102
 7864WAT    EPW32178   7.149   6.297   0.557  0.1763 -0.1361  0.2432
 7865WAT      O32179   6.190   7.234   5.522 -0.0037 -0.0672 -0.2114
 7865WAT     H132180   6.223   7.306   5.558 -2.0576 -0.0417  1.9418
 7865WAT     H232181   6.150   7.263   5.450 -0.9804  1.0640  0.7345
 7865WAT    EPW32182   6.189   7.249   5.517 -0.4514  0.1037  0.2464
 7866WAT      O32183   3.340   1.040   5.242 -0.6729 -0.2552 -0.5044
 7866WAT     H132184   3.342   0.954   5.251  0.7124 -0.2906 -0.9259
 7866WAT     H232185   3.295   1.067   5.312 -2.4673 -1.3760 -1.1603
 7866WAT    EPW32186   3.334   1.032   5.254 -0.7333 -0.4260 -0.6636
 7867WAT      O32187   7.033   4.507   3.057  0.0765  0.8643  0.3534
 7867WAT     H132188   7.028   4.426   3.024 -1.1506  0.0461  2.4061
 7867WAT     H232189   7.018   4.558   2.987 -0.3501 -0.6948 -0.7462
 7867WAT    EPW32190   7.030   4.503   3.042 -0.1678  0.5131  0.4942
 7868WAT      O32191   3.139   1.507   2.101 -0.0978 -0.3554  0.4416
 7868WAT     H132192   3.213   1.461   2.098 -0.4276 -1.1131  2.2092
 7868WAT     H232193   3.085   1.455   2.147 -1.3953  0.6114  0.0844
 7868WAT    EPW32194   3.142   1.492   2.108 -0.3382 -0.3245  0.6499
 7869WAT      O32195   7.063   0.823   3.530 -0.4439 -0.1476 -0.1819
 7869WAT     H132196   7.075   0.842   3.446  3.4018  1.2099  0.4592
 7869WAT     H232197   7.001   0.878   3.556 -0.0464  1.0484 -1.6520
 7869WAT    EPW32198   7.056   0.834   3.522  0.1829  0.2296 -0.3043
 7870WAT      O32199   3.874   2.178   7.159  0.0822  0.1063  0.0452
 7870WAT     H132200   3.862   2.264   7.160 -0.9644 -0.0221 -0.2196
 7870WAT     H232201   3.840   2.153   7.082  0.6060 -0.5112  0.0006
 7870WAT    EPW32202   3.867   2.187   7.148  0.0050 -0.0039 -0.0005
 7871WAT      O32203   2.644   3.024   0.835 -0.2928 -0.3394 -0.1410
 7871WAT     H132204   2.662   3.093   0.884  2.1225 -0.7154 -0.3879
 7871WAT     H232205   2.698   3.032   0.767  0.8838 -2.9687  0.3441
 7871WAT    EPW32206   2.654   3.036   0.832  0.2378 -0.7833 -0.1058
 7872WAT      O32207   1.014   7.018   4.000 -0.3808 -0.2031  0.1393
 7872WAT     H132208   1.040   6.939   3.973  0.2324  0.1058 -0.2000
 7872WAT     H232209   1.083   7.069   3.983 -0.1590  0.1051  1.8358
 7872WAT    EPW32210   1.028   7.014   3.993 -0.2575 -0.1119  0.3398
 7873WAT      O32211   3.605   6.334   3.941  0.2425  0.4830 -0.0507
 7873WAT     H132212   3.557   6.358   3.873 -0.5907  1.0747  0.7238
 7873WAT     H232213   3.680   6.307   3.905 -0.0953  0.9941 -1.1749
 7873WAT    EPW32214   3.609   6.333   3.926  0.0696  0.6459 -0.1023
 7874WAT      O32215   2.137   5.371   4.496  0.6046  0.1225 -0.1836
 7874WAT     H132216   2.180   5.338   4.564  1.0057  0.1485 -0.4201
 7874WAT     H232217   2.054   5.358   4.516  0.5974  2.1124  1.3527
 7874WAT    EPW32218   2.131   5.364   4.509  0.6628  0.4203  0.0084
 7875WAT      O32219   0.213   3.058   3.141  0.0973  0.2215  0.8229
 7875WAT     H132220   0.262   3.042   3.212  0.5272  0.7164  0.6480
 7875WAT     H232221   0.189   3.142   3.151 -1.4788 -0.2629  1.3491
 7875WAT    EPW32222   0.217   3.068   3.153 -0.0721  0.2230  0.8748
 7876WAT      O32223   6.330   1.372   3.281 -0.3578  0.4916 -0.2928
 7876WAT     H132224   6.325   1.284   3.280  1.9120  0.3009 -0.7209
 7876WAT     H232225   6.247   1.397   3.286 -1.0447 -1.7092  1.5267
 7876WAT    EPW32226   6.317   1.362   3.282 -0.1240  0.1383 -0.0872
 7877WAT      O32227   1.906   2.420   4.310 -0.0266 -0.6551  0.0292
 7877WAT     H132228   1.846   2.480   4.331  0.4506 -0.6400  1.5133
 7877WAT     H232229   1.966   2.466   4.265 -0.4958 -0.3980 -0.3398
 7877WAT    EPW32230   1.906   2.436   4.307 -0.0254 -0.6149  0.1939
 7878WAT      O32231   0.501   0.748   2.278  0.1266 -0.0542  0.1246
 7878WAT     H132232   0.464   0.692   2.333  1.5777  1.3165  2.7071
 7878WAT     H232233   0.457   0.822   2.291  0.1344  0.1684 -1.0164
 7878WAT    EPW32234   0.489   0.751   2.288  0.3421  0.1812  0.3375
 7879WAT      O32235   3.048   6.451   0.446  0.0873 -0.3779 -0.4118
 7879WAT     H132236   3.133   6.464   0.462  0.0055  0.5042 -0.6418
 7879WAT     H232237   3.035   6.368   0.470  0.4010  0.2662  2.2234
 7879WAT    EPW32238   3.058   6.440   0.452  0.1216 -0.1525 -0.0565
 7880WAT      O32239   3.949   0.550   6.836 -0.2472  0.1948  0.1469
 7880WAT     H132240   4.021   0.577   6.877  0.1218  0.9578 -0.9859
 7880WAT     H232241   3.972   0.473   6.803  0.2145  0.6492 -0.6127
 7880WAT    EPW32242   3.963   0.543   6.837 -0.1245  0.3746 -0.1327
 7881WAT      O32243   1.584   1.407   1.789 -0.5798  0.3141  0.0528
 7881WAT     H132244   1.525   1.350   1.760 -0.3399 -0.2819  0.7151
 7881WAT     H232245   1.584   1.394   1.875  1.2957 -0.4463 -0.0230
 7881WAT    EPW32246   1.575   1.397   1.798 -0.2673  0.1137  0.1394
 7882WAT      O32247   5.848   4.638   3.191  0.3597 -0.3318  0.3799
 7882WAT     H132248   5.831   4.699   3.131 -1.8579 -0.7467  0.5100
 7882WAT     H232249   5.935   4.644   3.202  0.7040  0.4241 -2.1167
 7882WAT    EPW32250   5.859   4.648   3.184  0.0830 -0.2814  0.0303
 7883WAT      O32251   1.493   5.140   3.545 -0.4559  0.5341  0.3100
 7883WAT     H132252   1.545   5.178   3.604 -0.6979  1.2437  0.0673
 7883WAT     H232253   1.496   5.056   3.567 -0.5705  0.7904  1.3590
 7883WAT    EPW32254   1.501   5.133   3.557 -0.5086  0.6768  0.4291
 7884WAT      O32255   0.328   4.691   2.353 -0.2462 -0.4188 -0.2151
 7884WAT     H132256   0.279   4.628   2.316 -3.2177  1.7095 -0.2014
 7884WAT     H232257   0.274   4.729   2.409  1.7692  1.5434  0.5253
 7884WAT    EPW32258   0.313   4.687   2.355 -0.3874  0.1855 -0.1037
 7885WAT      O32259   0.867   6.969   3.757  0.0282 -0.7554  0.9674
 7885WAT     H132260   0.831   7.048   3.750  1.0699 -0.1149  2.3785
 7885WAT     H232261   0.918   6.976   3.827  0.8109 -2.4322  0.6092
 7885WAT    EPW32262   0.869   6.982   3.766  0.2977 -0.9085  1.1230
 7886WAT      O32263   6.216   4.562   6.016  0.1715  0.4957 -0.1569
 7886WAT     H132264   6.141   4.548   6.057  0.2661 -1.6165 -0.6121
 7886WAT     H232265   6.202   4.532   5.935  2.1493 -2.2854  0.3938
 7886WAT    EPW32266   6.203   4.556   6.010  0.4777 -0.2272 -0.1428
 7887WAT      O32267   6.287   6.970   3.362  0.3345  0.0945 -0.2816
 7887WAT     H132268   6.259   6.951   3.282 -3.4814 -2.2995  1.3228
 7887WAT     H232269   6.324   6.895   3.389  0.7023  0.5630  0.5410
 7887WAT    EPW32270   6.288   6.956   3.354 -0.1748 -0.1899  0.0769
 7888WAT      O32271   4.070   7.090   1.741  0.0734  0.1129  0.3597
 7888WAT     H132272   4.003   7.072   1.794  0.2633 -0.4170  0.4195
 7888WAT     H232273   4.065   7.177   1.732  0.1556  0.2440  1.4035
 7888WAT    EPW32274   4.060   7.100   1.748  0.1136  0.0540  0.5227
 7889WAT      O32275   2.859   6.647   6.957  0.4263 -0.2813  0.0324
 7889WAT     H132276   2.773   6.646   6.942  0.7408 -0.0771 -2.1894
 7889WAT     H232277   2.883   6.565   6.942  0.7249 -0.1481 -0.2302
 7889WAT    EPW32278   2.850   6.635   6.953  0.5168 -0.2315 -0.3346
 7890WAT      O32279   3.125   5.359   4.359  0.0342  0.1079 -0.3950
 7890WAT     H132280   3.197   5.396   4.327 -0.0968  0.0289 -0.7964
 7890WAT     H232281   3.105   5.409   4.428  0.6956 -0.1112 -0.0351
 7890WAT    EPW32282   3.133   5.372   4.364  0.1125  0.0639 -0.4011
 7891WAT      O32283   5.968   5.545   1.337  0.2680 -0.8938  0.2092
 7891WAT     H132284   5.924   5.555   1.263  0.1726  0.8727  0.4647
 7891WAT     H232285   5.917   5.492   1.384 -0.0551 -1.3784 -0.6638
 7891WAT    EPW32286   5.954   5.539   1.333  0.2062 -0.7044  0.1179
 7892WAT      O32287   4.090   1.020   5.894 -0.5767 -0.4853  0.5741
 7892WAT     H132288   4.131   0.981   5.827 -0.1034  0.5905  0.2030
 7892WAT     H232289   4.148   1.014   5.959 -0.0891  0.4181  0.2451
 7892WAT    EPW32290   4.105   1.014   5.894 -0.4348 -0.1929  0.4707
 7893WAT      O32291   4.469   3.296   3.129 -0.0178 -0.3925  0.1785
 7893WAT     H132292   4.534   3.296   3.188 -1.2136  0.3290  1.5725
 7893WAT     H232293   4.421   3.366   3.151 -0.6714 -0.2632 -1.5019
 7893WAT    EPW32294   4.471   3.306   3.141 -0.2910 -0.2668  0.1362
 7894WAT      O32295   1.500   6.139   2.151 -0.1590 -0.1807  0.0106
 7894WAT     H132296   1.538   6.061   2.161 -0.5400 -0.1657  1.9417
 7894WAT     H232297   1.562   6.195   2.176 -0.2109  0.0872 -0.4544
 7894WAT    EPW32298   1.515   6.135   2.156 -0.2230 -0.1389  0.2272
 7895WAT      O32299   1.764   2.482   6.876  0.2320  0.0499 -0.3470
 7895WAT     H132300   1.781   2.470   6.961 -0.4078 -1.9403 -0.4508
 7895WAT     H232301   1.805   2.416   6.837  0.5249  0.9388 -1.6227
 7895WAT    EPW32302   1.772   2.471   6.883  0.1808 -0.1128 -0.5508
 7896WAT      O32303   1.272   2.921   0.421  0.1756  0.2555  0.1821
 7896WAT     H132304   1.307   2.977   0.477  1.1575 -0.4872  0.3369
 7896WAT     H232305   1.292   2.843   0.455  0.5459 -0.2007 -1.0501
 7896WAT    EPW32306   1.280   2.918   0.434  0.3753  0.0784  0.0230
 7897WAT      O32307   0.684   6.365   3.447 -0.1483 -0.3297  0.2504
 7897WAT     H132308   0.616   6.412   3.420  1.6617  1.2642 -1.9152
 7897WAT     H232309   0.670   6.286   3.412 -0.0829  0.4566 -1.6320
 7897WAT    EPW32310   0.672   6.360   3.438  0.1287  0.0219 -0.3475
 7898WAT      O32311   0.260   4.031   4.744 -0.0544 -0.3695 -0.1154
 7898WAT     H132312   0.217   4.049   4.818 -0.9034  0.9421 -0.8660
 7898WAT     H232313   0.200   4.046   4.682  0.3683 -2.2859 -1.0541
 7898WAT    EPW32314   0.244   4.036   4.745 -0.1174 -0.4589 -0.3650
 7899WAT      O32315   2.321   3.705   7.342  0.1262  0.3666  0.1958
 7899WAT     H132316   2.395   3.666   7.319 -0.1859  0.9253 -2.0560
 7899WAT     H232317   2.347   3.776   7.386  0.8045 -0.5194  1.2805
 7899WAT    EPW32318   2.336   3.710   7.345  0.1803  0.3183  0.0234
 7900WAT      O32319   0.704   6.047   5.038  0.1859  0.8079  0.0919
 7900WAT     H132320   0.633   6.008   5.004  0.9598 -0.4733 -0.1436
 7900WAT     H232321   0.682   6.131   5.040 -0.6546  0.6912 -1.7272
 7900WAT    EPW32322   0.690   6.054   5.033  0.1761  0.6014 -0.2116
 7901WAT      O32323   4.387   5.342   3.685 -0.1885 -0.0497  0.2372
 7901WAT     H132324   4.422   5.344   3.605 -1.2085  0.6644 -0.2271
 7901WAT     H232325   4.398   5.260   3.711  1.5288  0.0860  0.0021
 7901WAT    EPW32326   4.394   5.330   3.677 -0.0855  0.0759  0.1339
 7902WAT      O32327   2.243   0.043   2.966  0.3710  0.4908 -0.3884
 7902WAT     H132328   2.233   0.110   2.911 -1.7848 -0.4222 -1.2100
 7902WAT     H232329   2.196   0.066   3.036 -1.1291 -0.4799 -1.0307
 7902WAT    EPW32330   2.235   0.056   2.968 -0.1690  0.2125 -0.6046
 7903WAT      O32331   6.556   3.348   2.719 -0.2695  0.5353 -0.0160
 7903WAT     H132332   6.609   3.379   2.657 -0.4354  0.2675 -0.2937
 7903WAT     H232333   6.547   3.264   2.698 -0.6674  0.5401  0.1294
 7903WAT    EPW32334   6.563   3.340   2.706 -0.3528  0.4964 -0.0356
 7904WAT      O32335   1.205   1.467   1.873 -0.7006  0.5501 -0.0676
 7904WAT     H132336   1.130   1.468   1.917  0.3122  0.5576  1.7486
 7904WAT     H232337   1.244   1.394   1.901  1.9900  2.8299  2.7533
 7904WAT    EPW32338   1.200   1.456   1.884 -0.1535  0.8880  0.6174
 7905WAT      O32339   4.328   0.101   2.696  0.0856 -0.0031  0.6880
 7905WAT     H132340   4.368   0.090   2.773  0.7987  0.6698  0.4253
 7905WAT     H232341   4.257   0.148   2.716  0.2594  0.1567  0.9396
 7905WAT    EPW32342   4.323   0.106   2.710  0.2166  0.1199  0.6864
 7906WAT      O32343   4.483   0.777   4.178  0.1245 -0.1698  0.3362
 7906WAT     H132344   4.399   0.775   4.200 -0.9958 -0.6366 -3.4516
 7906WAT     H232345   4.521   0.727   4.239 -2.2957 -0.1538  2.0171
 7906WAT    EPW32346   4.476   0.770   4.190 -0.3985 -0.2364  0.0250
 7907WAT      O32347   3.790   0.723   4.926  0.0368 -0.3704  0.3505
 7907WAT     H132348   3.728   0.661   4.933  0.5273 -0.9373 -0.1616
 7907WAT     H232349   3.744   0.797   4.920 -0.5690 -0.6968  0.7743
 7907WAT    EPW32350   3.774   0.725   4.926  0.0198 -0.5024  0.3375
 7908WAT      O32351   5.717   3.533   6.681 -0.2235  0.0911 -0.4186
 7908WAT     H132352   5.667   3.568   6.619 -0.1917 -0.9709 -1.0515
 7908WAT     H232353   5.674   3.461   6.704  0.2663 -0.0421  0.1078
 7908WAT    EPW32354   5.703   3.528   6.675 -0.1464 -0.0855 -0.4343
 7909WAT      O32355   7.048   2.430   1.885  0.0109  0.1661 -0.1571
 7909WAT     H132356   6.980   2.483   1.898 -1.9641 -1.8097 -1.5499
 7909WAT     H232357   7.069   2.444   1.801  0.0157 -0.5864 -0.2935
 7909WAT    EPW32358   7.041   2.440   1.874 -0.2802 -0.2369 -0.3830
 7910WAT      O32359   2.407   4.580   2.323  0.5003 -0.1570  0.1861
 7910WAT     H132360   2.358   4.515   2.292 -0.4170  1.2061 -1.4653
 7910WAT     H232361   2.371   4.651   2.286  1.6517  1.2508  1.6380
 7910WAT    EPW32362   2.394   4.581   2.313  0.5349  0.2523  0.1567
 7911WAT      O32363   2.473   4.058   4.891  0.2906  0.0590  0.1913
 7911WAT     H132364   2.491   4.141   4.912 -1.1197  0.1598  1.1183
 7911WAT     H232365   2.431   4.027   4.961 -0.4660 -1.0179 -0.6915
 7911WAT    EPW32366   2.469   4.066   4.904 -0.0295 -0.0852  0.1978
 7912WAT      O32367   6.292   6.192   3.624 -0.1061  0.0864  0.0102
 7912WAT     H132368   6.319   6.206   3.542  0.5243 -0.1888  0.1682
 7912WAT     H232369   6.229   6.132   3.614  0.9103 -0.9891 -0.1577
 7912WAT    EPW32370   6.287   6.185   3.610  0.1372 -0.1131  0.0087
 7913WAT      O32371   6.646   5.033   4.150 -0.2618  0.1241  0.2339
 7913WAT     H132372   6.711   5.002   4.101 -0.8648 -0.3793 -0.2643
 7913WAT     H232373   6.596   4.963   4.163 -0.7504  0.5279  0.5419
 7913WAT    EPW32374   6.648   5.018   4.145 -0.4231  0.1094  0.2058
 7914WAT      O32375   5.273   5.357   1.276  0.0713 -0.3646 -0.0636
 7914WAT     H132376   5.227   5.431   1.283  0.6194  0.0211 -0.4679
 7914WAT     H232377   5.268   5.336   1.191 -0.4190 -1.0179  0.1173
 7914WAT    EPW32378   5.266   5.365   1.265  0.0798 -0.4041 -0.0966
 7915WAT      O32379   1.201   5.980   2.593 -0.0239 -0.1941 -0.0376
 7915WAT     H132380   1.146   6.005   2.530  0.2258 -0.6144 -0.4249
 7915WAT     H232381   1.278   6.011   2.565  0.1755 -0.8327 -0.1957
 7915WAT    EPW32382   1.204   5.988   2.579  0.0424 -0.3505 -0.1182
 7916WAT      O32383   5.518   1.774   1.306 -0.6625 -0.3690 -0.0749
 7916WAT     H132384   5.604   1.775   1.319 -0.7668 -0.1126  0.6292
 7916WAT     H232385   5.499   1.857   1.288 -0.8429 -0.3191  0.3396
 7916WAT    EPW32386   5.528   1.786   1.306 -0.7046 -0.3238  0.0903
 7917WAT      O32387   6.521   2.575   4.699  0.2610 -0.0653 -0.2652
 7917WAT     H132388   6.560   2.551   4.624 -0.3734  0.4162 -0.7615
 7917WAT     H232389   6.560   2.525   4.759  1.7046  0.4590 -0.7281
 7917WAT    EPW32390   6.533   2.564   4.697  0.3806  0.0833 -0.4069
 7918WAT      O32391   6.017   4.208   0.696 -0.0900  0.3043  0.1638
 7918WAT     H132392   6.042   4.229   0.615 -0.2405 -0.7041 -0.1599
 7918WAT     H232393   6.018   4.284   0.739  0.2687  0.8006 -0.7112
 7918WAT    EPW32394   6.021   4.222   0.691 -0.0592  0.2287 -0.0133
 7919WAT      O32395   1.972   1.665   2.935  0.0523  0.3853 -0.0561
 7919WAT     H132396   2.012   1.705   2.869 -0.3702 -1.2992 -1.3807
 7919WAT     H232397   1.891   1.696   2.932 -0.2918 -0.5580 -1.1230
 7919WAT    EPW32398   1.966   1.676   2.925 -0.0610 -0.0029 -0.4094
 7920WAT      O32399   4.195   5.276   4.781 -0.1421  0.1493  0.0629
 7920WAT     H132400   4.151   5.242   4.849 -0.0735 -1.9450 -0.8707
 7920WAT     H232401   4.278   5.267   4.805 -0.0467 -2.0129 -0.8306
 7920WAT    EPW32402   4.201   5.270   4.795 -0.1178 -0.4794 -0.2070
 7921WAT      O32403   4.961   2.132   4.119  0.7777 -0.3620  0.1523
 7921WAT     H132404   5.005   2.155   4.047  1.3505  1.4794  1.0233
 7921WAT     H232405   4.907   2.199   4.132  0.4274 -0.8381  1.2391
 7921WAT    EPW32406   4.960   2.145   4.110  0.8106 -0.1603  0.4415
 7922WAT      O32407   5.980   4.267   6.927 -0.0828 -0.0241 -0.1244
 7922WAT     H132408   5.977   4.181   6.945 -0.7895 -0.3314 -1.5993
 7922WAT     H232409   6.035   4.298   6.988  0.0761 -1.4884  0.5294
 7922WAT    EPW32410   5.988   4.259   6.939 -0.1637 -0.2858 -0.2457
 7923WAT      O32411   3.275   6.143   2.364  0.0115 -0.2094  0.2284
 7923WAT     H132412   3.223   6.112   2.427  0.4436 -1.7991 -0.1363
 7923WAT     H232413   3.246   6.104   2.292  0.5565  0.2897 -0.2681
 7923WAT    EPW32414   3.263   6.132   2.363  0.1558 -0.3705  0.1012
 7924WAT      O32415   2.240   4.976   6.363 -0.4344  0.3177  0.4597
 7924WAT     H132416   2.269   4.942   6.438  0.6470 -1.3807 -0.6651
 7924WAT     H232417   2.186   4.915   6.332 -0.5795  0.8382 -0.3293
 7924WAT    EPW32418   2.237   4.962   6.370 -0.2961  0.1437  0.1770
 7925WAT      O32419   3.756   5.992   4.066  0.2141  0.0195 -0.1522
 7925WAT     H132420   3.748   5.981   4.152 -1.5210 -0.4520 -0.3405
 7925WAT     H232421   3.749   5.911   4.035  1.3811  0.1189 -0.7243
 7925WAT    EPW32422   3.754   5.978   4.074  0.1302 -0.0355 -0.2645
 7926WAT      O32423   5.570   6.221   0.739 -0.6727  0.0545  0.2268
 7926WAT     H132424   5.597   6.139   0.747  0.1023  0.1467 -1.1092
 7926WAT     H232425   5.630   6.267   0.783  0.2751  0.0785 -1.0228
 7926WAT    EPW32426   5.583   6.216   0.747 -0.4182  0.0717 -0.1552
 7927WAT      O32427   2.253   2.164   6.715 -0.1815 -0.2003  0.1359
 7927WAT     H132428   2.274   2.114   6.647 -0.7495  0.0589 -0.2456
 7927WAT     H232429   2.227   2.238   6.678  3.0561  1.3996  0.7536
 7927WAT    EPW32430   2.252   2.167   6.700  0.2128  0.0744  0.1708
 7928WAT      O32431   6.656   1.780   2.353 -0.4229 -0.0862  0.0750
 7928WAT     H132432   6.602   1.803   2.418  0.3972  1.1383  0.3477
 7928WAT     H232433   6.619   1.814   2.282 -0.9260 -0.7930 -0.0231
 7928WAT    EPW32434   6.642   1.788   2.352 -0.3761 -0.0097  0.1008
 7929WAT      O32435   5.626   2.028   4.848  0.4736 -0.1059 -0.1767
 7929WAT     H132436   5.582   2.069   4.910  0.3570  0.1655 -0.4350
 7929WAT     H232437   5.708   2.026   4.878  0.5901  0.8116 -0.4029
 7929WAT    EPW32438   5.632   2.034   4.861  0.4735  0.0697 -0.2483
 7930WAT      O32439   0.976   5.718   2.445  0.6034 -0.1375 -0.3503
 7930WAT     H132440   0.905   5.704   2.396  0.3862 -0.4167  0.0431
 7930WAT     H232441   0.944   5.737   2.524  0.8975  1.9280 -0.6707
 7930WAT    EPW32442   0.961   5.719   2.449  0.6147  0.1264 -0.3395
 7931WAT      O32443   2.222   3.322   4.827 -0.1587 -0.0615 -0.2183
 7931WAT     H132444   2.184   3.375   4.885 -2.5972  0.2541 -1.9556
 7931WAT     H232445   2.269   3.375   4.777  2.4625 -0.4028  1.6701
 7931WAT    EPW32446   2.224   3.337   4.828 -0.1317 -0.0653 -0.1960
 7932WAT      O32447   6.366   4.462   4.876  0.2145  0.1124  0.5778
 7932WAT     H132448   6.312   4.485   4.812 -0.6326  0.2457  1.3213
 7932WAT     H232449   6.327   4.491   4.948  1.1950  0.0571  1.1590
 7932WAT    EPW32450   6.352   4.470   4.878  0.2342  0.1239  0.7735
 7933WAT      O32451   1.396   1.575   0.499  0.4604 -0.1043  0.4135
 7933WAT     H132452   1.361   1.514   0.552 -1.5615  0.3683 -0.2821
 7933WAT     H232453   1.403   1.533   0.422 -0.0788  0.2451  0.1643
 7933WAT    EPW32454   1.392   1.560   0.495  0.0820  0.0171  0.2740
 7934WAT      O32455   2.507   5.520   5.745  0.5594  0.2163 -0.2651
 7934WAT     H132456   2.483   5.443   5.711  1.5735 -0.0302 -0.4781
 7934WAT     H232457   2.580   5.501   5.789  1.0399  1.1178 -0.6441
 7934WAT    EPW32458   2.515   5.506   5.746  0.7802  0.3131 -0.3526
 7935WAT      O32459   2.477   6.605   2.836 -0.8732  0.0167  0.3039
 7935WAT     H132460   2.402   6.647   2.847 -0.4187  0.7678  0.6195
 7935WAT     H232461   2.465   6.561   2.761 -1.1745  1.1382 -0.3340
 7935WAT    EPW32462   2.464   6.604   2.826 -0.8506  0.2933  0.2563
 7936WAT      O32463   2.255   7.130   2.245  0.0191 -1.2725 -0.1302
 7936WAT     H132464   2.208   7.076   2.194  0.0374 -0.1094 -1.4046
 7936WAT     H232465   2.226   7.110   2.325 -0.9664 -2.2267 -0.6831
 7936WAT    EPW32466   2.244   7.119   2.249 -0.1238 -1.2417 -0.4001
 7937WAT      O32467   0.869   0.254   4.129  0.0366 -0.1079  0.1726
 7937WAT     H132468   0.867   0.332   4.091  0.7231 -0.5519 -0.8057
 7937WAT     H232469   0.845   0.199   4.065 -1.8556 -0.5954  1.2022
 7937WAT    EPW32470   0.865   0.257   4.114 -0.1415 -0.2455  0.1802
 7938WAT      O32471   5.768   4.560   4.272 -0.2004 -0.2970  0.0014
 7938WAT     H132472   5.716   4.519   4.329  0.7293 -0.7454  0.5401
 7938WAT     H232473   5.713   4.613   4.229 -1.0997 -0.7597  0.5536
 7938WAT    EPW32474   5.752   4.562   4.274 -0.1959 -0.4316  0.1626
 7939WAT      O32475   2.572   3.620   5.537 -0.1850  0.2320 -0.1473
 7939WAT     H132476   2.626   3.624   5.469  1.2887 -1.1273  0.8852
 7939WAT     H232477   2.625   3.611   5.605 -1.6961 -1.7644  0.8733
 7939WAT    EPW32478   2.588   3.620   5.537 -0.1905 -0.2637  0.1560
 7940WAT      O32479   0.913   5.502   3.327 -0.4125 -0.3904 -0.1640
 7940WAT     H132480   0.831   5.516   3.301  0.0170 -0.4236 -1.6261
 7940WAT     H232481   0.941   5.580   3.353 -0.3693 -0.0039 -1.3206
 7940WAT    EPW32482   0.905   5.515   3.327 -0.3427 -0.3382 -0.5508
 7941WAT      O32483   2.071   7.150   0.775 -0.0572 -0.1440 -0.1629
 7941WAT     H132484   1.985   7.145   0.768 -0.1474  2.3465 -2.7216
 7941WAT     H232485   2.084   7.155   0.861 -2.0223 -3.9521  0.5757
 7941WAT    EPW32486   2.061   7.150   0.787 -0.3608 -0.3386 -0.4318
 7942WAT      O32487   7.160   1.926   4.983  0.1996  0.1945  0.1108
 7942WAT     H132488   7.150   1.840   4.994  2.2620 -0.0865  0.3450
 7942WAT     H232489   7.196   1.931   4.903  0.3275  0.8011  0.2064
 7942WAT    EPW32490   7.164   1.914   4.973  0.5231  0.2426  0.1595
 7943WAT      O32491   0.680   0.532   3.747 -0.5847  0.2803  0.7234
 7943WAT     H132492   0.627   0.539   3.678  0.0513  0.5098  0.2366
 7943WAT     H232493   0.746   0.483   3.716 -0.9482 -0.7872  1.5891
 7943WAT    EPW32494   0.682   0.526   3.732 -0.5444  0.1565  0.7794
 7944WAT      O32495   2.333   4.732   5.824 -0.1002  0.0744 -0.5322
 7944WAT     H132496   2.372   4.686   5.761 -0.0898 -0.8725  0.1506
 7944WAT     H232497   2.285   4.673   5.866 -1.4945  1.0193 -0.7112
 7944WAT    EPW32498   2.332   4.716   5.821 -0.3046  0.0741 -0.4578
 7945WAT      O32499   2.996   0.154   3.872 -0.4770 -0.5899 -0.4199
 7945WAT     H132500   2.924   0.135   3.916 -0.9726  0.1293 -0.9045
 7945WAT     H232501   3.053   0.092   3.897 -1.0245 -0.7225  0.5164
 7945WAT    EPW32502   2.994   0.142   3.882 -0.6311 -0.5033 -0.3531
 7946WAT      O32503   2.001   3.940   5.599 -0.6894 -0.2948  0.1205
 7946WAT     H132504   2.070   3.887   5.609  0.1595  1.1045  2.3355
 7946WAT     H232505   1.961   3.937   5.677 -2.7125 -0.3927 -0.8364
 7946WAT    EPW32506   2.005   3.932   5.612 -0.8629 -0.1026  0.3063
 7947WAT      O32507   2.142   6.194   4.218  0.1087  0.4107  0.2963
 7947WAT     H132508   2.186   6.154   4.282 -3.0427 -0.6790  1.9543
 7947WAT     H232509   2.160   6.144   4.148  2.4538  0.7902  0.5452
 7947WAT    EPW32510   2.151   6.180   4.217 -0.0104  0.3058  0.5780
 7948WAT      O32511   2.782   4.208   5.625 -0.2443 -0.5599  0.1959
 7948WAT     H132512   2.841   4.267   5.598  1.4418 -1.1453  2.3329
 7948WAT     H232513   2.710   4.256   5.636  0.5373  0.7231  0.0181
 7948WAT    EPW32514   2.781   4.224   5.622  0.1203 -0.4568  0.4853
 7949WAT      O32515   6.433   5.449   3.956  0.0749  0.0948  0.8000
 7949WAT     H132516   6.461   5.369   3.938  2.0846  0.9493 -0.2292
 7949WAT     H232517   6.409   5.481   3.878 -0.1136  0.7003  1.0961
 7949WAT    EPW32518   6.434   5.442   3.942  0.3439  0.3105  0.6917
 7950WAT      O32519   4.077   6.657   5.224 -0.0808  0.1565 -0.1857
 7950WAT     H132520   4.023   6.711   5.182  1.2973  1.2196 -0.6641
 7950WAT     H232521   4.124   6.621   5.161 -1.0781 -1.8083  0.1079
 7950WAT    EPW32522   4.076   6.659   5.209 -0.0245  0.0233 -0.2130
 7951WAT      O32523   0.276   0.568   0.072  0.4557  0.0063  0.0073
 7951WAT     H132524   0.318   0.562  -0.005  1.0055  2.4199  0.0316
 7951WAT     H232525   0.236   0.646   0.067 -1.1745 -0.6964  1.3934
 7951WAT    EPW32526   0.277   0.579   0.060  0.2961  0.2590  0.2157
 7952WAT      O32527   2.645   5.025   3.105  0.2698 -0.1412 -0.2193
 7952WAT     H132528   2.569   4.981   3.107  0.0415  0.2509 -0.2523
 7952WAT     H232529   2.670   5.025   3.189 -0.5721  1.1163  0.0594
 7952WAT    EPW32530   2.637   5.018   3.118  0.1117  0.1025 -0.1830
 7953WAT      O32531   6.168   6.258   6.569 -0.1023  0.2502  0.1518
 7953WAT     H132532   6.222   6.212   6.520  0.0971 -0.0927  0.6800
 7953WAT     H232533   6.119   6.302   6.512  1.5576  1.5559 -0.3450
 7953WAT    EPW32534   6.168   6.258   6.553  0.1723  0.3924  0.1564
 7954WAT      O32535   5.089   0.126   7.153 -0.1720 -0.3521 -0.4316
 7954WAT     H132536   5.036   0.151   7.088 -0.4479  0.9105  0.2574
 7954WAT     H232537   5.161   0.174   7.141  0.7100 -1.7590 -1.1141
 7954WAT    EPW32538   5.092   0.137   7.141 -0.0825 -0.3734 -0.4306
 7955WAT      O32539   3.645   1.047   2.135 -0.0987  0.0466 -0.1568
 7955WAT     H132540   3.705   1.052   2.072  0.0941 -0.4206 -0.0161
 7955WAT     H232541   3.688   1.069   2.208  0.0597 -0.8678  0.0358
 7955WAT    EPW32542   3.660   1.051   2.137 -0.0468 -0.1575 -0.1076
 7956WAT      O32543   2.285   3.198   6.753 -0.3420 -0.3993 -0.7317
 7956WAT     H132544   2.314   3.204   6.671  1.0863  0.4278 -0.2140
 7956WAT     H232545   2.354   3.168   6.797 -0.3580  1.2204  0.4919
 7956WAT    EPW32546   2.299   3.195   6.747 -0.1334 -0.0379 -0.4745
 7957WAT      O32547   5.538   3.546   5.405  0.5976  0.3379 -0.1006
 7957WAT     H132548   5.543   3.459   5.416  1.0911  0.3548 -0.1608
 7957WAT     H232549   5.509   3.574   5.483  0.9957  0.1661  0.1162
 7957WAT    EPW32550   5.534   3.537   5.418  0.7293  0.3150 -0.0775
 7958WAT      O32551   5.289   1.772   2.438  0.3921 -0.1013  0.7146
 7958WAT     H132552   5.227   1.798   2.493  0.8556 -1.6021  2.0044
 7958WAT     H232553   5.245   1.754   2.364 -0.6940 -0.9621  1.5435
 7958WAT    EPW32554   5.273   1.773   2.435  0.3002 -0.4502  1.0276
 7959WAT      O32555   1.730   4.589   0.602 -0.0114  0.5461 -0.1931
 7959WAT     H132556   1.706   4.666   0.568 -0.2775  0.4727 -0.1701
 7959WAT     H232557   1.816   4.598   0.612 -0.2172  1.3464  1.0952
 7959WAT    EPW32558   1.739   4.602   0.598 -0.0811  0.6535  0.0006
 7960WAT      O32559   1.113   0.320   5.420  0.0393 -0.9320  0.2399
 7960WAT     H132560   1.098   0.285   5.498 -1.0368 -0.9428  0.0454
 7960WAT     H232561   1.038   0.360   5.400  0.9941  0.9815  0.1721
 7960WAT    EPW32562   1.100   0.321   5.428  0.0214 -0.6509  0.2012
 7961WAT      O32563   1.882   4.458   3.764 -0.2225 -0.5710 -0.0977
 7961WAT     H132564   1.960   4.472   3.727  0.1965  0.6750  1.1647
 7961WAT     H232565   1.901   4.446   3.849 -1.2986 -1.6452  0.0277
 7961WAT    EPW32566   1.896   4.458   3.771 -0.3196 -0.5456  0.1073
 7962WAT      O32567   4.997   5.656   2.999 -0.0496 -0.0908 -0.0749
 7962WAT     H132568   4.953   5.725   2.968 -1.0312 -1.5649 -2.0903
 7962WAT     H232569   5.062   5.646   2.942  1.8722  0.8397  1.7967
 7962WAT    EPW32570   5.000   5.665   2.986  0.0893 -0.1711 -0.0961
 7963WAT      O32571   2.703   1.421   1.676  0.2403  0.0211  0.4352
 7963WAT     H132572   2.679   1.383   1.601  1.6956 -0.1963  0.0598
 7963WAT     H232573   2.639   1.479   1.690 -0.5031 -0.5401 -0.5068
 7963WAT    EPW32574   2.690   1.424   1.667  0.3455 -0.0939  0.2406
 7964WAT      O32575   3.568   4.194   3.485 -0.4048 -0.0889 -0.2368
 7964WAT     H132576   3.553   4.139   3.551 -0.1970  1.3677  1.0772
 7964WAT     H232577   3.631   4.246   3.516 -0.4432  0.7651 -1.5199
 7964WAT    EPW32578   3.575   4.194   3.499 -0.3798  0.2525 -0.2322
 7965WAT      O32579   3.985   0.386   2.632 -0.1037 -0.0198  0.2675
 7965WAT     H132580   3.997   0.305   2.662  1.1487  0.3270  0.7843
 7965WAT     H232581   3.991   0.377   2.545  0.5690 -0.4271  0.3456
 7965WAT    EPW32582   3.988   0.373   2.623  0.1807 -0.0287  0.3554
 7966WAT      O32583   5.692   2.770   6.835 -0.0882 -0.3238 -0.5244
 7966WAT     H132584   5.746   2.838   6.843 -0.6283  0.1555 -0.8410
 7966WAT     H232585   5.688   2.737   6.916  0.3895 -0.1404 -0.4261
 7966WAT    EPW32586   5.699   2.775   6.848 -0.0974 -0.2259 -0.5567
 7967WAT      O32587   6.009   1.031   3.259  0.3544 -0.1603  0.2406
 7967WAT     H132588   5.961   1.086   3.306  0.6651  1.0559 -0.8189
 7967WAT     H232589   5.990   1.052   3.177 -0.3469 -2.3715 -0.2499
 7967WAT    EPW32590   5.999   1.042   3.254  0.2967 -0.3073  0.0116
 7968WAT      O32591   6.728   3.408   2.525  0.0743  0.0699 -0.2997
 7968WAT     H132592   6.768   3.407   2.447  0.2438 -0.0430 -0.2131
 7968WAT     H232593   6.772   3.469   2.569  0.4742 -0.3933 -0.0415
 7968WAT    EPW32594   6.741   3.417   2.520  0.1584 -0.0152 -0.2488
 7969WAT      O32595   3.226   6.493   7.234  0.1643 -0.3332 -0.2901
 7969WAT     H132596   3.249   6.577   7.231 -0.2141 -0.1160  1.5486
 7969WAT     H232597   3.143   6.493   7.208 -0.4761  0.2006  1.5817
 7969WAT    EPW32598   3.217   6.506   7.230  0.0138 -0.2223  0.2580
 7970WAT      O32599   1.938   5.372   2.307  0.0211 -0.3215  0.0570
 7970WAT     H132600   1.998   5.325   2.264  0.4707  0.7066 -0.4889
 7970WAT     H232601   1.983   5.443   2.332 -1.0731  0.6893 -0.7664
 7970WAT    EPW32602   1.954   5.375   2.305 -0.0741 -0.0203 -0.1453
 7971WAT      O32603   5.904   5.175   4.093  0.9983  0.8055  0.0722
 7971WAT     H132604   5.866   5.248   4.065  0.5997  0.5115 -0.1610
 7971WAT     H232605   5.873   5.164   4.173 -1.7063 -0.9564 -1.0677
 7971WAT    EPW32606   5.894   5.184   4.101  0.5399  0.5018 -0.1306
 7972WAT      O32607   6.722   2.261   5.630  0.6239  0.3900  0.1305
 7972WAT     H132608   6.729   2.273   5.716 -1.7620 -0.0826  0.4470
 7972WAT     H232609   6.747   2.178   5.619  0.6264  0.3533  0.3975
 7972WAT    EPW32610   6.727   2.251   5.641  0.2718  0.3148  0.2167
 7973WAT      O32611   2.553   4.822   3.794  0.2248  0.4147 -0.4447
 7973WAT     H132612   2.590   4.898   3.773 -0.2642  0.8916  0.3768
 7973WAT     H232613   2.492   4.844   3.852 -1.4607 -0.3100 -1.8391
 7973WAT    EPW32614   2.549   4.837   3.799 -0.0964  0.3781 -0.5293
 7974WAT      O32615   6.665   0.973   0.798  0.5770  0.3123  0.4531
 7974WAT     H132616   6.678   1.059   0.803 -2.2762  0.8918 -0.5245
 7974WAT     H232617   6.693   0.952   0.718 -0.7254  0.8187 -0.1724
 7974WAT    EPW32618   6.671   0.982   0.787 -0.0369  0.4727  0.2163
 7975WAT      O32619   1.308   2.023   5.131  0.4782  0.2561  0.3120
 7975WAT     H132620   1.361   2.004   5.064 -0.2377 -1.4295  0.1736
 7975WAT     H232621   1.316   1.954   5.184 -0.5763  0.5804  0.9266
 7975WAT    EPW32622   1.317   2.010   5.129  0.2167  0.0550  0.3823
 7976WAT      O32623   0.924   2.290   4.826  0.2693  0.4409  0.3615
 7976WAT     H132624   1.002   2.251   4.821  0.2495  0.3459  0.7483
 7976WAT     H232625   0.868   2.226   4.806  0.3698  0.9936 -2.0032
 7976WAT    EPW32626   0.927   2.275   4.822  0.2812  0.5085  0.0693
 7977WAT      O32627   5.267   1.875   3.605  0.7488 -0.3795  0.0773
 7977WAT     H132628   5.344   1.908   3.581 -0.1838  2.8593  1.0528
 7977WAT     H232629   5.281   1.850   3.688  1.5523 -3.0729 -0.7686
 7977WAT    EPW32630   5.281   1.876   3.614  0.7297 -0.2989  0.0964
 7978WAT      O32631   6.641   3.321   3.912  0.1811 -0.3622 -0.3721
 7978WAT     H132632   6.665   3.341   3.831  0.3611  0.9253 -0.0277
 7978WAT     H232633   6.653   3.395   3.956  1.5461 -1.4047  1.1643
 7978WAT    EPW32634   6.647   3.335   3.907  0.4093 -0.3260 -0.0943
 7979WAT      O32635   4.081   4.338   0.555  0.2111 -0.4720  0.1913
 7979WAT     H132636   4.035   4.323   0.627  1.3657  1.9708  1.5715
 7979WAT     H232637   4.158   4.303   0.571 -0.3062 -2.3537 -1.0873
 7979WAT    EPW32638   4.085   4.331   0.568  0.3053 -0.3891  0.2063
 7980WAT      O32639   6.973   6.806   6.416  0.0086  0.1212 -0.0386
 7980WAT     H132640   6.910   6.754   6.386 -1.2525  1.3333  0.4415
 7980WAT     H232641   7.013   6.834   6.343 -1.0014  0.5632 -0.4341
 7980WAT    EPW32642   6.970   6.802   6.401 -0.3269  0.3655 -0.0261
 7981WAT      O32643   2.938   1.023   2.909  0.2811 -0.1374  0.0540
 7981WAT     H132644   2.951   1.091   2.855 -1.0553 -0.2287 -0.4247
 7981WAT     H232645   2.940   1.059   2.988  3.1319 -0.1300  0.0779
 7981WAT    EPW32646   2.940   1.039   2.913  0.5048 -0.1498 -0.0132
 7982WAT      O32647   2.234   0.004   5.101  0.0507 -0.1062 -0.3253
 7982WAT     H132648   2.300  -0.053   5.105 -0.2833 -0.4593  0.5665
 7982WAT     H232649   2.173  -0.033   5.153 -1.0101 -0.0115 -1.4664
 7982WAT    EPW32650   2.235  -0.010   5.109 -0.1553 -0.1444 -0.3621
 7983WAT      O32651   3.185   6.021   0.813  1.1774  0.0808 -0.3545
 7983WAT     H132652   3.257   5.995   0.855  0.9147  0.3346  0.2607
 7983WAT     H232653   3.137   6.058   0.875  0.8752  0.6565 -0.9214
 7983WAT    EPW32654   3.189   6.023   0.828  1.0939  0.2033 -0.3474
 7984WAT      O32655   1.831   0.008   3.140  0.3043  0.0057 -0.2194
 7984WAT     H132656   1.786  -0.052   3.096 -0.0127  0.3259 -0.3324
 7984WAT     H232657   1.878  -0.040   3.197  0.1190 -0.3520 -0.3612
 7984WAT    EPW32658   1.831  -0.008   3.142  0.2301  0.0001 -0.2570
 7985WAT      O32659   5.418   1.684   5.756  0.2433 -0.0212 -0.1309
 7985WAT     H132660   5.400   1.762   5.791  0.0167 -0.3692  0.5344
 7985WAT     H232661   5.424   1.631   5.825  2.7845 -0.1620 -0.3590
 7985WAT    EPW32662   5.417   1.688   5.771  0.5852 -0.0934 -0.0663
 7986WAT      O32663   3.779   3.206   4.192  0.1824  0.0992 -1.1869
 7986WAT     H132664   3.710   3.256   4.214  0.5257  0.9036 -1.8974
 7986WAT     H232665   3.818   3.251   4.128  2.1792  0.3622  0.1350
 7986WAT    EPW32666   3.774   3.220   4.186  0.5281  0.2569 -1.0966
 7987WAT      O32667   5.090   1.445   3.016 -0.3400  0.4602  0.3220
 7987WAT     H132668   5.060   1.523   2.990  1.8204  0.2796 -3.4686
 7987WAT     H232669   5.157   1.465   3.068 -0.0562  1.1427 -0.2962
 7987WAT    EPW32670   5.096   1.459   3.020  0.0211  0.5343 -0.3293
 7988WAT      O32671   4.702   5.830   1.636  0.6897 -0.1096 -0.1428
 7988WAT     H132672   4.629   5.800   1.673  2.4059 -2.2553  1.7396
 7988WAT     H232673   4.684   5.915   1.622 -2.1254 -0.5491  0.2216
 7988WAT    EPW32674   4.689   5.838   1.639  0.5274 -0.4915  0.1891
 7989WAT      O32675   3.521   1.752   2.510  0.1348  0.1820 -0.4658
 7989WAT     H132676   3.503   1.797   2.582  0.5833 -2.4548  1.4250
 7989WAT     H232677   3.603   1.775   2.490  0.5619 -0.1962  0.7999
 7989WAT    EPW32678   3.530   1.762   2.517  0.2642 -0.2634  0.0005
 7990WAT      O32679   5.772   4.547   2.846  0.1501 -0.0505  0.1345
 7990WAT     H132680   5.774   4.633   2.860 -1.1155  0.3285 -1.5664
 7990WAT     H232681   5.687   4.527   2.853  0.0332 -0.5992 -2.0753
 7990WAT    EPW32682   5.760   4.557   2.849 -0.0541 -0.0756 -0.4432
 7991WAT      O32683   7.169   0.477   0.219 -0.1138  0.2851  0.8861
 7991WAT     H132684   7.206   0.399   0.228 -1.6971 -0.4811  1.1544
 7991WAT     H232685   7.174   0.492   0.133  1.6840  0.7014  1.0248
 7991WAT    EPW32686   7.175   0.467   0.207 -0.0821  0.2334  0.9462
 7992WAT      O32687   2.580   7.098   5.663  0.4106 -0.1464 -0.2330
 7992WAT     H132688   2.549   7.017   5.674  4.9034 -2.3794 -1.1923
 7992WAT     H232689   2.559   7.117   5.580 -0.2346 -0.5475 -0.1676
 7992WAT    EPW32690   2.573   7.089   5.652  0.9790 -0.5355 -0.3651
 7993WAT      O32691   3.334   3.779   1.098 -0.3391 -0.1363 -0.4757
 7993WAT     H132692   3.362   3.843   1.046 -1.1356 -1.2012 -2.3085
 7993WAT     H232693   3.408   3.746   1.131  0.1718  0.7552 -0.6883
 7993WAT    EPW32694   3.349   3.784   1.095 -0.3813 -0.1619 -0.7778
 7994WAT      O32695   1.564   6.612   1.025  0.6699  0.3669 -0.0356
 7994WAT     H132696   1.513   6.541   1.030  0.6046  0.4223  0.0996
 7994WAT     H232697   1.571   6.627   0.940 -0.7020  1.1836 -0.0367
 7994WAT    EPW32698   1.557   6.604   1.013  0.4576  0.4957 -0.0158
 7995WAT      O32699   1.225   0.108   0.303  0.0810 -0.0349 -0.0549
 7995WAT     H132700   1.239   0.045   0.361 -1.3071  0.4489  0.8349
 7995WAT     H232701   1.228   0.066   0.226  0.4194 -0.9509  0.4431
 7995WAT    EPW32702   1.228   0.093   0.300 -0.0741 -0.0988  0.1501
 7996WAT      O32703   4.227   1.890   0.808 -0.0424 -0.3477  0.4867
 7996WAT     H132704   4.301   1.851   0.831  2.3290  2.8912 -0.9123
 7996WAT     H232705   4.183   1.827   0.766  2.2795 -2.1640  0.5780
 7996WAT    EPW32706   4.231   1.875   0.805  0.6509 -0.1375  0.2936
 7997WAT      O32707   2.986   0.099   3.022  0.3287  0.0139  0.4782
 7997WAT     H132708   3.014   0.020   2.998 -0.7415 -0.8512  1.9292
 7997WAT     H232709   3.049   0.128   3.076 -0.8628 -1.4425  2.8218
 7997WAT    EPW32710   3.000   0.092   3.026 -0.0054 -0.3291  1.0388
 7998WAT      O32711   2.648   1.968   7.220 -0.0766 -0.4769 -0.3527
 7998WAT     H132712   2.587   1.920   7.180 -0.2842 -1.3454  0.9254
 7998WAT     H232713   2.698   1.908   7.259  0.9718  0.2737 -0.5010
 7998WAT    EPW32714   2.646   1.952   7.220  0.0476 -0.4943 -0.1858
 7999WAT      O32715   3.046   1.988   2.080 -0.5004 -0.1695  0.5385
 7999WAT     H132716   3.129   2.008   2.064 -1.5829  3.5598 -1.6817
 7999WAT     H232717   3.038   1.906   2.050  1.9948 -0.0537 -0.6764
 7999WAT    EPW32718   3.057   1.978   2.074 -0.2917  0.3985  0.0311
 8000WAT      O32719   0.724   4.403   3.295  0.5298 -0.0531  0.1966
 8000WAT     H132720   0.713   4.362   3.372  0.8401 -0.0462  0.2457
 8000WAT     H232721   0.656   4.457   3.290  0.4756 -0.0992  0.4412
 8000WAT    EPW32722   0.713   4.405   3.306  0.5677 -0.0589  0.2400
 8001WAT      O32723   5.566   4.084   3.047 -0.3128  0.2586 -0.5022
 8001WAT     H132724   5.589   4.009   3.010 -0.1835 -0.5826  1.1784
 8001WAT     H232725   5.631   4.100   3.103 -2.4639 -0.9063  2.6075
 8001WAT    EPW32726   5.579   4.076   3.050 -0.6114 -0.0378  0.2054
 8002WAT      O32727   4.952   0.949   5.114  0.0264  0.3891  0.5829
 8002WAT     H132728   4.904   0.996   5.169 -1.6643 -0.7340  0.1661
 8002WAT     H232729   4.919   0.869   5.122 -0.6004  0.2488 -2.2919
 8002WAT    EPW32730   4.940   0.944   5.123 -0.3160  0.2025  0.0966
 8003WAT      O32731   5.664   6.364   6.420 -0.4312  0.1771  0.1952
 8003WAT     H132732   5.742   6.394   6.398 -0.2702  0.2085  0.7749
 8003WAT     H232733   5.678   6.325   6.497 -1.1345  0.9360  0.7350
 8003WAT    EPW32734   5.677   6.363   6.428 -0.5113  0.2938  0.3606
 8004WAT      O32735   1.428   2.661   7.347 -0.1146 -0.1392  0.1233
 8004WAT     H132736   1.390   2.737   7.329 -0.9738 -0.5024  0.3249
 8004WAT     H232737   1.361   2.605   7.349  0.7224 -1.4340 -2.6901
 8004WAT    EPW32738   1.412   2.664   7.344 -0.1179 -0.3841 -0.2625
 8005WAT      O32739   6.654   2.187   3.698  0.1891 -0.3835  0.1242
 8005WAT     H132740   6.647   2.191   3.784 -0.1963 -2.7024  0.2633
 8005WAT     H232741   6.740   2.187   3.684  0.2513  0.0588  0.4852
 8005WAT    EPW32742   6.666   2.188   3.708  0.1414 -0.6607  0.1981
 8006WAT      O32743   0.318   3.346   3.682 -0.2128 -0.3499 -0.1618
 8006WAT     H132744   0.241   3.387   3.683  0.8192  1.7604  0.6767
 8006WAT     H232745   0.375   3.410   3.701  1.6450 -2.0179  0.2183
 8006WAT    EPW32746   0.315   3.361   3.685  0.2141 -0.2846  0.0183
 8007WAT      O32747   5.969   4.012   1.340 -0.1597  0.6535 -0.0752
 8007WAT     H132748   5.951   3.947   1.284 -1.2299  0.2786  0.6790
 8007WAT     H232749   6.050   4.036   1.317  0.3245 -1.0297 -0.3085
 8007WAT    EPW32750   5.978   4.006   1.328 -0.2463  0.3495  0.0017
 8008WAT      O32751   0.571   2.759   3.178 -0.1606  0.1872 -0.1924
 8008WAT     H132752   0.598   2.784   3.099 -2.1706  0.2282 -0.9220
 8008WAT     H232753   0.518   2.692   3.162  1.1864 -1.3475  1.3441
 8008WAT    EPW32754   0.567   2.753   3.164 -0.2585 -0.0335 -0.0732
 8009WAT      O32755   2.933   1.345   2.227 -0.0092 -0.5730 -0.0469
 8009WAT     H132756   2.854   1.369   2.199 -0.6428 -1.4089  0.9500
 8009WAT     H232757   2.919   1.322   2.310  1.8784  2.3565  1.2425
 8009WAT    EPW32758   2.920   1.345   2.236  0.1761 -0.2638  0.2909
 8010WAT      O32759   3.024   7.150   0.430 -0.0291  0.3156  0.0192
 8010WAT     H132760   3.070   7.135   0.357  0.5148  0.0947  0.3951
 8010WAT     H232761   2.946   7.115   0.412 -0.1267  0.8980 -0.7143
 8010WAT    EPW32762   3.019   7.142   0.416  0.0368  0.3690 -0.0336
 8011WAT      O32763   0.065   4.080   2.410  0.2117  0.4455 -0.4639
 8011WAT     H132764   0.032   4.140   2.463 -0.3383  0.2164 -0.5382
 8011WAT     H232765   0.043   4.004   2.448  1.9463  0.2714  0.2766
 8011WAT    EPW32766   0.057   4.077   2.423  0.3867  0.3860 -0.3655
 8012WAT      O32767   1.548   2.072   3.459  0.6269 -0.5825  0.0456
 8012WAT     H132768   1.545   2.155   3.487  3.2309 -0.9030  1.6120
 8012WAT     H232769   1.604   2.075   3.392  0.5709 -1.0275 -0.0213
 8012WAT    EPW32770   1.556   2.084   3.453  1.0033 -0.6956  0.2671
 8013WAT      O32771   0.899   0.948   5.689 -0.3987  0.5662  0.0475
 8013WAT     H132772   0.976   0.907   5.686  0.0086  0.5924  4.4754
 8013WAT     H232773   0.841   0.883   5.684  0.0729  0.0671  0.9089
 8013WAT    EPW32774   0.902   0.932   5.688 -0.2689  0.4963  0.8289
 8014WAT      O32775   1.937   2.704   4.183  0.0643 -0.0827 -0.1670
 8014WAT     H132776   2.004   2.747   4.147 -0.5639  0.8749 -0.2489
 8014WAT     H232777   1.902   2.764   4.236  0.7508 -1.3394  1.8041
 8014WAT    EPW32778   1.942   2.719   4.185  0.0729 -0.1268  0.1121
 8015WAT      O32779   7.153   1.239   6.305  0.0555 -0.5620  0.0511
 8015WAT     H132780   7.207   1.255   6.239  0.4007 -0.2444  0.4049
 8015WAT     H232781   7.114   1.164   6.283 -0.2022 -0.1991 -0.7459
 8015WAT    EPW32782   7.155   1.231   6.292  0.0684 -0.4615 -0.0144
 8016WAT      O32783   5.005   4.947   2.051  0.2700  0.0535  0.1707
 8016WAT     H132784   5.070   4.940   1.994 -0.5105 -0.3487 -0.6950
 8016WAT     H232785   4.995   4.865   2.080 -0.0034  0.0667  0.1181
 8016WAT    EPW32786   5.013   4.934   2.047  0.1143 -0.0039  0.0350
 8017WAT      O32787   0.778   1.322   4.826 -0.0574  0.2400 -0.3269
 8017WAT     H132788   0.787   1.264   4.890 -0.5060  0.7025  0.1646
 8017WAT     H232789   0.859   1.353   4.814 -0.4003  2.7649  2.5194
 8017WAT    EPW32790   0.791   1.318   4.834 -0.1743  0.6813  0.1662
 8018WAT      O32791   2.440   5.734   5.582 -1.0019 -0.3706  0.4956
 8018WAT     H132792   2.457   5.679   5.648 -1.8861 -0.0048  1.0558
 8018WAT     H232793   2.498   5.712   5.521  0.2741 -0.3104  1.6267
 8018WAT    EPW32794   2.451   5.723   5.583 -0.9440 -0.3076  0.7455
 8019WAT      O32795   4.669   2.206   1.793  0.6854  0.1183  0.4282
 8019WAT     H132796   4.613   2.264   1.759 -0.2138 -1.1223 -0.3045
 8019WAT     H232797   4.731   2.256   1.829 -0.3429  1.5320  0.3383
 8019WAT    EPW32798   4.670   2.222   1.793  0.4006  0.1438  0.3067
 8020WAT      O32799   0.522   3.432   1.743 -0.2702 -0.4124 -0.0402
 8020WAT     H132800   0.497   3.349   1.747  0.3615 -0.6739 -1.0962
 8020WAT     H232801   0.595   3.434   1.790 -0.1169 -0.5297 -0.2712
 8020WAT    EPW32802   0.529   3.420   1.751 -0.1542 -0.4684 -0.2303
 8021WAT      O32803   3.338   5.358   4.138 -0.0319 -0.0763  0.2273
 8021WAT     H132804   3.296   5.334   4.066  0.9511 -1.4841  0.0835
 8021WAT     H232805   3.338   5.287   4.188  1.3240  0.1579  0.6202
 8021WAT    EPW32806   3.332   5.344   4.135  0.3136 -0.2496  0.2641
 8022WAT      O32807   4.589   2.473   6.611 -0.1425 -1.4330  0.4267
 8022WAT     H132808   4.660   2.523   6.618 -1.1058  0.1745 -0.6037
 8022WAT     H232809   4.600   2.434   6.533 -0.7193 -0.5866 -0.0928
 8022WAT    EPW32810   4.602   2.475   6.601 -0.3700 -1.0705  0.1977
 8023WAT      O32811   4.194   1.320   0.025  0.0473 -0.2098 -0.3136
 8023WAT     H132812   4.116   1.341   0.058 -0.2139  1.0254 -1.6284
 8023WAT     H232813   4.237   1.396   0.024 -0.0235 -0.1310 -2.9126
 8023WAT    EPW32814   4.189   1.335   0.030 -0.0018 -0.0157 -0.8918
 8024WAT      O32815   3.390   0.080   5.885 -0.0601 -0.0813 -0.0217
 8024WAT     H132816   3.330   0.134   5.852  0.1838  0.8014  0.9069
 8024WAT     H232817   3.444   0.065   5.819 -0.6044  0.1481 -0.5204
 8024WAT    EPW32818   3.389   0.086   5.871 -0.1045  0.0830  0.0418
 8025WAT      O32819   5.157   6.397   3.100 -0.3912  0.6138 -0.1902
 8025WAT     H132820   5.184   6.370   3.021  1.9407 -1.2528  1.1069
 8025WAT     H232821   5.186   6.479   3.103  3.6584 -0.5956  0.2397
 8025WAT    EPW32822   5.166   6.405   3.088  0.5515  0.1594  0.0649
 8026WAT      O32823   1.798   6.002   6.852  0.1334  0.5807 -0.1060
 8026WAT     H132824   1.792   6.053   6.781 -0.4773  0.0787 -0.4241
 8026WAT     H232825   1.730   5.948   6.844 -1.9288  2.4898  2.4344
 8026WAT    EPW32826   1.787   6.002   6.841 -0.2615  0.7886  0.2223
 8027WAT      O32827   1.144   4.857   4.785  0.8764  0.7361  0.0976
 8027WAT     H132828   1.171   4.896   4.712  1.8167 -1.6826 -0.9518
 8027WAT     H232829   1.078   4.807   4.759  1.1135 -0.0428  0.9346
 8027WAT    EPW32830   1.138   4.855   4.770  1.0503  0.2637  0.0662
 8028WAT      O32831   0.920   6.276   6.027  0.4957  0.5872 -0.3709
 8028WAT     H132832   0.900   6.273   5.942  0.3601 -0.4282 -0.3179
 8028WAT     H232833   1.001   6.307   6.028  0.9348 -0.5092 -0.9495
 8028WAT    EPW32834   0.929   6.280   6.014  0.5406  0.2753 -0.4485
 8029WAT      O32835   0.399   5.010   3.954  0.0769  0.1332  0.8434
 8029WAT     H132836   0.444   4.964   4.013 -0.5940 -0.1434  1.1538
 8029WAT     H232837   0.447   5.082   3.943  1.5699 -0.9523 -0.2452
 8029WAT    EPW32838   0.413   5.014   3.961  0.1983 -0.0680  0.7285
 8030WAT      O32839   2.885   5.722   5.409 -0.6438  0.3873 -0.4573
 8030WAT     H132840   2.920   5.771   5.472  0.1428 -0.4750 -0.2057
 8030WAT     H232841   2.955   5.695   5.364 -0.9080 -1.6983  0.2980
 8030WAT    EPW32842   2.901   5.725   5.412 -0.5666 -0.0482 -0.3086
 8031WAT      O32843   4.933   3.254   4.116 -0.1651 -0.1590  0.1646
 8031WAT     H132844   5.000   3.242   4.170 -0.4162  0.8700  0.7221
 8031WAT     H232845   4.964   3.310   4.057 -1.0029  1.6776  1.3786
 8031WAT    EPW32846   4.947   3.261   4.115 -0.3260  0.2643  0.4263
 8032WAT      O32847   1.269   6.540   3.225 -0.5378 -0.3713 -0.2479
 8032WAT     H132848   1.324   6.580   3.280 -0.0842  0.7673 -1.4777
 8032WAT     H232849   1.195   6.584   3.233 -0.6318 -0.5412 -0.1676
 8032WAT    EPW32850   1.266   6.552   3.234 -0.4847 -0.2282 -0.4177
 8033WAT      O32851   0.393   4.812   2.108  0.6329 -0.0107 -0.6186
 8033WAT     H132852   0.385   4.768   2.183  0.9656  1.3232  0.2421
 8033WAT     H232853   0.321   4.793   2.064  1.0541 -1.8983 -0.5663
 8033WAT    EPW32854   0.381   4.803   2.113  0.7443 -0.0925 -0.4837
 8034WAT      O32855   3.224   6.225   6.778 -0.0153  0.0625  0.0931
 8034WAT     H132856   3.148   6.182   6.769 -0.4859  0.8496  0.2761
 8034WAT     H232857   3.214   6.295   6.727  0.5115  0.2744  0.2791
 8034WAT    EPW32858   3.211   6.229   6.769 -0.0070  0.2101  0.1476
 8035WAT      O32859   4.843   3.305   4.945 -0.2912  0.3999 -0.2472
 8035WAT     H132860   4.924   3.276   4.952 -0.0030  1.2191 -0.0442
 8035WAT     H232861   4.811   3.298   5.026 -0.8102 -0.9806 -0.5503
 8035WAT    EPW32862   4.850   3.300   4.958 -0.3253  0.3170 -0.2620
 8036WAT      O32863   6.838   6.088   2.297  0.2463 -0.1442 -0.1592
 8036WAT     H132864   6.884   6.085   2.223  0.3600 -0.8710 -0.0667
 8036WAT     H232865   6.764   6.128   2.275  0.4579  0.0212 -0.5664
 8036WAT    EPW32866   6.834   6.094   2.283  0.2944 -0.2271 -0.2057
 8037WAT      O32867   1.958   0.520   3.550  0.2742 -0.4485  0.0824
 8037WAT     H132868   1.946   0.549   3.468  1.2222  1.8064  0.6760
 8037WAT     H232869   2.018   0.457   3.540  0.9515  0.3244 -0.8914
 8037WAT    EPW32870   1.965   0.515   3.536  0.5143 -0.0012  0.0262
 8038WAT      O32871   2.282   6.530   5.049  0.1807  0.3929  0.1154
 8038WAT     H132872   2.343   6.468   5.042 -0.9104 -0.7970  0.7532
 8038WAT     H232873   2.313   6.582   5.112 -0.6401 -1.7189  2.4163
 8038WAT    EPW32874   2.295   6.529   5.057 -0.1017 -0.0948  0.5495
 8039WAT      O32875   2.537   2.556   4.259  0.2041 -0.3062  0.2980
 8039WAT     H132876   2.604   2.606   4.285  0.1299 -0.5318  0.9410
 8039WAT     H232877   2.467   2.607   4.271  0.0337 -0.8440  1.8025
 8039WAT    EPW32878   2.537   2.571   4.265  0.1680 -0.4190  0.6153
 8040WAT      O32879   3.894   7.053   1.438 -0.3722 -0.0242  0.2539
 8040WAT     H132880   3.890   7.105   1.367 -1.5812 -0.2205  0.1537
 8040WAT     H232881   3.857   7.102   1.500 -0.7113 -0.4346  0.3751
 8040WAT    EPW32882   3.888   7.068   1.437 -0.6009 -0.1138  0.2570
 8041WAT      O32883   1.739   1.416   7.225  0.3321  0.1919  0.1535
 8041WAT     H132884   1.665   1.461   7.219 -0.0046 -0.1670  1.4676
 8041WAT     H232885   1.796   1.474   7.254  1.1261  1.0120 -2.6916
 8041WAT    EPW32886   1.736   1.431   7.228  0.3997  0.2600 -0.0727
 8042WAT      O32887   6.636   1.458   5.394  0.2552 -0.1525 -0.4638
 8042WAT     H132888   6.715   1.483   5.364 -0.4141  1.3324 -1.0956
 8042WAT     H232889   6.623   1.381   5.355  1.0716 -0.0587 -0.9593
 8042WAT    EPW32890   6.646   1.451   5.383  0.2769  0.0807 -0.6303
 8043WAT      O32891   7.183   4.931   7.230  0.5528  0.3113 -0.5067
 8043WAT     H132892   7.212   4.888   7.300 -1.8322  1.6653  1.4999
 8043WAT     H232893   7.239   4.998   7.222  2.4602 -1.3300 -1.7316
 8043WAT    EPW32894   7.195   4.935   7.239  0.4823  0.2688 -0.3912
 8044WAT      O32895   2.402   5.680   3.979  0.3003  0.0158  0.0525
 8044WAT     H132896   2.380   5.700   3.897 -0.5893 -0.8720  0.0548
 8044WAT     H232897   2.379   5.751   4.024  0.4244  0.3510 -0.3998
 8044WAT    EPW32898   2.395   5.693   3.974  0.1872 -0.0659 -0.0140
 8045WAT      O32899   5.934   2.695   3.086  0.0985 -0.0525 -0.2592
 8045WAT     H132900   5.925   2.694   3.173 -0.1365  0.2792 -0.2804
 8045WAT     H232901   5.866   2.742   3.058 -0.5919 -1.2936 -0.7227
 8045WAT    EPW32902   5.923   2.702   3.095 -0.0382 -0.1868 -0.3308
 8046WAT      O32903   3.988   0.503   5.089 -0.1489  0.6009  0.8019
 8046WAT     H132904   3.970   0.580   5.124  0.7950  0.3787  1.8587
 8046WAT     H232905   3.910   0.468   5.072 -0.6144  1.1986  1.6651
 8046WAT    EPW32906   3.974   0.509   5.092 -0.0782  0.6563  1.0855
 8047WAT      O32907   5.570   6.364   6.088  0.2303 -0.7355  0.0045
 8047WAT     H132908   5.587   6.290   6.130  1.2848 -2.1127 -2.5819
 8047WAT     H232909   5.631   6.419   6.117 -0.5375 -0.8111  1.9272
 8047WAT    EPW32910   5.582   6.361   6.098  0.2726 -0.9501 -0.0935
 8048WAT      O32911   0.871   6.257   3.935 -0.0703 -0.2317  0.1879
 8048WAT     H132912   0.869   6.330   3.983  2.0929  0.3040 -0.4273
 8048WAT     H232913   0.847   6.195   3.992 -0.9021  0.7962  1.0090
 8048WAT    EPW32914   0.867   6.258   3.951  0.1264 -0.0008  0.2183
 8049WAT      O32915   0.423   6.023   4.999 -0.5296 -0.1530  0.2187
 8049WAT     H132916   0.386   6.014   4.921 -1.8757 -1.1560  0.9207
 8049WAT     H232917   0.391   5.956   5.045  1.6788 -0.6962  1.1054
 8049WAT    EPW32918   0.412   6.012   4.994 -0.4022 -0.3814  0.4534
 8050WAT      O32919   3.239   1.351   5.198  0.2895 -0.3137 -0.1358
 8050WAT     H132920   3.176   1.293   5.218  1.1800 -0.3804  3.0384
 8050WAT     H232921   3.312   1.308   5.218  1.1618  0.8894 -0.6597
 8050WAT    EPW32922   3.240   1.336   5.204  0.5499 -0.1458  0.2557
 8051WAT      O32923   2.254   0.877   4.034  0.5802  0.3792  0.0229
 8051WAT     H132924   2.186   0.825   4.047  1.4543 -0.8398 -0.0751
 8051WAT     H232925   2.221   0.957   4.040 -0.8988 -0.1834 -0.3026
 8051WAT    EPW32926   2.239   0.881   4.037  0.4908  0.1160 -0.0397
 8052WAT      O32927   7.043   6.850   3.401 -0.1828  0.1576  0.2829
 8052WAT     H132928   7.032   6.786   3.342 -1.3679  0.2670  0.3788
 8052WAT     H232929   7.077   6.915   3.354  3.7841 -1.3547  0.6426
 8052WAT    EPW32930   7.047   6.850   3.385  0.2281 -0.0497  0.3502
 8053WAT      O32931   2.554   4.456   1.637  0.0020  0.7706  0.1452
 8053WAT     H132932   2.586   4.493   1.710 -0.7871  1.6341  0.0765
 8053WAT     H232933   2.625   4.429   1.595  0.5620  1.4810  0.6061
 8053WAT    EPW32934   2.569   4.458   1.642 -0.0319  1.0031  0.2031
 8054WAT      O32935   2.758   7.222   0.950 -0.5854 -0.1482  0.0656
 8054WAT     H132936   2.729   7.280   0.892 -0.1378 -0.7155 -0.7523
 8054WAT     H232937   2.844   7.234   0.948 -0.6727  1.4919  2.4334
 8054WAT    EPW32938   2.766   7.232   0.941 -0.5322  0.0103  0.2945
 8055WAT      O32939   0.638   0.938   4.440 -0.3288 -0.1887 -0.4105
 8055WAT     H132940   0.721   0.967   4.434 -0.5819  0.3632 -1.6770
 8055WAT     H232941   0.597   1.003   4.481 -0.5520  0.5358 -1.7312
 8055WAT    EPW32942   0.644   0.952   4.445 -0.3992 -0.0001 -0.7927
 8056WAT      O32943   5.335   6.849   1.487 -0.4235  0.1952  0.3146
 8056WAT     H132944   5.254   6.868   1.511 -0.4320  1.5634 -0.7102
 8056WAT     H232945   5.380   6.922   1.506  0.8573 -0.9506  2.0291
 8056WAT    EPW32946   5.330   6.863   1.493 -0.2356  0.2280  0.4165
 8057WAT      O32947   3.075   6.408   6.456  0.5790 -0.7384  0.7253
 8057WAT     H132948   3.016   6.434   6.397  0.8418 -0.0068  0.7714
 8057WAT     H232949   3.081   6.322   6.442  0.4505 -0.6217 -0.1482
 8057WAT    EPW32950   3.067   6.399   6.445  0.5989 -0.6131  0.6031
 8058WAT      O32951   0.003   6.824   0.972 -0.4126 -0.0522  0.5825
 8058WAT     H132952  -0.060   6.834   0.913 -0.6137 -0.7626  0.6709
 8058WAT     H232953   0.075   6.847   0.929 -0.5992 -0.2390  0.1652
 8058WAT    EPW32954   0.004   6.829   0.957 -0.4699 -0.1847  0.5339
 8059WAT      O32955   1.012   1.244   0.935  0.5854  0.1752  0.4487
 8059WAT     H132956   0.978   1.232   1.014  1.4483  0.3974  0.8643
 8059WAT     H232957   0.942   1.244   0.882 -0.3361  3.0201  1.5063
 8059WAT    EPW32958   0.997   1.242   0.939  0.5767  0.6282  0.6663
 8060WAT      O32959   1.044   6.962   6.492  0.0111 -0.0935  0.3480
 8060WAT     H132960   1.051   6.981   6.407  1.1525 -2.0038 -0.0528
 8060WAT     H232961   1.018   7.037   6.528  1.2938  1.2915 -1.4375
 8060WAT    EPW32962   1.041   6.976   6.485  0.3692 -0.1711  0.0250
 8061WAT      O32963   1.447   0.708   0.205 -0.3570  0.1388 -0.3031
 8061WAT     H132964   1.493   0.650   0.251 -1.4044 -2.0370 -1.8280
 8061WAT     H232965   1.499   0.778   0.203  2.1343 -1.5601 -0.4253
 8061WAT    EPW32966   1.462   0.709   0.211 -0.1437 -0.4336 -0.5464
 8062WAT      O32967   2.789   6.865   4.639  0.1077 -0.4048 -0.3313
 8062WAT     H132968   2.869   6.831   4.629  1.1299  1.2881  1.3511
 8062WAT     H232969   2.776   6.863   4.725 -1.5169 -0.2829 -0.5378
 8062WAT    EPW32970   2.799   6.860   4.650  0.0187 -0.1367 -0.1133
 8063WAT      O32971   3.780   1.027   0.279 -0.0109 -0.0608 -0.0719
 8063WAT     H132972   3.793   1.026   0.365  0.5545  0.3800 -0.1456
 8063WAT     H232973   3.781   1.112   0.259  1.8205 -0.2040 -0.7862
 8063WAT    EPW32974   3.782   1.039   0.289  0.3432 -0.0168 -0.1883
 8064WAT      O32975   3.057   2.329   1.487  0.5317 -0.3670  0.5739
 8064WAT     H132976   3.065   2.379   1.416  0.1403 -1.0190  0.0691
 8064WAT     H232977   3.134   2.290   1.494  0.3953 -0.7072  0.1988
 8064WAT    EPW32978   3.070   2.331   1.478  0.4537 -0.5136  0.4439
 8065WAT      O32979   3.396   0.217   6.796 -0.0478  0.2140 -0.0741
 8065WAT     H132980   3.417   0.188   6.875  0.3511  0.0261 -0.2458
 8065WAT     H232981   3.349   0.152   6.762  0.9673 -0.3192 -0.5130
 8065WAT    EPW32982   3.392   0.203   6.803  0.1611  0.1075 -0.1643
 8066WAT      O32983   2.169   5.346   6.208  0.7529  0.8378 -0.0465
 8066WAT     H132984   2.255   5.348   6.221  0.7363  0.7106  0.0901
 8066WAT     H232985   2.161   5.309   6.129  0.9754  3.9579 -1.6965
 8066WAT    EPW32986   2.180   5.340   6.198  0.7833  1.2799 -0.2700
 8067WAT      O32987   4.470   1.736   1.241 -0.4800  0.3411 -0.3495
 8067WAT     H132988   4.458   1.679   1.176 -0.4707 -0.8235  0.6389
 8067WAT     H232989   4.481   1.812   1.200 -0.5383 -0.3560 -1.7012
 8067WAT    EPW32990   4.470   1.738   1.226 -0.4873  0.0661 -0.4032
 8068WAT      O32991   2.484   2.338   5.810  0.3424  0.0375 -0.6860
 8068WAT     H132992   2.470   2.409   5.859  0.1651 -0.8326  0.5847
 8068WAT     H232993   2.404   2.313   5.787  0.0275 -1.7555  1.9119
 8068WAT    EPW32994   2.470   2.345   5.814  0.2697 -0.3559 -0.1145
 8069WAT      O32995   6.808   6.332   5.774  0.3430 -0.2523  0.0190
 8069WAT     H132996   6.727   6.324   5.803  0.1115  1.4819 -0.0081
 8069WAT     H232997   6.801   6.317   5.688  0.0479 -0.1433  0.0229
 8069WAT    EPW32998   6.795   6.329   5.765  0.2652  0.0200  0.0156
 8070WAT      O32999   2.739   5.449   2.049  0.0792  0.5412  0.5593
 8070WAT     H133000   2.715   5.503   2.113  0.2383  0.7688  0.4305
 8070WAT     H233001   2.740   5.501   1.979  0.0266  0.3207  0.3947
 8070WAT    EPW33002   2.735   5.465   2.048  0.0949  0.5422  0.5159
 8071WAT      O33003   4.125   6.136   6.835  0.0627  0.2082 -0.5115
 8071WAT     H133004   4.064   6.087   6.873  1.5249 -0.8358  0.5994
 8071WAT     H233005   4.117   6.214   6.874 -1.7350  0.6818 -1.7100
 8071WAT    EPW33006   4.115   6.141   6.847  0.0131  0.1240 -0.5244
 8072WAT      O33007   3.510   0.856   0.271  0.4520 -0.1834 -0.1476
 8072WAT     H133008   3.543   0.780   0.298  1.4095 -0.3618 -1.7110
 8072WAT     H233009   3.578   0.911   0.274  0.0279  0.3449 -0.0381
 8072WAT    EPW33010   3.525   0.853   0.276  0.5308 -0.1317 -0.3624
 8073WAT      O33011   2.260   6.038   5.803  0.0601  0.3746  0.1120
 8073WAT     H133012   2.222   5.959   5.799 -1.0707  0.9226 -0.6303
 8073WAT     H233013   2.331   6.024   5.851  0.3221 -1.2698 -0.6613
 8073WAT    EPW33014   2.265   6.024   5.809 -0.0683  0.2126 -0.1119
 8074WAT      O33015   2.150   3.226   3.401  0.4009 -0.2395  0.0903
 8074WAT     H133016   2.164   3.277   3.331  0.3862 -0.5211 -0.1164
 8074WAT     H233017   2.102   3.161   3.370 -0.5903  0.2333  0.6002
 8074WAT    EPW33018   2.145   3.224   3.386  0.2523 -0.2113  0.1351
 8075WAT      O33019   6.845   1.587   2.760 -0.4082  0.1147 -0.1460
 8075WAT     H133020   6.764   1.554   2.749 -0.3129  0.2360 -1.3230
 8075WAT     H233021   6.836   1.640   2.829 -1.4957  0.6424 -0.6657
 8075WAT    EPW33022   6.832   1.590   2.768 -0.5547  0.2106 -0.3967
 8076WAT      O33023   5.592   0.010   0.455 -0.3554  0.0689  0.0142
 8076WAT     H133024   5.514   0.035   0.424  0.2246 -0.2389 -1.8456
 8076WAT     H233025   5.583   0.015   0.541 -3.2474 -2.3350 -0.0011
 8076WAT    EPW33026   5.579   0.015   0.463 -0.6969 -0.3317 -0.2628
 8077WAT      O33027   5.124   4.084   2.115  0.0089  0.3993  0.1955
 8077WAT     H133028   5.119   4.063   2.200  0.5739  2.0830  0.6935
 8077WAT     H233029   5.053   4.133   2.102 -0.2149 -0.0653 -0.3908
 8077WAT    EPW33030   5.113   4.088   2.126  0.0593  0.5794  0.1825
 8078WAT      O33031   5.063   0.175   6.643 -0.5488  0.3189  0.3756
 8078WAT     H133032   5.047   0.197   6.560 -1.4266  0.3604  0.5374
 8078WAT     H233033   5.130   0.225   6.666  0.3528 -0.4050 -0.6106
 8078WAT    EPW33034   5.070   0.185   6.634 -0.5452  0.2181  0.2538
 8079WAT      O33035   6.200   5.013   4.761 -0.1788  0.1219 -0.1479
 8079WAT     H133036   6.168   4.936   4.736  1.2387 -0.3796 -0.5152
 8079WAT     H233037   6.232   4.997   4.841  0.6214  0.1727 -0.4519
 8079WAT    EPW33038   6.200   4.999   4.769  0.1488  0.0554 -0.2470
 8080WAT      O33039   1.909   3.473   2.561  0.6527  0.0209  0.3446
 8080WAT     H133040   1.844   3.460   2.617  0.9234 -0.2424  0.6015
 8080WAT     H233041   1.883   3.541   2.514  0.3786  0.1753  0.7229
 8080WAT    EPW33042   1.895   3.481   2.562  0.6522  0.0048  0.4384
 8081WAT      O33043   2.564   5.330   7.152 -0.1754  0.4135 -0.1074
 8081WAT     H133044   2.498   5.329   7.209 -1.4665 -0.6217 -1.5400
 8081WAT     H233045   2.635   5.333   7.203 -1.2892  2.1437  1.4767
 8081WAT    EPW33046   2.565   5.330   7.168 -0.5306  0.5162 -0.0850
 8082WAT      O33047   2.265   2.797   2.964  0.3756 -0.2311  0.3608
 8082WAT     H133048   2.211   2.811   2.896 -1.3726  0.2346  1.7778
 8082WAT     H233049   2.330   2.854   2.950 -0.5690  0.7264 -0.2878
 8082WAT    EPW33050   2.267   2.807   2.952 -0.0222 -0.0208  0.4743
 8083WAT      O33051   5.631   2.418   0.233 -0.4298  0.1827  0.5155
 8083WAT     H133052   5.669   2.416   0.312 -1.8699 -1.0561  1.2478
 8083WAT     H233053   5.548   2.438   0.251 -1.6760 -3.5675 -0.1656
 8083WAT    EPW33054   5.625   2.420   0.247 -0.8266 -0.5543  0.5231
 8084WAT      O33055   1.720   0.842   2.142 -0.1312  0.5382  0.0389
 8084WAT     H133056   1.728   0.828   2.227 -0.9582  2.4522  0.4716
 8084WAT     H233057   1.795   0.813   2.109  0.7942  1.0856  1.5891
 8084WAT    EPW33058   1.732   0.835   2.149 -0.1167  0.9018  0.3318
 8085WAT      O33059   0.702   3.217   0.940  0.4764 -0.3352  0.1719
 8085WAT     H133060   0.682   3.302   0.943 -0.0302 -0.3696 -1.3815
 8085WAT     H233061   0.627   3.178   0.962  0.6987 -0.3799  0.8483
 8085WAT    EPW33062   0.688   3.224   0.944  0.4344 -0.3469  0.0423
 8086WAT      O33063   4.658   2.026   6.029  0.3477  0.0810  0.0337
 8086WAT     H133064   4.737   1.989   6.022 -0.0357 -0.5585 -1.1957
 8086WAT     H233065   4.638   2.017   6.113  2.1092  1.3916  0.6586
 8086WAT    EPW33066   4.667   2.019   6.040  0.5513  0.1801 -0.0556
 8087WAT      O33067   4.304   3.122   0.510 -0.2842  0.2276  0.8555
 8087WAT     H133068   4.265   3.056   0.551  3.1433 -3.2821 -0.8024
 8087WAT     H233069   4.275   3.115   0.428  0.6260  0.2764  0.5140
 8087WAT    EPW33070   4.294   3.111   0.504  0.3566 -0.2836  0.5602
 8088WAT      O33071   0.550   4.352   4.387 -0.4742  0.3855  0.2201
 8088WAT     H133072   0.581   4.393   4.457  2.0348  0.8252 -1.0456
 8088WAT     H233073   0.507   4.283   4.421 -0.3554  1.2113  2.1773
 8088WAT    EPW33074   0.548   4.348   4.403 -0.0860  0.5725  0.3223
 8089WAT      O33075   5.969   2.380   3.353  0.7499  0.4070 -0.5698
 8089WAT     H133076   5.987   2.456   3.313  1.0232  1.2350  1.0721
 8089WAT     H233077   6.002   2.390   3.433 -2.2813 -0.0403  0.8964
 8089WAT    EPW33078   5.976   2.393   3.359  0.3425  0.4633 -0.1107
 8090WAT      O33079   0.087   2.479   1.768  0.5495 -0.3371 -0.3816
 8090WAT     H133080   0.042   2.493   1.841 -1.0870 -1.0039 -1.2108
 8090WAT     H233081   0.157   2.530   1.776  1.1718 -1.4632  2.2766
 8090WAT    EPW33082   0.090   2.488   1.780  0.3997 -0.6019 -0.1114
 8091WAT      O33083   4.190   5.712   6.840 -0.6717  0.0140  0.3828
 8091WAT     H133084   4.156   5.694   6.918 -1.7530 -0.9946 -0.2858
 8091WAT     H233085   4.271   5.739   6.858 -0.9241 -0.1467  1.8420
 8091WAT    EPW33086   4.197   5.713   6.854 -0.8687 -0.1587  0.4996
 8092WAT      O33087   5.794   2.657   4.481 -0.5147  0.3396 -0.6531
 8092WAT     H133088   5.836   2.590   4.519  0.0723  1.6332  1.1252
 8092WAT     H233089   5.762   2.701   4.549 -2.9760  0.5941 -1.8810
 8092WAT    EPW33090   5.795   2.653   4.497 -0.7916  0.5683 -0.5718
 8093WAT      O33091   5.542   6.672   5.400  0.1452 -0.1417  0.0852
 8093WAT     H133092   5.457   6.686   5.415  0.1946  0.5642 -0.2772
 8093WAT     H233093   5.580   6.746   5.427  0.9941 -1.5321  3.1048
 8093WAT    EPW33094   5.535   6.685   5.406  0.2779 -0.2428  0.4777
 8094WAT      O33095   1.187   6.091   5.055  0.5488 -0.0616 -0.0336
 8094WAT     H133096   1.109   6.106   5.020  1.1537  0.0973 -1.3883
 8094WAT     H233097   1.185   6.135   5.130 -0.5343  0.2173 -0.2108
 8094WAT    EPW33098   1.176   6.100   5.061  0.4782  0.0031 -0.2599
 8095WAT      O33099   6.978   5.277   1.421 -0.5137 -0.3905  0.6861
 8095WAT     H133100   6.946   5.269   1.341 -0.5940  2.6769  0.2988
 8095WAT     H233101   7.059   5.308   1.408 -0.6057  0.3663  1.7827
 8095WAT    EPW33102   6.985   5.280   1.407 -0.5392  0.1744  0.7909
 8096WAT      O33103   0.355   1.157   3.204 -0.5362 -0.0611  0.4849
 8096WAT     H133104   0.361   1.238   3.173  0.5202 -0.4324 -0.3592
 8096WAT     H233105   0.434   1.142   3.238 -0.8716 -0.5730  1.0634
 8096WAT    EPW33106   0.367   1.167   3.205 -0.4297 -0.1915  0.4457
 8097WAT      O33107   4.807   5.232   4.242  0.3847  0.2180  0.3145
 8097WAT     H133108   4.721   5.222   4.248  0.3822 -2.3889 -2.0066
 8097WAT     H233109   4.837   5.202   4.319 -0.6999 -1.0844  0.2507
 8097WAT    EPW33110   4.799   5.226   4.255  0.2241 -0.3595 -0.0378
 8098WAT      O33111   4.514   0.838   1.599  0.2752 -0.2745  0.1892
 8098WAT     H133112   4.585   0.787   1.593  1.8518  1.8239 -0.1791
 8098WAT     H233113   4.515   0.864   1.683  1.3986  1.6280 -0.3611
 8098WAT    EPW33114   4.525   0.834   1.611  0.6740  0.3165  0.0535
 8099WAT      O33115   3.726   6.251   4.305  0.3357 -0.2850  0.2390
 8099WAT     H133116   3.766   6.316   4.262  2.4702 -1.7067 -0.1084
 8099WAT     H233117   3.655   6.236   4.258  0.9270  0.3823 -0.9119
 8099WAT    EPW33118   3.722   6.259   4.292  0.7383 -0.3964  0.0177
 8100WAT      O33119   5.465   6.172   4.636  0.4098 -0.2129  0.1967
 8100WAT     H133120   5.379   6.164   4.625  0.5887 -0.3568 -1.4079
 8100WAT     H233121   5.486   6.102   4.683 -0.1978 -0.8575 -0.4576
 8100WAT    EPW33122   5.455   6.161   4.641  0.3465 -0.3294 -0.1370
 8101WAT      O33123   4.670   0.392   1.596 -0.0509 -0.4945  0.2792
 8101WAT     H133124   4.600   0.369   1.643  0.9297 -1.5425  1.2761
 8101WAT     H233125   4.736   0.353   1.637  0.9974 -0.4228 -1.2741
 8101WAT    EPW33126   4.669   0.383   1.609  0.2488 -0.6387  0.1970
 8102WAT      O33127   5.697   5.382   2.495  0.3800  0.3280 -0.1681
 8102WAT     H133128   5.666   5.434   2.557  0.2711 -1.1626  1.1177
 8102WAT     H233129   5.664   5.304   2.516 -0.2497 -0.1204 -2.5633
 8102WAT    EPW33130   5.688   5.378   2.507  0.2709  0.0416 -0.3319
 8103WAT      O33131   1.397   1.865   3.301 -0.5434 -0.0536 -0.0520
 8103WAT     H133132   1.479   1.863   3.332 -0.5916 -1.7027  0.0288
 8103WAT     H233133   1.390   1.792   3.255 -1.7871  0.3785 -0.5942
 8103WAT    EPW33134   1.408   1.854   3.299 -0.7342 -0.2334 -0.1202
 8104WAT      O33135   0.468   1.239   2.345 -0.0563  0.1442 -0.1817
 8104WAT     H133136   0.517   1.235   2.273 -1.2999 -0.2291 -1.0333
 8104WAT     H233137   0.525   1.222   2.409  1.0691  0.4535 -1.0617
 8104WAT    EPW33138   0.484   1.236   2.344 -0.0738  0.1347 -0.4375
 8105WAT      O33139   6.675   2.987   0.028 -0.0038 -0.1729  0.5056
 8105WAT     H133140   6.628   2.996  -0.045  2.4432 -1.0966 -1.3065
 8105WAT     H233141   6.662   3.063   0.069 -0.1781  1.0908 -1.7091
 8105WAT    EPW33142   6.666   3.000   0.023  0.3319 -0.1227 -0.0893
 8106WAT      O33143   6.544   1.048   4.293 -0.2415  0.2513  0.0694
 8106WAT     H133144   6.564   1.125   4.257 -2.9638  1.2737  0.5041
 8106WAT     H233145   6.505   1.004   4.229  0.1452 -0.2771  0.1869
 8106WAT    EPW33146   6.541   1.053   4.279 -0.5865  0.3243  0.1510
 8107WAT      O33147   6.000   2.488   2.915 -0.2121  0.1935  0.5389
 8107WAT     H133148   6.034   2.515   2.839 -0.6412  1.7580  0.8603
 8107WAT     H233149   5.996   2.561   2.962 -2.3467 -0.2513  1.1479
 8107WAT    EPW33150   6.004   2.503   2.911 -0.5908  0.3589  0.6763
 8108WAT      O33151   2.816   0.502   3.702  0.3243 -0.0552  0.6884
 8108WAT     H133152   2.761   0.460   3.755 -1.0323  0.1197 -0.5127
 8108WAT     H233153   2.796   0.586   3.715 -1.2810 -0.0388 -1.2578
 8108WAT    EPW33154   2.805   0.508   3.711 -0.1132 -0.0270  0.2235
 8109WAT      O33155   6.782   3.538   7.265  0.0620 -0.4005 -0.0447
 8109WAT     H133156   6.843   3.570   7.211 -1.5885  0.4188 -1.5278
 8109WAT     H233157   6.718   3.597   7.261 -0.3711 -0.5731  2.4526
 8109WAT    EPW33158   6.782   3.552   7.256 -0.2458 -0.3050  0.1051
 8110WAT      O33159   2.143   6.592   4.502  0.8379  0.5380  0.3044
 8110WAT     H133160   2.148   6.554   4.423  1.2483  0.3539  0.4134
 8110WAT     H233161   2.083   6.654   4.491  0.7217  0.3637 -0.0912
 8110WAT    EPW33162   2.135   6.595   4.489  0.8814  0.4850  0.2621
 8111WAT      O33163   5.034   1.242   6.956  0.0415  0.7903  0.2192
 8111WAT     H133164   5.046   1.243   7.043  2.1603  0.7129 -0.0256
 8111WAT     H233165   5.005   1.161   6.941  0.6441  0.4584  0.7601
 8111WAT    EPW33166   5.032   1.230   6.967  0.4435  0.7299  0.2629
 8112WAT      O33167   6.442   1.748   7.283 -0.2140  0.1971 -0.1639
 8112WAT     H133168   6.493   1.722   7.349 -1.0378  0.4775  0.5968
 8112WAT     H233169   6.472   1.828   7.264 -0.6050  0.5208  0.5400
 8112WAT    EPW33170   6.454   1.756   7.290 -0.3935  0.2863  0.0525
 8113WAT      O33171   2.565   5.416   2.618  0.2135  0.0894 -0.0857
 8113WAT     H133172   2.630   5.468   2.592 -0.5450  0.3160 -1.6659
 8113WAT     H233173   2.605   5.346   2.650  1.2313  0.4043 -0.6436
 8113WAT    EPW33174   2.580   5.413   2.619  0.2518  0.1694 -0.4015
 8114WAT      O33175   4.662   7.143   2.639  0.3164  0.0677 -0.2660
 8114WAT     H133176   4.722   7.096   2.682 -0.7804  0.4321  1.7894
 8114WAT     H233177   4.689   7.226   2.650 -0.3014  0.2049  0.3202
 8114WAT    EPW33178   4.675   7.149   2.647  0.0631  0.1418  0.1243
 8115WAT      O33179   6.001   3.957   4.575  0.2114 -0.0805 -0.4864
 8115WAT     H133180   5.998   3.953   4.488 -1.0333  0.5614 -0.5018
 8115WAT     H233181   6.075   4.000   4.592  0.1655  0.3064 -1.2498
 8115WAT    EPW33182   6.011   3.963   4.565  0.0207  0.0715 -0.6014
 8116WAT      O33183   5.338   1.640   3.155  0.5578  0.3918  0.2818
 8116WAT     H133184   5.418   1.674   3.161  0.2621  1.4654 -1.3940
 8116WAT     H233185   5.299   1.665   3.229  1.5652  0.3639  0.8351
 8116WAT    EPW33186   5.344   1.648   3.167  0.6629  0.5462  0.1160
 8117WAT      O33187   0.514   3.043   5.502 -0.0201  0.2450 -0.3041
 8117WAT     H133188   0.530   3.058   5.587 -1.3552 -0.4984  0.1155
 8117WAT     H233189   0.576   2.986   5.479 -0.2030 -0.2671  0.4333
 8117WAT    EPW33190   0.525   3.037   5.511 -0.2444  0.0595 -0.1332
 8118WAT      O33191   4.805   3.678   3.387  0.3476 -0.2014 -0.3982
 8118WAT     H133192   4.732   3.682   3.340  0.5859  2.5311 -0.7066
 8118WAT     H233193   4.867   3.658   3.329  0.0836 -0.9216 -0.4370
 8118WAT    EPW33194   4.803   3.675   3.372  0.3438  0.0959 -0.4495
 8119WAT      O33195   0.222   4.379   1.231  0.4743 -0.2082 -0.3836
 8119WAT     H133196   0.266   4.372   1.306 -0.0109 -1.6649 -0.2090
 8119WAT     H233197   0.261   4.446   1.191  1.8745 -0.5017  0.4130
 8119WAT    EPW33198   0.234   4.388   1.236  0.6095 -0.4667 -0.2401
 8120WAT      O33199   5.824   1.331   0.855  0.0678 -0.5233  0.5324
 8120WAT     H133200   5.746   1.351   0.889  0.0497 -0.1913  0.2994
 8120WAT     H233201   5.866   1.407   0.854 -0.7765  0.0347 -2.4080
 8120WAT    EPW33202   5.818   1.345   0.860 -0.0596 -0.3919  0.0637
 8121WAT      O33203   2.947   3.469   4.911 -0.2484 -0.3482  0.1687
 8121WAT     H133204   2.925   3.552   4.895  0.3853  0.0303  1.2065
 8121WAT     H233205   2.910   3.452   4.989  2.6948  0.2056  1.8353
 8121WAT    EPW33206   2.938   3.478   4.920  0.2800 -0.2105  0.5682
 8122WAT      O33207   4.846   5.749   2.280  0.9326  0.6164 -0.2674
 8122WAT     H133208   4.906   5.711   2.331  0.0571 -0.2464  0.1388
 8122WAT     H233209   4.840   5.830   2.312  1.3554  0.4876  0.1465
 8122WAT    EPW33210   4.854   5.755   2.292  0.8658  0.4699 -0.1463
 8123WAT      O33211   0.902   4.540   1.467  0.6431 -0.4051 -0.0253
 8123WAT     H133212   0.911   4.627   1.475 -2.2249  0.0538 -0.4570
 8123WAT     H233213   0.926   4.525   1.384 -2.0661  0.6982 -1.1579
 8123WAT    EPW33214   0.907   4.551   1.456 -0.1808 -0.1743 -0.2564
 8124WAT      O33215   3.459   5.800   2.009  0.1134  0.0900 -0.1844
 8124WAT     H133216   3.431   5.800   2.092  0.7466  1.1246  0.0517
 8124WAT     H233217   3.385   5.809   1.963 -0.4686 -2.4912  0.1209
 8124WAT    EPW33218   3.444   5.801   2.014  0.1209 -0.1385 -0.1044
 8125WAT      O33219   2.720   4.561   6.579 -0.1841  0.1688  0.2302
 8125WAT     H133220   2.699   4.477   6.584 -0.3782  0.0984 -1.2154
 8125WAT     H233221   2.793   4.562   6.531 -0.3908  0.8340 -0.0943
 8125WAT    EPW33222   2.728   4.549   6.573 -0.2433  0.2567 -0.0313
 8126WAT      O33223   0.494   1.438   0.382 -0.5238  0.0156 -0.0486
 8126WAT     H133224   0.407   1.435   0.374 -0.6936 -2.2210  1.6722
 8126WAT     H233225   0.519   1.356   0.367  0.8753 -0.1836  2.6398
 8126WAT    EPW33226   0.485   1.425   0.379 -0.3422 -0.3442  0.6028
 8127WAT      O33227   7.150   2.571   5.495  0.0882  0.2144 -0.1212
 8127WAT     H133228   7.089   2.510   5.507 -1.1202  0.7789 -2.5241
 8127WAT     H233229   7.125   2.610   5.420  3.2637  0.6542 -1.1242
 8127WAT    EPW33230   7.137   2.568   5.485  0.3788  0.3628 -0.6243
 8128WAT      O33231   7.241   6.925   5.017 -0.2102  0.0959 -0.4514
 8128WAT     H133232   7.217   6.904   4.936  3.5592 -1.0291 -1.5100
 8128WAT     H233233   7.248   6.847   5.057  1.8936  0.2101 -0.4591
 8128WAT    EPW33234   7.239   6.910   5.011  0.6574 -0.0534 -0.6089
 8129WAT      O33235   0.489   0.415   5.072 -0.2688  0.1619  0.2037
 8129WAT     H133236   0.494   0.500   5.052 -1.3380  0.2512  0.2392
 8129WAT     H233237   0.405   0.396   5.057 -0.0313 -0.9001  0.1670
 8129WAT    EPW33238   0.477   0.425   5.067 -0.3916  0.0182  0.2035
 8130WAT      O33239   1.298   4.621   1.362 -0.0423  0.2149 -0.0045
 8130WAT     H133240   1.223   4.582   1.342 -0.0053 -0.4339  1.0773
 8130WAT     H233241   1.320   4.662   1.288 -1.0175 -0.2947 -0.5916
 8130WAT    EPW33242   1.290   4.622   1.348 -0.1808  0.0438  0.0686
 8131WAT      O33243   2.863   3.063   6.873 -0.0564 -0.0175 -0.5159
 8131WAT     H133244   2.900   3.091   6.799 -1.7895 -1.0713 -1.8525
 8131WAT     H233245   2.811   2.998   6.847  0.2685 -1.3413  1.8273
 8131WAT    EPW33246   2.861   3.058   6.858 -0.2644 -0.3687 -0.3672
 8132WAT      O33247   0.065   6.721   1.747 -0.3826  0.3386 -0.2198
 8132WAT     H133248  -0.012   6.729   1.789 -0.4402  1.4941 -0.4914
 8132WAT     H233249   0.108   6.793   1.772  0.1104  0.3428 -1.0750
 8132WAT    EPW33250   0.060   6.733   1.757 -0.3183  0.5099 -0.3863
 8133WAT      O33251   2.098   0.364   0.283  0.0783 -0.1828 -0.2152
 8133WAT     H133252   2.142   0.405   0.346 -0.0268 -1.1861  0.5313
 8133WAT     H233253   2.015   0.380   0.302  0.0593 -0.0210 -0.4287
 8133WAT    EPW33254   2.092   0.373   0.295  0.0600 -0.3071 -0.1365
 8134WAT      O33255   2.552   3.944   6.084 -0.1760  0.8533 -0.6869
 8134WAT     H133256   2.623   3.901   6.056 -1.0810 -0.5311 -0.9257
 8134WAT     H233257   2.503   3.952   6.012 -0.7318  0.8699 -0.3128
 8134WAT    EPW33258   2.555   3.939   6.069 -0.3918  0.6512 -0.6669
 8135WAT      O33259   3.371   4.586   3.716 -0.0047 -0.1899 -0.1879
 8135WAT     H133260   3.346   4.669   3.704 -0.0238 -0.2509 -0.5705
 8135WAT     H233261   3.420   4.590   3.788 -0.2951  0.0944 -0.0011
 8135WAT    EPW33262   3.374   4.599   3.725 -0.0504 -0.1569 -0.2168
 8136WAT      O33263   4.954   2.883   4.376  0.6549  0.2605 -0.0375
 8136WAT     H133264   4.893   2.850   4.428 -1.9218  1.8981 -1.7920
 8136WAT     H233265   5.000   2.935   4.427 -0.4433  0.2215  1.0227
 8136WAT    EPW33266   4.952   2.886   4.391  0.1120  0.4967 -0.1400
 8137WAT      O33267   7.064   7.113   3.308  0.1421  0.1309  0.0882
 8137WAT     H133268   7.043   7.196   3.293 -2.9860 -0.2758  1.4055
 8137WAT     H233269   7.119   7.118   3.376  1.8154  1.1446 -1.2637
 8137WAT    EPW33270   7.069   7.126   3.316 -0.0728  0.2206  0.0831
 8138WAT      O33271   4.539   4.299   0.936 -0.1723 -0.0805  0.0332
 8138WAT     H133272   4.509   4.352   0.998 -0.5042 -1.6224  1.2417
 8138WAT     H233273   4.614   4.269   0.968  0.9124  0.9268 -1.3942
 8138WAT    EPW33274   4.546   4.303   0.950 -0.0611 -0.1595  0.0008
 8139WAT      O33275   1.053   2.229   5.838 -0.1016  0.6300 -0.4484
 8139WAT     H133276   1.081   2.268   5.910 -1.5875  1.3800 -0.2446
 8139WAT     H233277   1.125   2.223   5.789  1.0990 -0.4847  1.3025
 8139WAT    EPW33278   1.068   2.234   5.841 -0.1437  0.5761 -0.1596
 8140WAT      O33279   1.486   2.408   1.234 -0.3198  0.3753 -0.0103
 8140WAT     H133280   1.530   2.473   1.270  0.0952  0.9707 -1.5098
 8140WAT     H233281   1.405   2.418   1.266  0.0272  0.8697  0.7309
 8140WAT    EPW33282   1.480   2.419   1.244 -0.2073  0.5363 -0.1223
 8141WAT      O33283   0.244   7.203   4.083 -0.2189  0.5654  0.5250
 8141WAT     H133284   0.200   7.139   4.042  0.4505  0.7151 -0.4488
 8141WAT     H233285   0.318   7.164   4.107  0.5457  1.1498 -0.7816
 8141WAT    EPW33286   0.249   7.188   4.080 -0.0070  0.6738  0.1882
 8142WAT      O33287   0.689   4.205   3.495  0.4507  0.4816  0.2999
 8142WAT     H133288   0.650   4.214   3.572 -1.5563 -0.6016 -0.4810
 8142WAT     H233289   0.626   4.170   3.445  1.3969  1.9296 -2.0577
 8142WAT    EPW33290   0.674   4.201   3.499  0.2940  0.5355 -0.1637
 8143WAT      O33291   2.424   3.836   2.824  0.3223 -0.5528 -0.0933
 8143WAT     H133292   2.420   3.766   2.771 -1.8449 -2.8080  2.6823
 8143WAT     H233293   2.470   3.807   2.892  0.8596  1.3893  0.4346
 8143WAT    EPW33294   2.430   3.821   2.826  0.0815 -0.5991  0.3947
 8144WAT      O33295   6.743   0.937   6.807 -0.1251  0.7101  0.6547
 8144WAT     H133296   6.742   0.955   6.892 -1.8901 -0.1867  0.8737
 8144WAT     H233297   6.670   0.890   6.795  1.9178 -2.4686 -0.6184
 8144WAT    EPW33298   6.732   0.932   6.818 -0.0841  0.1081  0.4990
 8145WAT      O33299   1.816   4.230   2.239 -0.2625  0.0528  0.4825
 8145WAT     H133300   1.782   4.305   2.269  0.1747  0.8672 -0.9203
 8145WAT     H233301   1.840   4.250   2.157 -0.6232 -1.7826 -0.1253
 8145WAT    EPW33302   1.815   4.244   2.231 -0.2512 -0.0980  0.1855
 8146WAT      O33303   4.323   6.543   1.276 -0.0794 -0.0337 -0.1719
 8146WAT     H133304   4.339   6.608   1.332 -1.5253  0.7744 -0.6248
 8146WAT     H233305   4.316   6.473   1.327 -0.8836  0.6020  0.6395
 8146WAT    EPW33306   4.324   6.543   1.291 -0.4118  0.1796 -0.1190
 8147WAT      O33307   2.355   3.834   3.751  0.3221 -0.0669 -0.0553
 8147WAT     H133308   2.372   3.919   3.748  1.5898 -0.3094 -0.7151
 8147WAT     H233309   2.350   3.811   3.666 -0.7052 -0.5277  0.1132
 8147WAT    EPW33310   2.357   3.843   3.738  0.3576 -0.1708 -0.1279
 8148WAT      O33311   1.342   4.783   1.140 -0.0832 -0.1341  0.4321
 8148WAT     H133312   1.272   4.777   1.089 -0.3373 -2.4282  0.9135
 8148WAT     H233313   1.409   4.774   1.085 -0.2544 -0.2191  0.2388
 8148WAT    EPW33314   1.342   4.781   1.125 -0.1460 -0.4855  0.4747
 8149WAT      O33315   2.050   6.229   0.549  0.0957  0.1338  0.4488
 8149WAT     H133316   1.970   6.231   0.582 -0.0843  1.0313 -0.0176
 8149WAT     H233317   2.083   6.155   0.580 -1.2247 -0.7183 -0.0666
 8149WAT    EPW33318   2.043   6.218   0.558 -0.1259  0.1405  0.3038
 8150WAT      O33319   3.284   5.180   1.684 -0.1567 -0.1700 -0.4080
 8150WAT     H133320   3.336   5.126   1.639 -0.8006 -0.3122 -1.0033
 8150WAT     H233321   3.339   5.242   1.711  0.1084  0.5126 -2.3223
 8150WAT    EPW33322   3.300   5.181   1.681 -0.2127 -0.0902 -0.7787
 8151WAT      O33323   6.764   0.663   2.436 -0.5585 -0.0898  0.2808
 8151WAT     H133324   6.766   0.623   2.514 -1.1882  1.1074  0.9459
 8151WAT     H233325   6.703   0.725   2.446  0.3592  1.0294 -0.6929
 8151WAT    EPW33326   6.756   0.666   2.449 -0.5159  0.2524  0.2352
 8152WAT      O33327   6.005   6.778   6.996  0.5236 -0.5065  0.0968
 8152WAT     H133328   6.028   6.765   6.913  3.5020  1.5206  0.4677
 8152WAT     H233329   6.007   6.697   7.030  0.1342 -1.2577 -1.5393
 8152WAT    EPW33330   6.009   6.764   6.988  0.9060 -0.3180 -0.0901
 8153WAT      O33331   6.102   6.003   3.565  0.0826 -0.0726  0.3818
 8153WAT     H133332   6.112   5.961   3.641  1.1517  1.2624  1.0156
 8153WAT     H233333   6.123   5.942   3.506 -1.1024 -1.2354  1.1008
 8153WAT    EPW33334   6.107   5.988   3.568  0.0655 -0.0471  0.5816
 8154WAT      O33335   1.774   6.145   2.649  0.0970 -0.1010  0.0941
 8154WAT     H133336   1.840   6.192   2.615  0.2395 -1.0736 -1.0362
 8154WAT     H233337   1.807   6.113   2.722  1.1631 -1.1721 -0.8207
 8154WAT    EPW33338   1.788   6.147   2.655  0.2756 -0.4029 -0.2080
 8155WAT      O33339   6.992   2.038   5.157  0.2844 -0.1470  0.5124
 8155WAT     H133340   6.982   1.962   5.199 -0.3699 -1.2612 -1.5569
 8155WAT     H233341   7.044   2.018   5.090 -1.6021  0.6928 -1.2887
 8155WAT    EPW33342   6.998   2.024   5.154 -0.0910 -0.1876 -0.0593
 8156WAT      O33343   5.742   1.066   5.271 -0.2940  0.2655  0.9670
 8156WAT     H133344   5.795   1.012   5.228 -0.5440 -0.8927  2.0529
 8156WAT     H233345   5.663   1.048   5.240 -0.2438  0.9093  0.4420
 8156WAT    EPW33346   5.738   1.056   5.260 -0.3235  0.1895  1.0499
 8157WAT      O33347   2.627   3.981   6.807  0.0450 -0.2596  0.3416
 8157WAT     H133348   2.651   3.975   6.891  0.4944  1.5188  0.3646
 8157WAT     H233349   2.540   3.983   6.812  0.0886  0.7553  0.8472
 8157WAT    EPW33350   2.618   3.980   6.820  0.1178  0.1530  0.4197
 8158WAT      O33351   3.063   3.719   3.780  0.0139  0.1320 -0.3290
 8158WAT     H133352   3.098   3.796   3.800 -0.4267 -0.0576  1.3247
 8158WAT     H233353   2.980   3.727   3.806  0.2220 -1.2286  0.8326
 8158WAT    EPW33354   3.056   3.732   3.787 -0.0204 -0.0970  0.0869
 8159WAT      O33355   5.663   4.215   0.126 -0.5542  0.2813 -0.1097
 8159WAT     H133356   5.653   4.300   0.112 -3.7941 -0.0123 -0.4819
 8159WAT     H233357   5.642   4.179   0.049 -0.5730 -0.8815  0.4132
 8159WAT    EPW33358   5.658   4.222   0.113 -1.0356  0.0662 -0.0875
 8160WAT      O33359   5.159   6.095   6.199  0.2066  0.5214 -0.6129
 8160WAT     H133360   5.148   6.043   6.130  0.4409  1.1663 -1.1500
 8160WAT     H233361   5.226   6.146   6.175  0.9938  0.0553  0.5225
 8160WAT    EPW33362   5.167   6.095   6.185  0.3575  0.5478 -0.5245
 8161WAT      O33363   1.043   6.921   3.541 -0.3719 -0.4176 -1.3685
 8161WAT     H133364   1.023   7.006   3.545 -0.5756 -0.5040  0.2975
 8161WAT     H233365   0.986   6.884   3.596  1.6211 -1.2296  0.2761
 8161WAT    EPW33366   1.032   6.928   3.550 -0.1076 -0.5503 -0.8795
 8162WAT      O33367   6.894   4.957   6.279 -0.1516  0.4846  0.4641
 8162WAT     H133368   6.862   4.887   6.320  2.7072 -0.5601  1.1685
 8162WAT     H233369   6.864   5.024   6.326 -0.9825 -0.4157  1.2531
 8162WAT    EPW33370   6.885   4.957   6.292  0.1480  0.1973  0.6847
 8163WAT      O33371   6.024   4.856   6.824 -0.0096 -0.2531  0.3250
 8163WAT     H133372   6.003   4.929   6.781 -0.8349 -0.1067  0.9513
 8163WAT     H233373   5.949   4.832   6.861  0.7665 -0.1115  2.0870
 8163WAT    EPW33374   6.010   4.863   6.823 -0.0169 -0.2105  0.6778
 8164WAT      O33375   5.139   3.326   6.757 -0.4373 -0.1728  0.0534
 8164WAT     H133376   5.087   3.260   6.781 -0.4338 -0.1470  0.1340
 8164WAT     H233377   5.129   3.384   6.821 -2.6082  1.1299 -1.3168
 8164WAT    EPW33378   5.130   3.325   6.770 -0.7575  0.0234 -0.1371
 8165WAT      O33379   1.014   6.660   1.786 -0.4288 -0.0543 -0.2451
 8165WAT     H133380   1.089   6.693   1.816 -0.6557  0.4342 -0.2105
 8165WAT     H233381   0.995   6.596   1.843  0.0862 -0.3501 -0.3974
 8165WAT    EPW33382   1.022   6.655   1.799 -0.3863 -0.0258 -0.2625
 8166WAT      O33383   1.496   1.092   2.171  0.1484  0.0312 -0.6279
 8166WAT     H133384   1.467   1.025   2.217 -2.5163  1.3246 -0.2386
 8166WAT     H233385   1.583   1.084   2.174  0.0507 -0.9710  3.0254
 8166WAT    EPW33386   1.505   1.081   2.178 -0.2597  0.0742 -0.0307
 8167WAT      O33387   2.081   3.347   7.084  0.5163 -0.2046  0.1648
 8167WAT     H133388   2.081   3.434   7.091 -0.6028  0.1855 -3.0281
 8167WAT     H233389   2.039   3.321   7.157  1.2034  1.8401  1.3838
 8167WAT    EPW33390   2.075   3.356   7.096  0.4525  0.1551 -0.1268
 8168WAT      O33391   0.784   0.304   2.013 -0.2012  0.1046 -0.0469
 8168WAT     H133392   0.713   0.290   1.964 -0.7651  0.1070  0.7492
 8168WAT     H233393   0.779   0.242   2.074  0.7139 -0.1554 -0.2246
 8168WAT    EPW33394   0.772   0.293   2.015 -0.1494  0.0665  0.0445
 8169WAT      O33395   2.968   3.701   5.686 -0.0979 -0.9413  0.0761
 8169WAT     H133396   2.979   3.768   5.631 -1.2041  0.5094  1.4975
 8169WAT     H233397   2.886   3.711   5.714 -0.4189 -3.1438  0.0781
 8169WAT    EPW33398   2.958   3.713   5.682 -0.3087 -1.0523  0.2864
 8170WAT      O33399   6.999   5.835   2.962 -0.1706 -0.0066 -0.8532
 8170WAT     H133400   6.955   5.765   2.936  1.6789 -1.2326 -0.8809
 8170WAT     H233401   7.057   5.848   2.898  1.3475 -0.1952  0.4295
 8170WAT    EPW33402   7.001   5.827   2.949  0.3269 -0.2156 -0.6678
 8171WAT      O33403   3.695   2.329   0.501 -0.3112 -0.3237 -0.5674
 8171WAT     H133404   3.693   2.295   0.421 -0.0193 -1.0366 -0.2766
 8171WAT     H233405   3.616   2.366   0.510 -0.6583 -0.9804 -0.8601
 8171WAT    EPW33406   3.683   2.330   0.490 -0.3193 -0.5260 -0.5677
 8172WAT      O33407   4.599   6.631   4.464 -0.0884  0.0291 -0.2589
 8172WAT     H133408   4.532   6.634   4.407 -0.6969  0.5950  0.4646
 8172WAT     H233409   4.668   6.654   4.416 -0.5382  0.1836 -0.8445
 8172WAT    EPW33410   4.599   6.635   4.448 -0.2447  0.1355 -0.2385
 8173WAT      O33411   5.680   6.571   1.790 -0.2943  0.1332 -0.1867
 8173WAT     H133412   5.731   6.581   1.860  0.5998  0.1606 -0.8237
 8173WAT     H233413   5.641   6.648   1.782  0.6079  0.5687 -0.4834
 8173WAT    EPW33414   5.682   6.584   1.799 -0.0289  0.2016 -0.3246
 8174WAT      O33415   1.016   5.221   3.144 -0.3442 -0.3588  0.3417
 8174WAT     H133416   0.933   5.212   3.169 -0.4229 -0.1197  0.1634
 8174WAT     H233417   1.061   5.209   3.218 -0.4389 -2.1627  0.1707
 8174WAT    EPW33418   1.010   5.218   3.159 -0.3698 -0.5899  0.2901
 8175WAT      O33419   5.915   4.607   0.111  0.0452 -0.0975 -0.0302
 8175WAT     H133420   5.976   4.547   0.131 -0.1030  0.1704  1.3439
 8175WAT     H233421   5.942   4.678   0.155 -1.1649  0.0673  0.4733
 8175WAT    EPW33422   5.928   4.609   0.120 -0.1555 -0.0336  0.2472
 8176WAT      O33423   0.976   6.539   3.065 -0.5946 -0.3886 -0.1836
 8176WAT     H133424   0.998   6.603   3.010 -1.9232  0.5391  0.2971
 8176WAT     H233425   0.914   6.496   3.022 -1.8541  0.5254  0.6458
 8176WAT    EPW33426   0.970   6.542   3.051 -0.9769 -0.1165  0.0099
 8177WAT      O33427   4.540   1.072   6.223 -0.2629 -0.0460  0.2305
 8177WAT     H133428   4.527   1.037   6.302 -3.3002  1.5435  0.5755
 8177WAT     H233429   4.533   1.158   6.237 -3.9465  0.2738 -2.0274
 8177WAT    EPW33430   4.537   1.080   6.237 -1.2557  0.2361 -0.0521
 8178WAT      O33431   5.116   3.169   5.462  0.3491  0.1964 -0.2356
 8178WAT     H133432   5.203   3.165   5.457  0.2530 -2.1869 -2.2456
 8178WAT     H233433   5.099   3.152   5.545  1.8021 -1.2775 -0.2007
 8178WAT    EPW33434   5.126   3.166   5.473  0.5495 -0.3734 -0.5274
 8179WAT      O33435   4.042   2.134   6.794 -0.0803 -0.2333 -0.2030
 8179WAT     H133436   4.013   2.207   6.832  1.7697  0.3458  0.1769
 8179WAT     H233437   4.057   2.158   6.711 -2.5908 -1.0956 -1.0356
 8179WAT    EPW33438   4.040   2.148   6.787 -0.1779 -0.2751 -0.2698
 8180WAT      O33439   6.798   1.331   5.102  0.5533 -0.4465  0.3288
 8180WAT     H133440   6.843   1.336   5.027  1.3459  0.1345  0.8233
 8180WAT     H233441   6.714   1.333   5.076  0.8154  0.3247 -0.5127
 8180WAT    EPW33442   6.792   1.332   5.087  0.7091 -0.2467  0.2776
 8181WAT      O33443   6.234   1.213   2.963  0.0896 -0.3004  0.0135
 8181WAT     H133444   6.152   1.193   2.984  0.1190  0.6310  1.1506
 8181WAT     H233445   6.281   1.151   3.003 -0.1056 -2.9830 -3.4737
 8181WAT    EPW33446   6.229   1.201   2.972  0.0651 -0.5591 -0.3337
 8182WAT      O33447   6.986   0.542   3.547 -0.1403  0.4583  0.2171
 8182WAT     H133448   7.025   0.608   3.507 -2.9235  1.4438 -1.1751
 8182WAT     H233449   6.998   0.475   3.493  0.1183  0.6078  0.0889
 8182WAT    EPW33450   6.993   0.542   3.534 -0.5132  0.6260 -0.0075
 8183WAT      O33451   0.941   5.239   5.444 -0.7220  1.1034  0.4212
 8183WAT     H133452   0.925   5.174   5.388 -0.4885  0.6637  0.8595
 8183WAT     H233453   0.993   5.293   5.398  0.5100  0.1210  0.6206
 8183WAT    EPW33454   0.947   5.237   5.429 -0.5055  0.8933  0.5154
 8184WAT      O33455   0.854   1.073   0.462  0.4285 -0.2094 -0.7163
 8184WAT     H133456   0.912   1.076   0.397  2.2350 -0.1768  0.8371
 8184WAT     H233457   0.846   0.987   0.478  3.2817 -0.1391  1.7517
 8184WAT    EPW33458   0.861   1.061   0.455  1.1168 -0.1942 -0.1223
 8185WAT      O33459   4.002   1.910   3.907  0.3039 -0.6835  0.3915
 8185WAT     H133460   3.984   1.888   3.825 -0.3308  2.4016 -0.4124
 8185WAT     H233461   3.923   1.920   3.943  0.3882  2.4394 -0.0462
 8185WAT    EPW33462   3.987   1.908   3.901  0.2226  0.2336  0.2081
 8186WAT      O33463   7.155   5.072   6.965  0.4257 -0.2186 -0.5086
 8186WAT     H133464   7.101   5.006   6.948 -0.5571  0.8726 -1.8422
 8186WAT     H233465   7.231   5.032   6.984 -0.7996 -1.7762  1.3813
 8186WAT    EPW33466   7.158   5.056   6.965  0.0995 -0.2875 -0.4264
 8187WAT      O33467   3.369   1.069   4.959 -0.3530  0.4290  0.4548
 8187WAT     H133468   3.369   1.062   5.046 -1.9528 -2.4075  0.3627
 8187WAT     H233469   3.453   1.055   4.938 -0.3358 -1.3976  1.5036
 8187WAT    EPW33470   3.381   1.066   4.969 -0.5868 -0.2599  0.5961
 8188WAT      O33471   5.827   2.997   6.904 -0.2655  0.3545 -0.6590
 8188WAT     H133472   5.766   3.060   6.911 -0.0877  0.5469 -0.8414
 8188WAT     H233473   5.895   3.038   6.868  0.4414  0.4553  0.7332
 8188WAT    EPW33474   5.828   3.013   6.900 -0.1348  0.3978 -0.4803
 8189WAT      O33475   4.943   3.386   0.171 -0.1546  0.2964  0.1572
 8189WAT     H133476   4.930   3.437   0.101 -0.1490  0.9801  0.6320
 8189WAT     H233477   4.991   3.321   0.141 -4.4539 -2.4526 -1.8080
 8189WAT    EPW33478   4.948   3.384   0.156 -0.7889 -0.0087 -0.0630
 8190WAT      O33479   3.376   2.036   2.447  0.1323 -1.0806  0.3964
 8190WAT     H133480   3.369   2.088   2.377  0.6310 -1.4582  0.0639
 8190WAT     H233481   3.321   1.971   2.429 -1.8960  0.1820  1.6165
 8190WAT    EPW33482   3.367   2.034   2.434 -0.0937 -0.9499  0.5275
 8191WAT      O33483   4.860   5.345   0.953 -0.6870 -0.4783  0.2302
 8191WAT     H133484   4.802   5.356   0.889 -1.3962 -0.4323  0.8603
 8191WAT     H233485   4.934   5.376   0.920 -1.1949  0.1682 -0.3184
 8191WAT    EPW33486   4.862   5.351   0.939 -0.8668 -0.3760  0.2422
 8192WAT      O33487   3.706   0.104   0.711 -0.5531  0.4653  0.6919
 8192WAT     H133488   3.785   0.142   0.713 -0.3880  0.1167  1.0146
 8192WAT     H233489   3.724   0.020   0.697 -0.9443  0.5771 -0.5706
 8192WAT    EPW33490   3.720   0.097   0.709 -0.5865  0.4303  0.5530
 8193WAT      O33491   6.790   6.260   5.490  0.6386  0.3496 -0.2963
 8193WAT     H133492   6.709   6.258   5.458  0.8884 -0.8376 -0.9154
 8193WAT     H233493   6.829   6.324   5.444  0.1753  0.6538 -0.2719
 8193WAT    EPW33494   6.784   6.269   5.479  0.6070  0.2192 -0.3842
 8194WAT      O33495   4.182   0.998   2.164 -0.3498  0.0448  0.1736
 8194WAT     H133496   4.153   1.058   2.219  0.3969  0.2034  0.4067
 8194WAT     H233497   4.114   0.943   2.155 -0.3696 -0.1652  1.5008
 8194WAT    EPW33498   4.168   0.999   2.171 -0.2424  0.0372  0.4041
 8195WAT      O33499   3.037   5.593   5.220  0.6150  0.2000  0.0015
 8195WAT     H133500   3.103   5.538   5.233 -0.7375 -1.0749  1.9851
 8195WAT     H233501   2.967   5.542   5.215 -0.5400  1.6455  0.5237
 8195WAT    EPW33502   3.036   5.577   5.221  0.2446  0.2252  0.3717
 8196WAT      O33503   0.257   2.467   5.478 -0.3010  0.1337 -0.2391
 8196WAT     H133504   0.318   2.488   5.418  0.7045 -3.0446 -0.5751
 8196WAT     H233505   0.204   2.413   5.434  0.5800 -2.4688  1.6616
 8196WAT    EPW33506   0.258   2.462   5.462 -0.0223 -0.7202 -0.0079
 8197WAT      O33507   1.788   4.190   7.023  0.1509 -0.0089 -0.5235
 8197WAT     H133508   1.788   4.218   7.105 -0.8314 -0.2392 -0.4428
 8197WAT     H233509   1.820   4.109   7.028 -1.7405 -0.7742 -0.0899
 8197WAT    EPW33510   1.793   4.182   7.036 -0.2736 -0.1560 -0.4475
 8198WAT      O33511   2.599   1.944   6.257 -0.7295 -0.2590  0.1532
 8198WAT     H133512   2.529   1.993   6.242  0.8067  1.9507 -0.2450
 8198WAT     H233513   2.619   1.961   6.340 -0.4411 -0.5642  0.1482
 8198WAT    EPW33514   2.592   1.953   6.267 -0.4600  0.0223  0.0937
 8199WAT      O33515   3.060   6.253   4.829  0.3247 -0.1088  0.2208
 8199WAT     H133516   3.070   6.301   4.901  3.2501 -1.1995  0.6805
 8199WAT     H233517   2.994   6.199   4.848  0.4557  0.2458  1.7333
 8199WAT    EPW33518   3.052   6.252   4.842  0.7762 -0.2175  0.5122
 8200WAT      O33519   6.256   1.150   4.747  0.3970 -0.2681  0.6476
 8200WAT     H133520   6.169   1.151   4.742  0.4761  0.9196 -0.8398
 8200WAT     H233521   6.275   1.065   4.748 -0.6953 -0.5580 -0.9085
 8200WAT    EPW33522   6.246   1.137   4.747  0.2473 -0.1355  0.1980
 8201WAT      O33523   2.130   3.673   4.124 -0.0679  0.5051 -0.1622
 8201WAT     H133524   2.111   3.721   4.054  0.7122  0.2133 -0.5809
 8201WAT     H233525   2.217   3.670   4.124 -0.0887 -0.3516  0.2373
 8201WAT    EPW33526   2.140   3.680   4.114  0.0443  0.3355 -0.1650
 8202WAT      O33527   4.880   0.910   0.342  0.0270  0.0054  0.1554
 8202WAT     H133528   4.911   0.877   0.416 -0.3803  0.1119  0.3819
 8202WAT     H233529   4.843   0.842   0.303 -0.1131  0.0279  0.2457
 8202WAT    EPW33530   4.879   0.895   0.347 -0.0538  0.0245  0.2022
 8203WAT      O33531   3.531   6.189   1.126  0.4380  0.1765  0.1934
 8203WAT     H133532   3.582   6.227   1.186 -1.2386  2.2323  0.4415
 8203WAT     H233533   3.519   6.251   1.066 -2.6424  0.2830  0.7404
 8203WAT    EPW33534   3.537   6.203   1.126 -0.2647  0.4959  0.3108
 8204WAT      O33535   1.670   3.408   3.660 -0.6139 -0.3812 -0.2449
 8204WAT     H133536   1.698   3.482   3.695  0.4350  0.4070 -2.5454
 8204WAT     H233537   1.599   3.431   3.615  0.1247 -0.5710 -1.5657
 8204WAT    EPW33538   1.664   3.422   3.658 -0.3499 -0.2928 -0.7799
 8205WAT      O33539   6.297   5.746   3.988 -0.2320 -0.2403  0.2369
 8205WAT     H133540   6.383   5.761   3.982 -0.2408  0.0908  0.8508
 8205WAT     H233541   6.272   5.800   4.052 -0.8921 -0.3633  0.0848
 8205WAT    EPW33542   6.306   5.756   3.996 -0.3308 -0.2096  0.3051
 8206WAT      O33543   6.099   1.151   5.556 -0.7428 -0.5563  0.1092
 8206WAT     H133544   6.127   1.169   5.637 -0.0863 -1.4567  0.0868
 8206WAT     H233545   6.085   1.065   5.557 -0.2508 -0.6649 -0.8756
 8206WAT    EPW33546   6.101   1.141   5.568 -0.5732 -0.7054 -0.0396
 8207WAT      O33547   1.035   5.003   0.160 -0.2019 -0.3403  0.4749
 8207WAT     H133548   0.958   5.027   0.192 -0.4972 -0.3809 -0.1820
 8207WAT     H233549   1.092   5.047   0.208 -0.5606 -1.3129  1.8377
 8207WAT    EPW33550   1.032   5.013   0.172 -0.2985 -0.4900  0.5792
 8208WAT      O33551   1.271   0.364   5.908 -0.1242  0.1525  0.0372
 8208WAT     H133552   1.317   0.403   5.972  0.3450 -2.2776  1.3042
 8208WAT     H233553   1.316   0.383   5.836  0.1982  1.7040  0.6058
 8208WAT    EPW33554   1.284   0.372   5.907 -0.0073  0.0227  0.3084
 8209WAT      O33555   6.843   2.415   0.204  0.4508  0.8691 -0.5914
 8209WAT     H133556   6.858   2.340   0.163  1.1216  0.4748  0.3416
 8209WAT     H233557   6.789   2.392   0.268 -0.4400  1.4430 -1.1116
 8209WAT    EPW33558   6.837   2.401   0.207  0.4183  0.8957 -0.5304
 8210WAT      O33559   5.878   2.073   3.627 -0.7201  0.5725  0.1432
 8210WAT     H133560   5.801   2.079   3.666 -2.2276 -0.4330 -2.4142
 8210WAT     H233561   5.900   1.989   3.638 -0.1252  0.7788  0.5888
 8210WAT    EPW33562   5.870   2.061   3.634 -0.8549  0.4544 -0.1687
 8211WAT      O33563   2.895   6.643   1.910  0.2967  0.2763  0.2423
 8211WAT     H133564   2.909   6.712   1.859 -1.6921 -0.1167 -0.9598
 8211WAT     H233565   2.949   6.582   1.879  2.2395  1.2666  1.4592
 8211WAT    EPW33566   2.905   6.644   1.898  0.2899  0.3645  0.2445
 8212WAT      O33567   5.057   2.457   3.934  0.1706  0.5452  0.0421
 8212WAT     H133568   5.099   2.530   3.912  1.0513 -0.0874 -0.4338
 8212WAT     H233569   5.055   2.461   4.021  0.1822  1.1460  0.0231
 8212WAT    EPW33570   5.063   2.469   3.944  0.3024  0.5405 -0.0310
 8213WAT      O33571   3.658   6.214   3.360 -0.3099 -0.5633  0.2950
 8213WAT     H133572   3.684   6.137   3.328 -2.9648 -0.5548 -2.3219
 8213WAT     H233573   3.573   6.203   3.374 -0.2332  1.1096  2.6994
 8213WAT    EPW33574   3.650   6.201   3.357 -0.6908 -0.3149  0.2636
 8214WAT      O33575   4.825   7.190   3.877 -0.7493 -0.1202  0.6055
 8214WAT     H133576   4.899   7.224   3.908 -1.2572  2.7063 -0.8940
 8214WAT     H233577   4.832   7.202   3.790 -2.7896 -0.0235  0.4020
 8214WAT    EPW33578   4.837   7.197   3.868 -1.1257  0.3116  0.3539
 8215WAT      O33579   1.746   6.203   6.640  0.2042 -0.4932 -0.3361
 8215WAT     H133580   1.718   6.274   6.683  0.0905  0.2969 -1.6453
 8215WAT     H233581   1.821   6.228   6.605 -0.2946 -0.6677 -1.6026
 8215WAT    EPW33582   1.753   6.217   6.641  0.1138 -0.4023 -0.7166
 8216WAT      O33583   2.294   0.234   2.775  0.5250  0.1589  0.2839
 8216WAT     H133584   2.277   0.228   2.690  2.0664  2.7437 -0.3279
 8216WAT     H233585   2.380   0.222   2.780  0.6833  1.4329  1.2340
 8216WAT    EPW33586   2.304   0.232   2.764  0.7760  0.7289  0.3339
 8217WAT      O33587   5.239   3.626   6.472 -0.1734 -0.0900  0.3557
 8217WAT     H133588   5.193   3.700   6.473  0.3921  0.2707  1.8107
 8217WAT     H233589   5.185   3.567   6.505 -0.5331 -0.2875 -0.5586
 8217WAT    EPW33590   5.224   3.628   6.477 -0.1430 -0.0659  0.4356
 8218WAT      O33591   1.589   1.386   1.216  0.1470  0.1414 -0.0769
 8218WAT     H133592   1.527   1.393   1.276  1.1671  0.5224  0.9677
 8218WAT     H233593   1.601   1.300   1.209  0.1846  0.1076  0.4275
 8218WAT    EPW33594   1.582   1.374   1.224  0.3032  0.1927  0.1519
 8219WAT      O33595   4.344   1.934   0.455  0.3239 -0.1838  0.1914
 8219WAT     H133596   4.373   1.990   0.516 -0.5576 -0.9626  1.3745
 8219WAT     H233597   4.261   1.959   0.443  0.6084  0.2238 -1.0220
 8219WAT    EPW33598   4.336   1.946   0.462  0.2358 -0.2386  0.1869
 8220WAT      O33599   3.402   0.601   4.674 -0.2323 -0.5664  0.7643
 8220WAT     H133600   3.363   0.662   4.625  0.8340 -1.8396 -1.8582
 8220WAT     H233601   3.335   0.562   4.715 -1.5800 -1.0938 -1.7262
 8220WAT    EPW33602   3.386   0.604   4.673 -0.2739 -0.8324  0.0090
 8221WAT      O33603   5.650   0.676   3.483  0.0298  0.0948  0.6102
 8221WAT     H133604   5.641   0.759   3.456  0.0856  0.0925  0.5829
 8221WAT     H233605   5.578   0.637   3.453  0.8725 -0.3006 -1.0377
 8221WAT    EPW33606   5.638   0.683   3.474  0.1626  0.0361  0.3628
 8222WAT      O33607   6.024   5.887   4.055 -0.0308  0.0493 -0.3582
 8222WAT     H133608   6.072   5.905   3.985  3.1550 -1.8934  1.0793
 8222WAT     H233609   6.038   5.955   4.108  2.4509 -1.0309  0.5450
 8222WAT    EPW33610   6.033   5.900   4.053  0.8064 -0.3972 -0.0124
 8223WAT      O33611   5.546   5.395   3.622  0.2165 -0.3072 -0.2971
 8223WAT     H133612   5.501   5.469   3.612  1.8882  0.9540  0.8486
 8223WAT     H233613   5.502   5.337   3.575 -0.6114  1.6375 -2.0619
 8223WAT    EPW33614   5.533   5.398   3.614  0.3412  0.1664 -0.3886
 8224WAT      O33615   4.426   3.431   2.448 -0.6095  0.1669  0.6160
 8224WAT     H133616   4.342   3.441   2.426 -0.2495 -0.3105 -1.1014
 8224WAT     H233617   4.439   3.495   2.507 -1.6975  1.4292 -0.4479
 8224WAT    EPW33618   4.415   3.442   2.454 -0.7170  0.2828  0.2052
 8225WAT      O33619   5.271   6.465   6.400 -0.0289  0.6313  0.2957
 8225WAT     H133620   5.355   6.480   6.417  0.7376 -0.7028 -1.8332
 8225WAT     H233621   5.273   6.420   6.325 -2.7878  3.8726 -2.0504
 8225WAT    EPW33622   5.283   6.461   6.391 -0.3232  0.9131 -0.3654
 8226WAT      O33623   2.207   2.463   0.624 -0.2115  0.3244 -0.2508
 8226WAT     H133624   2.190   2.429   0.546 -2.6363 -0.8986  0.7025
 8226WAT     H233625   2.173   2.405   0.680  1.2678  1.2400  1.7239
 8226WAT    EPW33626   2.199   2.450   0.621 -0.3511  0.2790  0.1817
 8227WAT      O33627   7.172   1.217   4.336  0.1374  0.0648  0.3430
 8227WAT     H133628   7.110   1.205   4.276 -1.1131  1.7338  1.2464
 8227WAT     H233629   7.246   1.221   4.289 -0.6095 -0.2580 -0.8958
 8227WAT    EPW33630   7.174   1.216   4.320 -0.1577  0.2636  0.2934
 8228WAT      O33631   4.681   6.374   1.311  0.3264 -0.1845  0.4262
 8228WAT     H133632   4.617   6.359   1.254  1.9500 -1.6995 -1.1339
 8228WAT     H233633   4.641   6.369   1.388 -1.4786 -0.8163 -0.4824
 8228WAT    EPW33634   4.665   6.371   1.314  0.2996 -0.5016  0.0616
 8229WAT      O33635   2.074   3.646   0.181  0.7375  0.0810  0.1221
 8229WAT     H133636   2.061   3.561   0.167 -0.5640  0.5430 -1.8421
 8229WAT     H233637   2.022   3.685   0.123  1.0886  2.2405  1.1601
 8229WAT    EPW33638   2.065   3.639   0.170  0.5971  0.4682 -0.0147
 8230WAT      O33639   2.668   5.981   5.746  0.0925 -0.1878 -0.0216
 8230WAT     H133640   2.641   6.050   5.700  0.1494 -0.3169 -0.2493
 8230WAT     H233641   2.746   6.006   5.776 -0.2684  0.1895  0.6449
 8230WAT    EPW33642   2.675   5.995   5.744  0.0476 -0.1511  0.0432
 8231WAT      O33643   5.278   2.754   7.192 -0.4308  0.2653 -0.6838
 8231WAT     H133644   5.208   2.706   7.171  0.4984 -1.4923  0.0065
 8231WAT     H233645   5.248   2.836   7.191 -2.0135 -0.2831 -2.2187
 8231WAT    EPW33646   5.263   2.759   7.189 -0.5273 -0.0754 -0.8085
 8232WAT      O33647   5.161   1.802   0.115  0.2241 -0.4236 -0.6006
 8232WAT     H133648   5.229   1.819   0.167  0.5508 -1.4503 -0.6726
 8232WAT     H233649   5.165   1.866   0.055  1.0952 -0.4453 -0.5808
 8232WAT    EPW33650   5.172   1.814   0.114  0.4010 -0.5785 -0.6083
 8233WAT      O33651   3.121   2.646   4.719  0.3926  0.0711 -0.2958
 8233WAT     H133652   3.206   2.637   4.701  0.2327  0.7610 -1.5368
 8233WAT     H233653   3.118   2.715   4.772  0.4847  1.2495 -1.7607
 8233WAT    EPW33654   3.133   2.655   4.724  0.3826  0.3471 -0.6955
 8234WAT      O33655   0.692   3.635   6.600  0.2715  0.1385 -0.3532
 8234WAT     H133656   0.619   3.630   6.649 -0.6095  1.7566 -1.4304
 8234WAT     H233657   0.694   3.557   6.560  0.6403 -0.9593  1.6595
 8234WAT    EPW33658   0.681   3.622   6.602  0.1958  0.2154 -0.2150
 8235WAT      O33659   5.951   2.466   4.603 -0.1920 -0.7418  0.0465
 8235WAT     H133660   6.037   2.469   4.615 -0.4072 -0.7169  1.9699
 8235WAT     H233661   5.924   2.407   4.662 -1.5709 -0.0056  0.2135
 8235WAT    EPW33662   5.960   2.458   4.614 -0.4275 -0.6293  0.3553
 8236WAT      O33663   6.862   6.897   5.144 -0.0343  0.1495  0.2079
 8236WAT     H133664   6.862   6.977   5.179 -2.8664  0.8388 -1.0929
 8236WAT     H233665   6.915   6.905   5.076  2.7658 -0.2607  2.1595
 8236WAT    EPW33666   6.870   6.910   5.139 -0.0390  0.1907  0.3040
 8237WAT      O33667   0.036   4.806   6.091 -0.0615 -0.1154  0.2098
 8237WAT     H133668  -0.004   4.880   6.112  0.1348 -0.0741  0.4378
 8237WAT     H233669  -0.025   4.762   6.046 -0.0730  0.3158 -0.2042
 8237WAT    EPW33670   0.021   4.810   6.087 -0.0342 -0.0456  0.1823
 8238WAT      O33671   6.412   3.695   5.314  0.1410  0.0295 -0.5425
 8238WAT     H133672   6.498   3.681   5.304  0.3125  0.2748  0.5013
 8238WAT     H233673   6.407   3.781   5.328 -0.3625  0.1437 -1.3993
 8238WAT    EPW33674   6.424   3.705   5.314  0.0920  0.0826 -0.5149
 8239WAT      O33675   3.092   1.172   2.441  0.1269 -0.4892 -0.2641
 8239WAT     H133676   3.149   1.107   2.433  2.7689  1.5643  0.5318
 8239WAT     H233677   3.129   1.238   2.397 -3.1030  0.1993 -2.2695
 8239WAT    EPW33678   3.106   1.172   2.433  0.0401 -0.0842 -0.4428
 8240WAT      O33679   2.720   6.182   1.665 -0.0274 -0.1295  0.5573
 8240WAT     H133680   2.653   6.235   1.685  1.1614  0.9507  1.8976
 8240WAT     H233681   2.698   6.106   1.702  0.1561  0.6655  2.4326
 8240WAT    EPW33682   2.707   6.179   1.674  0.1753  0.1475  1.0323
 8241WAT      O33683   6.437   6.688   0.292 -0.4022  0.2319 -0.0129
 8241WAT     H133684   6.416   6.693   0.207 -1.3854  2.0354  0.2742
 8241WAT     H233685   6.524   6.696   0.291 -0.2838 -0.8730 -0.8938
 8241WAT    EPW33686   6.447   6.690   0.279 -0.5300  0.3351 -0.1006
 8242WAT      O33687   6.719   6.821   6.806 -0.3493 -0.4838 -0.1571
 8242WAT     H133688   6.726   6.747   6.760  1.5577 -0.7269  0.4570
 8242WAT     H233689   6.640   6.851   6.784 -1.6632 -3.2305  0.3967
 8242WAT    EPW33690   6.708   6.814   6.796 -0.2617 -0.9255  0.0154
 8243WAT      O33691   6.465   1.888   2.168  0.6224 -0.3174  0.2295
 8243WAT     H133692   6.447   1.903   2.084  0.2382 -2.4247 -0.1258
 8243WAT     H233693   6.399   1.837   2.194  0.7856  0.2091  1.8048
 8243WAT    EPW33694   6.452   1.883   2.160  0.5898 -0.5509  0.4097
 8244WAT      O33695   3.475   7.168   2.621 -0.7709 -0.8110 -0.6670
 8244WAT     H133696   3.407   7.206   2.661 -2.7490 -3.6600 -1.0358
 8244WAT     H233697   3.540   7.178   2.678 -1.9972  0.2737  0.6289
 8244WAT    EPW33698   3.474   7.175   2.635 -1.2442 -1.0716 -0.5300
 8245WAT      O33699   0.992   1.032   2.985 -0.2810 -0.0824 -0.2144
 8245WAT     H133700   1.031   1.014   2.909  0.2084 -0.8786  0.2037
 8245WAT     H233701   0.917   0.987   2.980  0.7783 -2.0572  0.6792
 8245WAT    EPW33702   0.987   1.022   2.973 -0.0522 -0.4917 -0.0206
 8246WAT      O33703   4.124   2.626   2.379  0.1953  0.1434  0.3352
 8246WAT     H133704   4.188   2.569   2.395 -0.8097 -0.9329  0.7171
 8246WAT     H233705   4.055   2.575   2.362 -0.3853  1.2544 -0.9004
 8246WAT    EPW33706   4.123   2.610   2.379 -0.0389  0.1486  0.2091
 8247WAT      O33707   1.868   0.759   4.753 -0.8321 -0.1248 -0.2846
 8247WAT     H133708   1.809   0.810   4.792  0.4952  0.1012  1.5650
 8247WAT     H233709   1.942   0.804   4.762 -0.3095 -0.4270 -2.4824
 8247WAT    EPW33710   1.870   0.774   4.760 -0.5588 -0.1361 -0.3360
 8248WAT      O33711   6.113   4.960   3.096 -0.8328  0.3089  0.9133
 8248WAT     H133712   6.200   4.959   3.097 -0.8384 -0.3923  1.2902
 8248WAT     H233713   6.093   5.037   3.131 -0.3656  1.1388 -0.5456
 8248WAT    EPW33714   6.123   4.971   3.101 -0.7646  0.3279  0.7535
 8249WAT      O33715   3.727   6.747   0.146 -0.1206  0.3132 -0.4338
 8249WAT     H133716   3.792   6.805   0.145  0.0985  0.0896  0.1834
 8249WAT     H233717   3.740   6.700   0.074  0.6676 -0.0062 -0.0953
 8249WAT    EPW33718   3.738   6.749   0.135  0.0282  0.2330 -0.2926
 8250WAT      O33719   2.401   2.831   1.702  0.0254  0.5907 -0.1075
 8250WAT     H133720   2.483   2.806   1.687  0.4313  0.4783  1.9728
 8250WAT     H233721   2.354   2.763   1.675  0.5582  0.7161 -1.4674
 8250WAT    EPW33722   2.406   2.817   1.696  0.1641  0.5926 -0.0011
 8251WAT      O33723   0.943   3.984   1.840  0.1060 -0.0780 -0.0549
 8251WAT     H133724   0.913   4.063   1.864  0.1538  0.2059 -0.8994
 8251WAT     H233725   0.982   3.955   1.912  0.6593  0.9461  0.0818
 8251WAT    EPW33726   0.944   3.992   1.854  0.1948  0.1152 -0.1594
 8252WAT      O33727   1.324   1.312   3.477 -0.6004  0.0077 -0.6422
 8252WAT     H133728   1.241   1.336   3.489 -0.4207  0.1463  0.4394
 8252WAT     H233729   1.344   1.272   3.551 -0.2012 -1.5434 -1.5457
 8252WAT    EPW33730   1.315   1.310   3.490 -0.5149 -0.2009 -0.6159
 8253WAT      O33731   1.568   6.405   4.237  0.4223 -0.0907  0.3522
 8253WAT     H133732   1.547   6.329   4.200  2.1710 -0.5373  0.2007
 8253WAT     H233733   1.635   6.385   4.288  2.7570  1.7361 -1.7361
 8253WAT    EPW33734   1.575   6.391   4.239  1.0255  0.1132  0.0213
 8254WAT      O33735   5.984   5.999   1.808 -0.1805 -0.7467 -0.6592
 8254WAT     H133736   6.005   6.026   1.728 -0.2354 -0.9099 -0.7286
 8254WAT     H233737   6.039   5.933   1.823  0.7228  0.1134 -0.0435
 8254WAT    EPW33738   5.995   5.994   1.799 -0.0552 -0.6437 -0.5785
 8255WAT      O33739   2.144   3.508   5.963  0.5625 -0.1661  0.4537
 8255WAT     H133740   2.200   3.565   5.998  1.0262 -0.1485 -0.3028
 8255WAT     H233741   2.192   3.435   5.956  1.0033  0.2716 -1.6408
 8255WAT    EPW33742   2.160   3.505   5.967  0.6961 -0.0988  0.0325
 8256WAT      O33743   3.869   6.600   6.782  0.6232 -0.3655 -0.2193
 8256WAT     H133744   3.881   6.676   6.823 -2.6184 -0.1240  0.5888
 8256WAT     H233745   3.928   6.601   6.719  4.2422  0.4048  2.8055
 8256WAT    EPW33746   3.880   6.612   6.779  0.6790 -0.2160  0.3469
 8257WAT      O33747   0.312   4.629   4.040  0.4591  0.2042  0.2854
 8257WAT     H133748   0.380   4.616   3.987  0.0279 -0.8170 -0.0392
 8257WAT     H233749   0.302   4.553   4.081  1.0748  1.1074  2.2204
 8257WAT    EPW33750   0.320   4.616   4.038  0.4863  0.1868  0.5233
 8258WAT      O33751   0.723   3.372   4.610 -0.2142  0.5774 -0.5333
 8258WAT     H133752   0.722   3.459   4.610  1.0505  0.6375  0.6487
 8258WAT     H233753   0.805   3.353   4.588  0.8155 -0.1301  3.1471
 8258WAT    EPW33754   0.735   3.382   4.607  0.1248  0.4818  0.1850
 8259WAT      O33755   6.390   3.696   1.526 -0.3269  0.3589 -0.2582
 8259WAT     H133756   6.316   3.680   1.484 -0.9541  2.0312  0.1274
 8259WAT     H233757   6.379   3.656   1.603  0.3487 -1.7222 -1.1895
 8259WAT    EPW33758   6.378   3.688   1.531 -0.3197  0.2985 -0.3388
 8260WAT      O33759   2.014   2.409   6.271  0.0153 -0.9265 -0.1123
 8260WAT     H133760   1.953   2.472   6.264  0.4586 -0.2978  1.1735
 8260WAT     H233761   2.053   2.409   6.193  0.4477  0.9060  0.0465
 8260WAT    EPW33762   2.010   2.419   6.259  0.1447 -0.5629  0.1011
 8261WAT      O33763   3.954   5.907   1.147  0.3200 -0.3148  0.1399
 8261WAT     H133764   4.030   5.875   1.119 -0.5249 -2.4262  0.0963
 8261WAT     H233765   3.973   5.991   1.165  3.2784 -1.2781  2.4272
 8261WAT    EPW33766   3.968   5.915   1.146  0.6322 -0.7690  0.4714
 8262WAT      O33767   3.825   6.551   5.602  0.5886  0.4393 -0.1238
 8262WAT     H133768   3.888   6.599   5.640  0.7496 -1.2014  1.8375
 8262WAT     H233769   3.870   6.492   5.556  0.4145  0.8601 -0.8525
 8262WAT    EPW33770   3.841   6.549   5.601  0.5867  0.2591  0.0583
 8263WAT      O33771   5.442   5.205   2.805  0.0122  1.0571  0.1586
 8263WAT     H133772   5.361   5.226   2.830 -1.0125 -0.7310 -1.4719
 8263WAT     H233773   5.483   5.189   2.881 -1.3087  1.3904  0.9735
 8263WAT    EPW33774   5.436   5.206   2.820 -0.3343  0.8422  0.0381
 8264WAT      O33775   0.158   6.123   0.635 -0.1353  0.1646  0.6247
 8264WAT     H133776   0.221   6.172   0.670 -0.2836 -1.6613  3.8166
 8264WAT     H233777   0.087   6.145   0.683 -1.4650  0.5862 -1.4161
 8264WAT    EPW33778   0.157   6.134   0.648 -0.3536 -0.0429  0.7948
 8265WAT      O33779   2.700   1.343   1.954  0.6989 -0.2374  0.1745
 8265WAT     H133780   2.617   1.334   1.976  0.5480 -1.7474 -0.8289
 8265WAT     H233781   2.698   1.359   1.869  1.4240 -1.4548 -0.1131
 8265WAT    EPW33782   2.688   1.344   1.945  0.7837 -0.6403 -0.0162
 8266WAT      O33783   5.328   5.915   2.992 -0.2993 -0.1188  0.5444
 8266WAT     H133784   5.317   5.873   3.067 -0.9226 -0.9658 -0.0064
 8266WAT     H233785   5.391   5.870   2.951 -1.0476 -0.6280 -0.0933
 8266WAT    EPW33786   5.336   5.902   2.997 -0.5019 -0.3191  0.3688
 8267WAT      O33787   5.070   5.212   3.845  0.1590  0.6143  0.4780
 8267WAT     H133788   5.131   5.263   3.810  0.9798  0.8798  2.1750
 8267WAT     H233789   5.060   5.245   3.926 -2.4520  0.7721  0.1879
 8267WAT    EPW33790   5.077   5.224   3.852 -0.1054  0.6768  0.6858
 8268WAT      O33791   1.193   1.178   5.065 -0.5674 -0.3973  0.5877
 8268WAT     H133792   1.244   1.171   5.135  0.7487 -0.0243 -0.2912
 8268WAT     H233793   1.221   1.114   5.012  0.8114  1.3894 -0.9730
 8268WAT    EPW33794   1.205   1.167   5.067 -0.1693 -0.0782  0.2273
 8269WAT      O33795   2.756   3.021   4.223  0.2211  0.0660 -0.0752
 8269WAT     H133796   2.818   3.008   4.282  0.8355  1.5416 -0.3310
 8269WAT     H233797   2.700   3.075   4.263  1.3465  2.2212 -1.1934
 8269WAT    EPW33798   2.757   3.027   4.237  0.4781  0.6023 -0.2781
 8270WAT      O33799   6.257   5.939   1.450  0.5153 -0.3962  0.2214
 8270WAT     H133800   6.243   6.018   1.486  1.0448 -0.1878 -0.0106
 8270WAT     H233801   6.184   5.895   1.467 -0.8515  0.9347 -1.7825
 8270WAT    EPW33802   6.244   5.944   1.458  0.3916 -0.1688 -0.1089
 8271WAT      O33803   0.602   6.757   3.011  0.7515 -0.4369 -0.7438
 8271WAT     H133804   0.636   6.778   2.933 -1.0031  2.1583 -0.9345
 8271WAT     H233805   0.668   6.768   3.066  0.6955  3.5692 -1.1982
 8271WAT    EPW33806   0.617   6.762   3.008  0.4840  0.5382 -0.8391
 8272WAT      O33807   7.178   0.141   1.981  0.3105  0.1952 -0.1423
 8272WAT     H133808   7.149   0.219   1.953  0.1918  0.2390  0.1004
 8272WAT     H233809   7.254   0.160   2.019  0.9580  0.0037 -1.2829
 8272WAT    EPW33810   7.185   0.155   1.982  0.3886  0.1734 -0.2749
 8273WAT      O33811   0.677   2.099   7.150 -0.0179  0.9192 -0.1098
 8273WAT     H133812   0.632   2.137   7.085 -1.5522  0.2649  0.5303
 8273WAT     H233813   0.615   2.073   7.205  0.8027 -3.0660 -0.7843
 8273WAT    EPW33814   0.661   2.101   7.148 -0.1233  0.2339 -0.1149
 8274WAT      O33815   3.236   0.768   4.890  0.2113 -0.3065 -0.4244
 8274WAT     H133816   3.181   0.766   4.822 -0.6744 -0.1960  0.2708
 8274WAT     H233817   3.271   0.847   4.886 -1.3464  0.4574  0.3969
 8274WAT    EPW33818   3.233   0.779   4.879 -0.1497 -0.1773 -0.2004
 8275WAT      O33819   1.027   0.228   7.174 -0.3153 -0.0692 -0.4298
 8275WAT     H133820   0.954   0.271   7.157 -1.0583 -1.1754 -0.1227
 8275WAT     H233821   1.066   0.277   7.236 -0.0348  1.2996 -1.6307
 8275WAT    EPW33822   1.022   0.242   7.181 -0.3836 -0.0304 -0.5618
 8276WAT      O33823   5.018   0.536   6.548  0.2874  0.1580 -0.1562
 8276WAT     H133824   5.074   0.589   6.507  1.5724  0.7207  2.1227
 8276WAT     H233825   4.949   0.588   6.563  0.9531  0.8273  0.7777
 8276WAT    EPW33826   5.016   0.552   6.544  0.5756  0.3400  0.3184
 8277WAT      O33827   1.949   2.162   0.428  0.1587  0.4561 -0.0949
 8277WAT     H133828   2.008   2.126   0.481 -0.9544  1.5069  1.9681
 8277WAT     H233829   1.988   2.237   0.403  0.3310  0.3899 -0.0252
 8277WAT    EPW33830   1.964   2.168   0.432  0.0197  0.6015  0.2202
 8278WAT      O33831   4.167   4.042   4.103 -0.3295 -0.0220  0.4844
 8278WAT     H133832   4.082   4.033   4.118 -0.4350  2.2099  1.6573
 8278WAT     H233833   4.170   4.091   4.030 -0.2158  2.5950  2.1270
 8278WAT    EPW33834   4.155   4.048   4.094 -0.3283  0.6943  0.9003
 8279WAT      O33835   0.296   5.402   0.675 -0.0061 -0.1570  1.2429
 8279WAT     H133836   0.377   5.425   0.653 -0.7328  0.0295 -1.6967
 8279WAT     H233837   0.263   5.474   0.711  0.0543  1.0945 -1.0088
 8279WAT    EPW33838   0.303   5.416   0.677 -0.1046  0.0554  0.4761
 8280WAT      O33839   1.273   5.981   3.811 -0.5302  0.0677 -0.2395
 8280WAT     H133840   1.283   6.065   3.791 -1.3983  0.6631  1.5888
 8280WAT     H233841   1.282   5.940   3.735 -0.9146  1.8776 -1.3102
 8280WAT    EPW33842   1.276   5.988   3.797 -0.7152  0.4230 -0.1276
 8281WAT      O33843   2.059   0.982   3.519 -0.6678  0.1231 -0.0467
 8281WAT     H133844   2.055   1.036   3.588  0.2695 -2.1247  1.9224
 8281WAT     H233845   2.136   1.001   3.483 -0.2581  0.0080  0.7404
 8281WAT    EPW33846   2.069   0.993   3.524 -0.4688 -0.2260  0.3605
 8282WAT      O33847   3.723   0.019   1.577  0.2007  0.1423 -0.2900
 8282WAT     H133848   3.797   0.050   1.610  1.0889 -0.7967 -1.2889
 8282WAT     H233849   3.692   0.085   1.529  0.1439  0.6910  0.4842
 8282WAT    EPW33850   3.729   0.033   1.574  0.3235  0.0847 -0.3232
 8283WAT      O33851   1.133   3.592   3.677  0.0170 -0.5560  0.5773
 8283WAT     H133852   1.172   3.643   3.618 -1.1582  0.3426  0.5352
 8283WAT     H233853   1.062   3.637   3.700 -0.8621 -1.9844  0.8504
 8283WAT    EPW33854   1.128   3.606   3.672 -0.2865 -0.6343  0.6114
 8284WAT      O33855   3.675   7.008   1.171  0.0575  0.4289 -0.3261
 8284WAT     H133856   3.726   7.077   1.187  0.0101  0.3993 -0.0369
 8284WAT     H233857   3.619   7.037   1.111 -1.2260  1.2751  1.1750
 8284WAT    EPW33858   3.674   7.022   1.165 -0.1391  0.5496 -0.0617
 8285WAT      O33859   1.663   0.786   6.141  0.2509 -0.1402 -0.1322
 8285WAT     H133860   1.647   0.815   6.222  0.6642  0.2637 -0.1917
 8285WAT     H233861   1.747   0.763   6.144  1.2262  2.8692 -1.3032
 8285WAT    EPW33862   1.673   0.787   6.154  0.4560  0.3640 -0.3140
 8286WAT      O33863   3.201   4.806   0.052 -0.8815 -0.5359 -0.3180
 8286WAT     H133864   3.207   4.885   0.016  2.2503 -0.0237  1.0179
 8286WAT     H233865   3.247   4.755  -0.002  0.5585 -0.5487  0.8646
 8286WAT    EPW33866   3.209   4.810   0.039 -0.2061 -0.4621  0.0540
 8287WAT      O33867   5.256   5.027   6.594 -0.1814  0.2652  0.6044
 8287WAT     H133868   5.173   5.039   6.570 -0.5418  0.7869  2.0413
 8287WAT     H233869   5.301   5.057   6.526 -1.1582  1.4983  0.4594
 8287WAT    EPW33870   5.250   5.033   6.580 -0.3789  0.5244  0.7952
 8288WAT      O33871   3.429   5.893   5.413 -0.4657  0.7241  0.3062
 8288WAT     H133872   3.507   5.910   5.379 -0.3217 -0.5408 -0.0626
 8288WAT     H233873   3.411   5.813   5.382 -2.2870  1.3376 -0.3184
 8288WAT    EPW33874   3.438   5.883   5.403 -0.7135  0.6279  0.1595
 8289WAT      O33875   3.036   5.472   0.103  0.7620  0.5156 -0.2049
 8289WAT     H133876   3.007   5.532   0.159  0.1021 -0.9828  1.1409
 8289WAT     H233877   3.027   5.510   0.025  2.8402  3.1610  0.6891
 8289WAT    EPW33878   3.031   5.487   0.100  0.9715  0.6851  0.1260
 8290WAT      O33879   1.983   2.231   3.618  0.3870 -0.2948 -0.1182
 8290WAT     H133880   2.037   2.220   3.686 -0.2224 -0.1822  0.3997
 8290WAT     H233881   2.036   2.241   3.550  1.0407 -2.4194 -0.0025
 8290WAT    EPW33882   1.999   2.231   3.618  0.3935 -0.5920 -0.0246
 8291WAT      O33883   0.937   0.131   6.904 -0.5091 -0.2385  0.3387
 8291WAT     H133884   0.982   0.158   6.973  0.4815  1.7772 -1.0013
 8291WAT     H233885   0.994   0.135   6.838 -1.8508 -0.4962 -0.9104
 8291WAT    EPW33886   0.952   0.135   6.904 -0.5610  0.0212 -0.0437
 8292WAT      O33887   4.760   1.267   5.783  0.5299  0.5051  0.0682
 8292WAT     H133888   4.783   1.350   5.769  2.5010 -0.0160 -0.1263
 8292WAT     H233889   4.722   1.269   5.862  0.7852  1.5636  0.1788
 8292WAT    EPW33890   4.758   1.279   5.793  0.8588  0.5845  0.0558
 8293WAT      O33891   2.703   5.590   6.642  0.3267 -0.3881  0.3175
 8293WAT     H133892   2.776   5.622   6.676  0.8113  0.4221 -1.3773
 8293WAT     H233893   2.716   5.596   6.556 -2.3602  1.3105 -0.0720
 8293WAT    EPW33894   2.716   5.595   6.634  0.0013 -0.0175  0.0096
 8294WAT      O33895   6.526   6.313   3.157  0.0297 -0.2536 -0.0450
 8294WAT     H133896   6.491   6.300   3.078 -1.9530  1.5618  0.4361
 8294WAT     H233897   6.559   6.235   3.178  0.1406 -0.9099 -2.4273
 8294WAT    EPW33898   6.526   6.299   3.149 -0.2468 -0.0824 -0.3258
 8295WAT      O33899   0.756   1.862   1.790  0.3237  0.3071  0.4543
 8295WAT     H133900   0.704   1.868   1.860 -0.0278  0.5274  0.1731
 8295WAT     H233901   0.836   1.856   1.825  0.0960 -0.3085  0.8914
 8295WAT    EPW33902   0.760   1.862   1.806  0.2382  0.2487  0.4773
 8296WAT      O33903   6.988   3.474   3.059 -0.4720  0.2921 -0.7244
 8296WAT     H133904   6.976   3.545   3.108  0.0821 -0.0850 -0.0187
 8296WAT     H233905   6.993   3.409   3.117 -1.5520 -0.4148 -1.3906
 8296WAT    EPW33906   6.987   3.475   3.075 -0.5497  0.1320 -0.7185
 8297WAT      O33907   1.273   5.227   2.498 -0.2284 -0.3742 -0.0271
 8297WAT     H133908   1.226   5.285   2.542  0.8611  1.2019 -0.8420
 8297WAT     H233909   1.300   5.171   2.560  0.2470  1.0652  1.1131
 8297WAT    EPW33910   1.270   5.227   2.514  0.0028  0.0712  0.0210
 8298WAT      O33911   5.157   3.465   4.603  0.2998 -0.2805  0.1042
 8298WAT     H133912   5.154   3.538   4.650  0.9991 -0.6366  0.7231
 8298WAT     H233913   5.080   3.464   4.560  0.3839  0.9209 -0.0943
 8298WAT    EPW33914   5.145   3.475   4.603  0.4155 -0.1556  0.1663
 8299WAT      O33915   0.168   3.862   3.628 -0.1144  0.3477  0.6047
 8299WAT     H133916   0.143   3.934   3.669  2.6520  0.3768  2.4821
 8299WAT     H233917   0.201   3.812   3.691 -0.2305 -1.8147 -0.9156
 8299WAT    EPW33918   0.169   3.865   3.643  0.2771  0.0325  0.6575
 8300WAT      O33919   4.779   0.785   3.026  0.3535 -0.1341  0.5544
 8300WAT     H133920   4.700   0.785   2.989  1.1252 -0.2966 -1.2303
 8300WAT     H233921   4.806   0.703   3.019  1.0386  0.1019  0.2901
 8300WAT    EPW33922   4.771   0.773   3.019  0.5687 -0.1233  0.2517
 8301WAT      O33923   5.373   6.357   1.357  0.3845  0.4557 -0.0047
 8301WAT     H133924   5.396   6.288   1.406  1.2116  0.5728 -0.2077
 8301WAT     H233925   5.386   6.425   1.410  0.2535  0.5021 -0.0339
 8301WAT    EPW33926   5.379   6.357   1.372  0.4873  0.4798 -0.0390
 8302WAT      O33927   2.981   0.050   3.593  0.4517 -0.6903  0.7456
 8302WAT     H133928   2.905   0.008   3.580  0.1194 -0.3831  1.6088
 8302WAT     H233929   2.963   0.103   3.660  1.5396 -0.8687  1.1908
 8302WAT    EPW33930   2.967   0.051   3.601  0.5633 -0.6713  0.9389
 8303WAT      O33931   7.204   0.217   6.207  0.8326 -0.6796 -0.1676
 8303WAT     H133932   7.285   0.239   6.185  1.0427 -0.4824  0.7601
 8303WAT     H233933   7.159   0.291   6.197  0.8927 -0.6305 -0.0704
 8303WAT    EPW33934   7.209   0.231   6.202  0.8725 -0.6432 -0.0162
 8304WAT      O33935   3.438   4.844   3.452  0.1743 -0.0049 -0.1001
 8304WAT     H133936   3.521   4.871   3.456  0.3822 -0.6706  0.2579
 8304WAT     H233937   3.445   4.758   3.442 -0.4742  0.0412 -1.1446
 8304WAT    EPW33938   3.452   4.835   3.451  0.1092 -0.0964 -0.2015
 8305WAT      O33939   1.935   5.848   0.473  0.7286  0.2109 -0.3584
 8305WAT     H133940   2.020   5.848   0.453  0.9787 -0.1638  0.6568
 8305WAT     H233941   1.933   5.878   0.555 -0.0076 -0.9163  0.0537
 8305WAT    EPW33942   1.947   5.853   0.482  0.6568 -0.0110 -0.1475
 8306WAT      O33943   6.499   0.119   1.933  0.2622  0.1399  0.5090
 8306WAT     H133944   6.453   0.141   1.863  0.1614  1.0480  0.8438
 8306WAT     H233945   6.438   0.100   1.993  0.3101 -2.6704 -0.1890
 8306WAT    EPW33946   6.483   0.119   1.932  0.2544 -0.1411  0.4553
 8307WAT      O33947   0.092   0.444   1.901 -0.4516 -0.1983  0.1411
 8307WAT     H133948   0.006   0.435   1.905 -0.6451  1.5013  1.4995
 8307WAT     H233949   0.108   0.460   1.817 -1.3781 -1.1050 -0.2160
 8307WAT    EPW33950   0.082   0.445   1.889 -0.6170 -0.0812  0.2890
 8308WAT      O33951   4.132   4.303   0.897  0.3719 -0.9338  0.2700
 8308WAT     H133952   4.071   4.242   0.886  0.5343 -1.3833  1.6531
 8308WAT     H233953   4.147   4.302   0.983 -0.3991  1.8011  0.5393
 8308WAT    EPW33954   4.125   4.294   0.908  0.2820 -0.5962  0.5141
 8309WAT      O33955   5.627   4.838   3.897  0.7127 -0.1828  0.1535
 8309WAT     H133956   5.569   4.886   3.854 -0.5159 -1.2023  0.5890
 8309WAT     H233957   5.654   4.780   3.837 -0.1162 -0.8594  0.4144
 8309WAT    EPW33958   5.623   4.836   3.882  0.4088 -0.4333  0.2563
 8310WAT      O33959   2.776   4.540   3.593  0.7303 -0.3508 -0.2927
 8310WAT     H133960   2.832   4.534   3.659  2.2960  0.9583 -1.4289
 8310WAT     H233961   2.787   4.621   3.562 -2.3580  0.2710 -0.1465
 8310WAT    EPW33962   2.786   4.551   3.598  0.5054 -0.0656 -0.4389
 8311WAT      O33963   2.294   4.252   4.718  0.2385  0.3498 -0.1801
 8311WAT     H133964   2.262   4.289   4.790 -2.8616 -1.7094 -0.2664
 8311WAT     H233965   2.327   4.176   4.747  0.5841  0.2964 -0.7035
 8311WAT    EPW33966   2.294   4.246   4.733 -0.1684  0.0377 -0.2702
 8312WAT      O33967   5.959   3.062   6.303 -0.7494  0.5088 -0.4766
 8312WAT     H133968   6.044   3.081   6.308  0.0934 -2.7691  0.1695
 8312WAT     H233969   5.942   3.065   6.217  0.3424  0.0463 -0.7214
 8312WAT    EPW33970   5.969   3.065   6.291 -0.4636 -0.0437 -0.4173
 8313WAT      O33971   2.066   5.619   2.355 -0.3318 -0.4994 -0.1397
 8313WAT     H133972   2.004   5.674   2.328 -0.2191 -0.8995 -1.2783
 8313WAT     H233973   2.050   5.609   2.440 -1.3475  0.0127 -0.2633
 8313WAT    EPW33974   2.054   5.625   2.364 -0.4652 -0.4829 -0.3261
 8314WAT      O33975   0.988   0.872   1.207 -0.2258  1.0247 -0.0863
 8314WAT     H133976   1.001   0.958   1.206  0.4167  0.9319 -0.6629
 8314WAT     H233977   1.053   0.843   1.259  0.5010  0.7586 -1.1218
 8314WAT    EPW33978   1.000   0.880   1.215 -0.0235  0.9717 -0.3245
 8315WAT      O33979   2.343   5.376   7.348  0.3177 -0.0944 -0.2181
 8315WAT     H133980   2.343   5.366   7.434  0.1409  0.5923 -0.1360
 8315WAT     H233981   2.290   5.444   7.334  0.7701  0.1519 -0.8221
 8315WAT    EPW33982   2.335   5.384   7.358  0.3584  0.0434 -0.2952
 8316WAT      O33983   5.439   1.805   1.576 -0.1257 -0.4751  0.5314
 8316WAT     H133984   5.464   1.825   1.495  0.5110 -1.9970  0.3205
 8316WAT     H233985   5.408   1.881   1.607  0.9681  0.4833 -0.6209
 8316WAT    EPW33986   5.438   1.819   1.569  0.1300 -0.5583  0.3300
 8317WAT      O33987   1.010   3.307   3.946  0.0988 -0.0880 -0.5069
 8317WAT     H133988   1.092   3.308   3.974  0.3900 -0.2380 -1.3378
 8317WAT     H233989   0.978   3.232   3.979 -0.5166  1.1616  1.9998
 8317WAT    EPW33990   1.017   3.296   3.955  0.0509  0.0744 -0.2594
 8318WAT      O33991   3.491   1.157   5.705 -0.0007 -0.5967 -0.1637
 8318WAT     H133992   3.451   1.232   5.689 -0.2717 -0.7518 -0.2312
 8318WAT     H233993   3.560   1.157   5.652 -0.5405 -0.8302 -0.8805
 8318WAT    EPW33994   3.495   1.168   5.695 -0.1205 -0.6541 -0.2796
 8319WAT      O33995   0.371   5.989   5.770  0.6009 -0.4405 -0.6283
 8319WAT     H133996   0.446   6.030   5.750 -0.7517  3.8439  1.9292
 8319WAT     H233997   0.391   5.945   5.843  0.7090  0.6580  0.0254
 8319WAT    EPW33998   0.385   5.988   5.778  0.4171  0.3547 -0.1539
 8320WAT      O33999   1.579   4.383   0.470  0.3757 -0.0778  0.2459
 8320WAT     H134000   1.631   4.431   0.522  0.1728  1.3365 -0.8110
 8320WAT     H234001   1.576   4.429   0.396  1.3996 -2.4851 -1.4062
 8320WAT    EPW34002   1.586   4.397   0.467  0.4969 -0.2245 -0.1543
 8321WAT      O34003   5.242   0.086   6.310  0.0540 -0.0713  0.4641
 8321WAT     H134004   5.298   0.090   6.376 -1.3021  1.8791  1.5938
 8321WAT     H234005   5.174   0.135   6.337 -1.1377 -0.3206 -1.8118
 8321WAT    EPW34006   5.240   0.094   6.324 -0.3224  0.1800  0.2948
 8322WAT      O34007   5.768   4.818   6.912 -0.3463 -0.3773 -0.1419
 8322WAT     H134008   5.722   4.819   6.986  0.4712  0.1500  0.3758
 8322WAT     H234009   5.759   4.899   6.881 -0.0598 -0.3713 -0.2114
 8322WAT    EPW34010   5.760   4.830   6.919 -0.1832 -0.2985 -0.0757
 8323WAT      O34011   4.458   0.219   7.260 -0.6724 -0.4216 -0.2135
 8323WAT     H134012   4.479   0.225   7.345  0.6478  0.3027 -0.5626
 8323WAT     H234013   4.535   0.223   7.219 -0.9765 -3.4488 -1.3931
 8323WAT    EPW34014   4.472   0.220   7.266 -0.5223 -0.7618 -0.4393
 8324WAT      O34015   3.153   5.375   3.293  0.3613 -0.0040 -0.4385
 8324WAT     H134016   3.235   5.399   3.279  1.0000 -1.8858 -0.2705
 8324WAT     H234017   3.123   5.356   3.214  0.9256 -1.6227 -0.3164
 8324WAT    EPW34018   3.161   5.376   3.279  0.5390 -0.5211 -0.3957
 8325WAT      O34019   4.496   0.225   1.129  0.1200  0.2239 -0.3565
 8325WAT     H134020   4.494   0.154   1.078 -0.9502 -0.2858  0.3825
 8325WAT     H234021   4.546   0.201   1.196 -0.2723  0.1610 -0.0881
 8325WAT    EPW34022   4.503   0.211   1.131 -0.0960  0.1393 -0.2077
 8326WAT      O34023   2.983   1.798   6.773  0.2800 -0.3028  0.0421
 8326WAT     H134024   3.037   1.800   6.841  0.1773  0.6370  0.1004
 8326WAT     H234025   3.029   1.832   6.708 -0.2855  0.7018  0.1414
 8326WAT    EPW34026   2.998   1.803   6.773  0.1813 -0.0156  0.0653
 8327WAT      O34027   1.104   2.991   1.207 -0.0760 -0.6133 -0.2252
 8327WAT     H134028   1.131   2.956   1.132  0.1792  0.2703 -0.5628
 8327WAT     H234029   1.018   3.001   1.194  0.2826  1.8140 -1.4374
 8327WAT    EPW34030   1.095   2.987   1.194  0.0146 -0.1242 -0.4541
 8328WAT      O34031   3.589   4.307   0.693 -0.1429 -0.4506  0.4363
 8328WAT     H134032   3.593   4.389   0.722 -1.4420 -0.5978  1.0925
 8328WAT     H234033   3.611   4.314   0.609  1.3610  0.3203  0.8435
 8328WAT    EPW34034   3.593   4.320   0.685 -0.1126 -0.3585  0.5934
 8329WAT      O34035   4.396   0.406   4.839 -0.4428  0.0943  0.0207
 8329WAT     H134036   4.343   0.431   4.904 -0.1364 -0.1656  0.3777
 8329WAT     H234037   4.369   0.326   4.820  0.5627 -0.5330  1.0342
 8329WAT    EPW34038   4.384   0.398   4.846 -0.2490 -0.0367  0.2231
 8330WAT      O34039   1.858   5.991   6.217  0.2818  0.8457 -0.5694
 8330WAT     H134040   1.834   5.958   6.293  0.4660  1.2225 -0.3423
 8330WAT     H234041   1.809   6.063   6.209 -0.8359  0.0016 -1.5197
 8330WAT    EPW34042   1.848   5.997   6.227  0.1439  0.7767 -0.6762
 8331WAT      O34043   6.098   0.522   6.050  0.2020 -0.2601 -0.4513
 8331WAT     H134044   6.066   0.599   6.026  1.4649  0.2157 -0.6858
 8331WAT     H234045   6.168   0.512   6.000  1.1271 -0.6842  0.8648
 8331WAT    EPW34046   6.104   0.532   6.039  0.5252 -0.2524 -0.2916
 8332WAT      O34047   2.189   0.556   1.277  0.0680  0.0774 -0.1809
 8332WAT     H134048   2.174   0.596   1.201 -1.0455  2.5094  1.2195
 8332WAT     H234049   2.272   0.574   1.295  0.1483  0.0293 -0.5040
 8332WAT    EPW34050   2.199   0.564   1.269 -0.0846  0.4295 -0.0218
 8333WAT      O34051   6.161   7.017   4.495  0.5679 -0.1276 -0.5438
 8333WAT     H134052   6.160   6.952   4.553  0.9003  0.0387 -0.3526
 8333WAT     H234053   6.077   7.023   4.471  0.3904 -0.0651  0.0696
 8333WAT    EPW34054   6.148   7.008   4.500  0.5908 -0.0938 -0.4250
 8334WAT      O34055   3.447   1.536   1.659 -0.1359  0.5658  0.0118
 8334WAT     H134056   3.527   1.568   1.671 -0.6762  1.8804  0.2835
 8334WAT     H234057   3.402   1.603   1.627 -0.8834 -0.4488 -1.1818
 8334WAT    EPW34058   3.452   1.550   1.656 -0.3261  0.6101 -0.1244
 8335WAT      O34059   5.857   5.691   0.032  0.1806 -0.0704  0.3226
 8335WAT     H134060   5.917   5.729  -0.018  0.0515  2.7707  2.0769
 8335WAT     H234061   5.905   5.648   0.092  0.3502 -1.2284 -0.6067
 8335WAT    EPW34062   5.873   5.690   0.034  0.1866  0.1782  0.4445
 8336WAT      O34063   0.662   5.458   1.901  0.0189  0.2895  0.1040
 8336WAT     H134064   0.614   5.458   1.974  0.9594  1.5245  0.7693
 8336WAT     H234065   0.701   5.379   1.902  0.0106  0.2915  0.9283
 8336WAT    EPW34066   0.661   5.446   1.912  0.1566  0.4722  0.3240
 8337WAT      O34067   0.982   5.009   1.215 -0.2505 -0.0564  0.0347
 8337WAT     H134068   1.065   5.026   1.240 -1.0012  1.6027  1.6736
 8337WAT     H234069   0.971   5.061   1.146 -0.2938  0.7116  0.6038
 8337WAT    EPW34070   0.993   5.020   1.209 -0.3678  0.3022  0.3608
 8338WAT      O34071   7.177   5.585   3.721  0.0334 -0.4921  0.5050
 8338WAT     H134072   7.130   5.655   3.742  0.8699 -0.0599  0.9951
 8338WAT     H234073   7.178   5.587   3.633  1.6475  1.2570  0.4891
 8338WAT    EPW34074   7.170   5.596   3.711  0.3954 -0.1699  0.5750
 8339WAT      O34075   1.865   1.836   4.198  0.1589  0.0992  1.0671
 8339WAT     H134076   1.832   1.766   4.156 -1.3448  1.6093 -0.4475
 8339WAT     H234077   1.807   1.850   4.262  1.2220 -0.8320  2.2763
 8339WAT    EPW34078   1.852   1.828   4.201  0.0939  0.1847  1.0220
 8340WAT      O34079   4.831   4.850   3.826  0.5952 -0.1633 -0.4059
 8340WAT     H134080   4.897   4.821   3.776  1.1674 -0.5130  0.5227
 8340WAT     H234081   4.872   4.884   3.895 -0.1941 -0.0103 -0.0053
 8340WAT    EPW34082   4.847   4.851   3.829  0.5631 -0.1924 -0.2095
 8341WAT      O34083   6.214   5.571   1.669 -0.2385  0.1213 -0.0597
 8341WAT     H134084   6.209   5.657   1.653  0.0481 -0.0903 -1.4269
 8341WAT     H234085   6.139   5.554   1.711  0.7113  1.4161  2.3529
 8341WAT    EPW34086   6.202   5.581   1.673 -0.0559  0.2813  0.0947
 8342WAT      O34087   6.133   6.259   0.169 -0.2996  0.3032 -0.3711
 8342WAT     H134088   6.170   6.251   0.091  1.5630  0.9716  0.3834
 8342WAT     H234089   6.193   6.228   0.224 -1.0503  0.9776  0.8944
 8342WAT    EPW34090   6.147   6.254   0.166 -0.1353  0.5016 -0.0727
 8343WAT      O34091   0.386   0.292   5.912  0.8278 -0.2041 -0.1718
 8343WAT     H134092   0.360   0.340   5.844  0.8241  0.0989  0.0435
 8343WAT     H234093   0.470   0.313   5.921  0.5210  0.7017  0.6970
 8343WAT    EPW34094   0.395   0.302   5.903  0.7819 -0.0256 -0.0117
 8344WAT      O34095   4.090   1.182   7.221  0.2481  0.0577  0.5017
 8344WAT     H134096   4.124   1.165   7.143 -0.9127  0.5327 -0.1220
 8344WAT     H234097   4.148   1.237   7.257  1.6603 -1.5067  0.6973
 8344WAT    EPW34098   4.104   1.188   7.215  0.2853 -0.1032  0.4384
 8345WAT      O34099   0.325   4.084   0.074 -0.0801 -0.2374  0.2833
 8345WAT     H134100   0.307   4.015   0.125 -1.8499  0.0112  0.0515
 8345WAT     H234101   0.408   4.071   0.052  0.0838 -1.4974  1.4659
 8345WAT    EPW34102   0.335   4.072   0.079 -0.3173 -0.3868  0.4237
 8346WAT      O34103   3.636   5.299   5.208 -0.5538  0.2331 -0.1040
 8346WAT     H134104   3.611   5.219   5.185  0.8008 -0.2743  0.1183
 8346WAT     H234105   3.645   5.341   5.132 -1.4722  0.2520 -0.2109
 8346WAT    EPW34106   3.634   5.293   5.193 -0.4894  0.1609 -0.0870
 8347WAT      O34107   6.142   3.082   2.607  0.0941  0.0610 -0.0926
 8347WAT     H134108   6.169   3.135   2.671 -1.9060  1.9397 -0.6525
 8347WAT     H234109   6.177   3.005   2.627  0.7547  0.9285  2.4201
 8347WAT    EPW34110   6.151   3.079   2.619 -0.1037  0.4667  0.1959
 8348WAT      O34111   5.546   6.775   4.259  0.3571  0.1812 -0.3438
 8348WAT     H134112   5.548   6.842   4.315 -1.0382  1.3129 -1.5848
 8348WAT     H234113   5.570   6.707   4.308  1.0873  1.4556  1.1325
 8348WAT    EPW34114   5.550   6.775   4.275  0.2589  0.5366 -0.3091
 8349WAT      O34115   6.993   4.413   3.862 -0.5268  0.1737 -0.1172
 8349WAT     H134116   6.970   4.468   3.798 -0.4640 -1.1761 -1.3418
 8349WAT     H234117   6.922   4.411   3.913 -1.0741  0.2927 -0.8449
 8349WAT    EPW34118   6.979   4.421   3.860 -0.5984 -0.0081 -0.4056
 8350WAT      O34119   5.617   3.123   2.290 -0.1844  0.0477  0.0796
 8350WAT     H134120   5.614   3.038   2.272  0.2627 -0.3548  1.7512
 8350WAT     H234121   5.581   3.160   2.220 -1.3827 -1.5681 -0.2067
 8350WAT    EPW34122   5.611   3.116   2.277 -0.2953 -0.2505  0.2842
 8351WAT      O34123   3.802   1.190   7.184  0.7009  0.5352 -0.4888
 8351WAT     H134124   3.887   1.185   7.204  0.6153 -0.7399 -0.3252
 8351WAT     H234125   3.799   1.162   7.101  0.2771 -1.1476  0.0540
 8351WAT    EPW34126   3.814   1.185   7.174  0.6257  0.0983 -0.3844
 8352WAT      O34127   1.246   7.196   2.087  0.0167 -0.0127 -0.4869
 8352WAT     H134128   1.168   7.172   2.118 -0.1432  0.7542 -0.2646
 8352WAT     H234129   1.245   7.283   2.094  1.0940 -0.0202 -0.0035
 8352WAT    EPW34130   1.234   7.206   2.092  0.1522  0.0995 -0.3827
 8353WAT      O34131   2.831   0.673   3.267  0.3927 -0.4127 -0.2698
 8353WAT     H134132   2.853   0.606   3.318  0.4787  0.3305  0.6911
 8353WAT     H234133   2.904   0.721   3.263  0.1090  0.0236 -0.3081
 8353WAT    EPW34134   2.845   0.670   3.274  0.3635 -0.2385 -0.1335
 8354WAT      O34135   4.094   1.846   5.376 -0.0885  1.0427 -0.1517
 8354WAT     H134136   4.090   1.907   5.438  0.1646  0.4001  0.5167
 8354WAT     H234137   4.180   1.831   5.367 -0.1265  1.0977 -0.6271
 8354WAT    EPW34138   4.106   1.853   5.384 -0.0567  0.9559 -0.1232
 8355WAT      O34139   6.313   6.695   3.470 -0.0087  0.2931 -0.4562
 8355WAT     H134140   6.331   6.691   3.555 -1.2130  1.0019 -0.1424
 8355WAT     H234141   6.391   6.695   3.432  0.5366 -0.1891  0.6398
 8355WAT    EPW34142   6.327   6.695   3.477 -0.1061  0.3265 -0.2479
 8356WAT      O34143   3.694   4.985   4.106 -0.2848  0.1548 -0.1088
 8356WAT     H134144   3.778   4.966   4.124  1.0460  4.0832 -1.1245
 8356WAT     H234145   3.660   5.001   4.185  0.3706  0.0537  0.2037
 8356WAT    EPW34146   3.701   4.984   4.121  0.0086  0.7202 -0.2127
 8357WAT      O34147   5.610   5.768   5.165 -0.3142  0.0306 -0.1683
 8357WAT     H134148   5.546   5.722   5.127  0.0538  0.3715 -1.2384
 8357WAT     H234149   5.568   5.830   5.209 -0.7509 -0.2473 -0.1921
 8357WAT    EPW34150   5.594   5.770   5.166 -0.3243  0.0399 -0.3299
 8358WAT      O34151   5.342   2.879   3.473  0.8135  0.4287 -0.0194
 8358WAT     H134152   5.265   2.919   3.483  0.1188 -1.5156  5.2792
 8358WAT     H234153   5.322   2.806   3.431 -0.1078  0.3264  0.5733
 8358WAT    EPW34154   5.328   2.874   3.468  0.5748  0.1264  0.8509
 8359WAT      O34155   4.789   2.994   0.151  0.4012 -0.0895 -0.3327
 8359WAT     H134156   4.826   3.061   0.110  1.3259  0.2657  1.0106
 8359WAT     H234157   4.782   2.933   0.089  2.8225  0.0107 -0.7739
 8359WAT    EPW34158   4.793   2.995   0.136  0.8955 -0.0223 -0.1995
 8360WAT      O34159   0.328   3.532   1.215 -0.5339  0.5471  0.0445
 8360WAT     H134160   0.386   3.597   1.223  0.5169 -0.2078 -0.9598
 8360WAT     H234161   0.378   3.464   1.192 -1.7308 -0.3434  0.0266
 8360WAT    EPW34162   0.344   3.532   1.213 -0.5555  0.3041 -0.1065
 8361WAT      O34163   4.007   5.621   2.479 -0.1073  0.4174 -0.4711
 8361WAT     H134164   4.054   5.554   2.510 -0.2127 -0.4545 -2.0834
 8361WAT     H234165   4.013   5.681   2.542  1.7226 -0.3162  0.1167
 8361WAT    EPW34166   4.015   5.620   2.493  0.1475  0.1802 -0.6225
 8362WAT      O34167   1.171   2.673   4.760  0.5498 -0.2554 -0.4337
 8362WAT     H134168   1.092   2.643   4.738 -0.7642  1.9919  0.8708
 8362WAT     H234169   1.192   2.628   4.832 -0.1929  0.0574 -0.0110
 8362WAT    EPW34170   1.162   2.662   4.767  0.2460  0.1228 -0.1786
 8363WAT      O34171   6.752   1.792   1.679 -0.5500 -0.0718  0.1558
 8363WAT     H134172   6.829   1.800   1.720 -0.5214  0.7965 -0.0460
 8363WAT     H234173   6.709   1.733   1.728  1.1353 -2.5444 -1.1332
 8363WAT    EPW34174   6.757   1.785   1.693 -0.2968 -0.3088 -0.0644
 8364WAT      O34175   6.667   0.463   3.288  0.4381  0.2188  0.4526
 8364WAT     H134176   6.613   0.471   3.220  1.3613 -1.0798 -0.4759
 8364WAT     H234177   6.676   0.377   3.298  1.5897  0.3932  1.1790
 8364WAT    EPW34178   6.661   0.452   3.279  0.7446  0.0528  0.4227
 8365WAT      O34179   4.775   2.505   3.317  0.4480  0.1727  0.0071
 8365WAT     H134180   4.723   2.553   3.266  0.5816 -0.3801 -0.6603
 8365WAT     H234181   4.808   2.563   3.373 -0.1696  0.6835 -0.1516
 8365WAT    EPW34182   4.772   2.521   3.318  0.3765  0.1665 -0.1149
 8366WAT      O34183   2.152   1.633   3.921  1.0901  0.6084 -0.1637
 8366WAT     H134184   2.067   1.619   3.905  1.2772 -0.7484 -0.1093
 8366WAT     H234185   2.156   1.642   4.008  1.1086 -0.3108 -0.0589
 8366WAT    EPW34186   2.140   1.632   3.931  1.1204  0.2722 -0.1402
 8367WAT      O34187   1.281   6.793   6.441 -0.1545 -0.0315  0.2193
 8367WAT     H134188   1.258   6.714   6.469  0.0999  0.4342  1.8257
 8367WAT     H234189   1.215   6.844   6.468  1.7322  1.0173  3.2949
 8367WAT    EPW34190   1.268   6.789   6.449  0.1618  0.1923  0.9109
 8368WAT      O34191   1.242   0.783   3.837  0.4920 -0.7237 -0.2129
 8368WAT     H134192   1.236   0.818   3.757 -0.7321 -0.6119 -0.0893
 8368WAT     H234193   1.309   0.727   3.830  0.2056 -0.9465 -1.4109
 8368WAT    EPW34194   1.251   0.780   3.824  0.2689 -0.7401 -0.3716
 8369WAT      O34195   5.484   0.740   0.078  0.8070 -0.3678  0.2793
 8369WAT     H134196   5.465   0.667   0.123 -0.3489 -0.6366 -0.5958
 8369WAT     H234197   5.523   0.791   0.137 -1.2284 -0.4424  1.7863
 8369WAT    EPW34198   5.487   0.736   0.093  0.3356 -0.4186  0.3727
 8370WAT      O34199   1.607   1.718   6.593 -0.1480  0.2193  0.0759
 8370WAT     H134200   1.634   1.653   6.645 -1.1922  1.4038  2.1885
 8370WAT     H234201   1.668   1.779   6.603  0.0993  0.1379 -0.8224
 8370WAT    EPW34202   1.620   1.717   6.602 -0.2657  0.3822  0.2553
 8371WAT      O34203   2.968   6.216   2.421  0.2682 -0.2018  0.0403
 8371WAT     H134204   2.941   6.133   2.431  1.2887 -0.7500 -1.2787
 8371WAT     H234205   3.023   6.228   2.487 -0.2756 -0.3884  0.5373
 8371WAT    EPW34206   2.972   6.205   2.432  0.3386 -0.3104 -0.0811
 8372WAT      O34207   5.740   5.793   4.038 -0.2058  0.3461  0.1789
 8372WAT     H134208   5.826   5.799   4.053  0.2513  0.3162 -1.9899
 8372WAT     H234209   5.737   5.772   3.953 -2.3158 -1.6359  0.6618
 8372WAT    EPW34210   5.753   5.791   4.027 -0.4500  0.0489 -0.0702
 8373WAT      O34211   2.338   5.306   4.697  0.1989 -0.2237 -0.4747
 8373WAT     H134212   2.379   5.357   4.755 -1.0061 -0.0586  0.2493
 8373WAT     H234213   2.370   5.334   4.620  1.5891 -0.2464  0.0540
 8373WAT    EPW34214   2.349   5.317   4.694  0.2262 -0.2027 -0.2897
 8374WAT      O34215   1.922   4.492   6.078 -0.3302 -0.5118 -0.3306
 8374WAT     H134216   1.946   4.459   6.155 -2.1504  0.3519  0.6919
 8374WAT     H234217   1.839   4.465   6.069 -1.8016  3.1947  0.3807
 8374WAT    EPW34218   1.913   4.483   6.088 -0.8164  0.1633 -0.0745
 8375WAT      O34219   1.935   2.786   2.390  0.0269 -0.6976  0.3173
 8375WAT     H134220   1.926   2.824   2.468  0.1977  0.2947 -0.1402
 8375WAT     H234221   1.911   2.703   2.405 -2.6052  0.0711  0.8520
 8375WAT    EPW34222   1.930   2.779   2.404 -0.3367 -0.4374  0.3287
 8376WAT      O34223   0.754   4.358   6.123  0.1879  0.1030 -0.2433
 8376WAT     H134224   0.741   4.315   6.049  0.3517 -0.8775  0.2800
 8376WAT     H234225   0.678   4.352   6.164  0.3644 -0.1322  0.0540
 8376WAT    EPW34226   0.741   4.351   6.118  0.2381 -0.0766 -0.1221
 8377WAT      O34227   4.954   6.742   1.916 -0.1779 -0.3126 -0.2938
 8377WAT     H134228   4.977   6.786   1.988  0.7006 -0.3064 -0.5661
 8377WAT     H234229   4.947   6.660   1.943  2.4281 -0.7120 -0.6321
 8377WAT    EPW34230   4.956   6.737   1.931  0.3369 -0.3707 -0.3840
 8378WAT      O34231   6.529   1.385   4.555 -0.0621  0.7738 -0.4082
 8378WAT     H134232   6.481   1.335   4.502 -0.5485  0.8855 -0.0766
 8378WAT     H234233   6.507   1.358   4.635  0.5235  0.7414 -0.2515
 8378WAT    EPW34234   6.519   1.374   4.559 -0.0474  0.7855 -0.3361
 8379WAT      O34235   2.348   5.190   2.783  0.1980  0.1667 -0.3936
 8379WAT     H134236   2.340   5.247   2.718  0.8623  0.7735  0.0443
 8379WAT     H234237   2.320   5.234   2.853  1.1709  0.1387  0.0289
 8379WAT    EPW34238   2.343   5.205   2.784  0.4398  0.2522 -0.2665
 8380WAT      O34239   4.845   0.555   4.122  0.1971  0.2225 -0.5138
 8380WAT     H134240   4.835   0.504   4.053  1.6615  0.0171 -0.5907
 8380WAT     H234241   4.931   0.558   4.134 -0.0004  0.6490  1.0041
 8380WAT    EPW34242   4.856   0.548   4.114  0.3843  0.2552 -0.3009
 8381WAT      O34243   6.447   4.462   6.111 -0.3312  0.2439  0.1310
 8381WAT     H134244   6.385   4.502   6.065 -2.0471 -2.1468  0.1649
 8381WAT     H234245   6.461   4.388   6.066  1.4251  0.0314  0.9568
 8381WAT    EPW34246   6.440   4.457   6.097 -0.3252 -0.1406  0.2580
 8382WAT      O34247   0.155   1.661   2.130 -0.0478 -0.1360  0.0982
 8382WAT     H134248   0.093   1.655   2.069 -0.0676 -1.1586  0.1939
 8382WAT     H234249   0.115   1.630   2.202  1.2401 -3.2723 -0.3707
 8382WAT    EPW34250   0.140   1.656   2.132  0.1395 -0.7503  0.0430
 8383WAT      O34251   0.488   5.736   7.090 -0.6921  0.4219  0.4086
 8383WAT     H134252   0.423   5.702   7.043 -0.4375  0.0998  0.2890
 8383WAT     H234253   0.478   5.700   7.168 -1.7912  1.7955  0.9533
 8383WAT    EPW34254   0.477   5.726   7.095 -0.8169  0.5772  0.4714
 8384WAT      O34255   1.736   1.155   7.373  0.0463 -0.7634  0.3096
 8384WAT     H134256   1.733   1.230   7.328 -0.4167 -0.8771  0.1428
 8384WAT     H234257   1.821   1.135   7.375  0.1446 -0.3526  0.1548
 8384WAT    EPW34258   1.748   1.163   7.366 -0.0076 -0.7195  0.2621
 8385WAT      O34259   5.220   4.921   1.529  0.0568  0.1314 -0.2245
 8385WAT     H134260   5.244   5.004   1.517 -1.2577  0.3885 -1.2840
 8385WAT     H234261   5.183   4.921   1.608  0.4985  0.4274 -0.0092
 8385WAT    EPW34262   5.218   4.933   1.539 -0.0721  0.2131 -0.3492
 8386WAT      O34263   2.899   0.475   5.792 -0.2917 -0.2696 -0.2061
 8386WAT     H134264   2.962   0.461   5.734  0.8812 -1.0641  1.1751
 8386WAT     H234265   2.940   0.513   5.859 -1.1507 -1.2174  0.9233
 8386WAT    EPW34266   2.914   0.479   5.794 -0.2453 -0.5270  0.1648
 8387WAT      O34267   5.935   5.052   1.010  0.0304  0.5663 -0.0907
 8387WAT     H134268   5.899   4.997   0.952  0.0946 -0.2227  0.6086
 8387WAT     H234269   5.866   5.088   1.049 -0.0101  0.8922 -0.4538
 8387WAT    EPW34270   5.919   5.049   1.007  0.0339  0.4979 -0.0410
 8388WAT      O34271   7.212   5.055   0.661  0.0506 -0.2733  0.1724
 8388WAT     H134272   7.178   5.078   0.738 -0.0090 -1.8385  0.6488
 8388WAT     H234273   7.236   5.131   0.625 -2.0809  0.7356  0.6965
 8388WAT    EPW34274   7.210   5.069   0.667 -0.2730 -0.3555  0.3202
 8389WAT      O34275   2.109   0.086   4.115 -0.0451 -0.1762  0.0428
 8389WAT     H134276   2.049   0.035   4.078 -0.1241 -0.5921  0.7200
 8389WAT     H234277   2.063   0.155   4.143 -0.6755 -1.5038  2.5763
 8389WAT    EPW34278   2.093   0.089   4.114 -0.1499 -0.4337  0.5171
 8390WAT      O34279   1.377   6.148   3.385  0.4089 -0.0896 -0.3665
 8390WAT     H134280   1.405   6.068   3.407  0.2849  0.2303  1.0639
 8390WAT     H234281   1.451   6.192   3.373  0.5334  0.1095  0.9573
 8390WAT    EPW34282   1.392   6.143   3.387  0.4090 -0.0129  0.0403
 8391WAT      O34283   2.848   3.251   4.766  0.5563  0.0758  0.3088
 8391WAT     H134284   2.885   3.233   4.689  1.1671 -1.4898  0.9389
 8391WAT     H234285   2.904   3.306   4.803  1.5370 -1.1191  0.6392
 8391WAT    EPW34286   2.861   3.257   4.760  0.7914 -0.3319  0.4507
 8392WAT      O34287   2.649   5.413   4.217 -0.4389 -0.0201  0.2482
 8392WAT     H134288   2.656   5.424   4.131 -0.6490  1.7111  0.4190
 8392WAT     H234289   2.714   5.357   4.236 -0.2974 -0.3008 -0.9932
 8392WAT    EPW34290   2.660   5.406   4.207 -0.4490  0.1942  0.0901
 8393WAT      O34291   0.159   2.445   0.553  0.6668 -0.2690  0.4012
 8393WAT     H134292   0.170   2.530   0.569  1.4573 -0.2680 -0.0601
 8393WAT     H234293   0.208   2.406   0.613 -0.6058 -0.4539  1.3476
 8393WAT    EPW34294   0.168   2.452   0.564  0.5956 -0.2962  0.4729
 8394WAT      O34295   5.530   5.836   2.815  0.2773 -0.1503  0.2612
 8394WAT     H134296   5.585   5.901   2.795  0.2955 -0.6000 -1.2673
 8394WAT     H234297   5.578   5.764   2.801 -0.9962 -0.6183 -2.4665
 8394WAT    EPW34298   5.545   5.835   2.810  0.0918 -0.2858 -0.3675
 8395WAT      O34299   5.717   1.697   4.398  0.0710 -0.1948 -0.2667
 8395WAT     H134300   5.658   1.738   4.448 -0.2424 -0.9027 -0.0495
 8395WAT     H234301   5.669   1.662   4.334  0.5964  1.7476 -1.8172
 8395WAT    EPW34302   5.701   1.698   4.396  0.1023 -0.0124 -0.4636
 8396WAT      O34303   6.948   5.047   1.809  0.1743  0.4465  0.1791
 8396WAT     H134304   6.878   5.092   1.833  0.3124  1.8417 -1.7606
 8396WAT     H234305   6.920   4.965   1.804 -1.2504  0.9331 -0.2313
 8396WAT    EPW34306   6.934   5.042   1.812 -0.0157  0.7245 -0.1681
 8397WAT      O34307   5.569   4.251   6.098  0.2667 -0.6188 -0.0869
 8397WAT     H134308   5.571   4.212   6.176  2.3958 -2.2553 -0.8742
 8397WAT     H234309   5.544   4.186   6.044  0.6381 -0.0036 -1.0145
 8397WAT    EPW34310   5.565   4.236   6.102  0.6361 -0.7697 -0.3402
 8398WAT      O34311   4.885   2.986   4.109  0.5864 -0.0435  0.1348
 8398WAT     H134312   4.896   3.073   4.100 -0.5439  0.2611  1.4107
 8398WAT     H234313   4.918   2.969   4.188 -1.3329 -0.3138  0.9433
 8398WAT    EPW34314   4.891   2.997   4.119  0.1359 -0.0385  0.4427
 8399WAT      O34315   4.284   1.118   0.513  0.4818  0.4874 -0.2562
 8399WAT     H134316   4.325   1.053   0.471  1.0991  0.2162  0.7192
 8399WAT     H234317   4.251   1.167   0.449  2.4224  0.7711 -1.1028
 8399WAT    EPW34318   4.285   1.115   0.498  0.8597  0.4892 -0.2371
 8400WAT      O34319   2.063   1.496   6.819 -0.1811  0.1203  0.4580
 8400WAT     H134320   2.117   1.428   6.812 -0.2299 -0.0038  1.1726
 8400WAT     H234321   2.021   1.497   6.743  1.5449  0.8587 -0.5629
 8400WAT    EPW34322   2.065   1.486   6.807  0.0666  0.2111  0.4127
 8401WAT      O34323   3.095   4.751   2.672  0.1052  0.2030 -0.3308
 8401WAT     H134324   3.137   4.677   2.688 -0.1058  0.1901  0.1971
 8401WAT     H234325   3.117   4.802   2.739 -0.7659  0.1726 -0.0002
 8401WAT    EPW34326   3.104   4.748   2.684 -0.0546  0.1966 -0.2040
 8402WAT      O34327   2.786   1.752   7.310  0.0691  0.8594  0.0969
 8402WAT     H134328   2.771   1.666   7.305  2.7777  0.3422 -0.8418
 8402WAT     H234329   2.830   1.761   7.385 -2.0776  1.8638  1.3480
 8402WAT    EPW34330   2.790   1.741   7.320  0.1521  0.9313  0.1430
 8403WAT      O34331   5.630   3.935   1.375 -0.4008 -0.2225  0.8207
 8403WAT     H134332   5.682   3.901   1.314 -0.0575 -0.9418  1.4942
 8403WAT     H234333   5.671   4.008   1.400 -0.7181  0.2604 -0.0440
 8403WAT    EPW34334   5.643   3.940   1.370 -0.3970 -0.2574  0.7925
 8404WAT      O34335   2.749   1.947   5.579  0.0317  0.2194  0.2107
 8404WAT     H134336   2.763   2.032   5.565  0.6524 -0.1631 -1.7319
 8404WAT     H234337   2.663   1.941   5.587 -0.1917  0.8156 -1.4489
 8404WAT    EPW34338   2.739   1.959   5.578  0.0904  0.2510 -0.3214
 8405WAT      O34339   7.014   5.034   5.324 -0.0076 -0.3293 -0.7005
 8405WAT     H134340   7.092   5.071   5.343 -0.2004  0.1032 -0.7331
 8405WAT     H234341   7.008   4.969   5.382 -0.7197  1.1527  0.9813
 8405WAT    EPW34342   7.025   5.030   5.336 -0.1413 -0.0465 -0.4569
 8406WAT      O34343   0.660   2.043   2.715  0.4348  0.3515 -0.2810
 8406WAT     H134344   0.600   2.073   2.771 -0.1365 -0.1789 -0.5808
 8406WAT     H234345   0.612   2.021   2.645  0.9226 -0.4913 -0.3676
 8406WAT    EPW34346   0.644   2.044   2.713  0.4224  0.1487 -0.3381
 8407WAT      O34347   4.978   6.950   6.840  0.5124  0.1451  0.1032
 8407WAT     H134348   4.948   6.952   6.922  0.3924  1.8307  0.0524
 8407WAT     H234349   4.906   6.947   6.791  0.4268  2.2243  0.0254
 8407WAT    EPW34350   4.963   6.950   6.845  0.4820  0.7012  0.0842
 8408WAT      O34351   5.899   6.220   5.373  0.3542 -0.4405 -0.0988
 8408WAT     H134352   5.888   6.141   5.338 -1.6293 -0.5237  0.5919
 8408WAT     H234353   5.984   6.222   5.392  0.5260 -2.2803 -0.4570
 8408WAT    EPW34354   5.910   6.208   5.371  0.0866 -0.7246 -0.0497
 8409WAT      O34355   0.557   4.714   4.793 -0.3446  0.1360 -0.2422
 8409WAT     H134356   0.591   4.641   4.759  0.1865  0.6365 -0.8094
 8409WAT     H234357   0.600   4.723   4.868  0.2056  0.3208 -0.5730
 8409WAT    EPW34358   0.569   4.704   4.799 -0.1848  0.2372 -0.3749
 8410WAT      O34359   3.608   0.787   0.957 -0.1648  0.4048  0.0059
 8410WAT     H134360   3.534   0.769   0.999  0.6699  0.6803  1.6754
 8410WAT     H234361   3.598   0.870   0.932 -1.6064 -0.4193 -2.4930
 8410WAT    EPW34362   3.595   0.797   0.960 -0.2544  0.3238 -0.1166
 8411WAT      O34363   2.152   1.608   4.560  0.0909  0.2074  0.5124
 8411WAT     H134364   2.180   1.537   4.603  1.6051 -0.2644 -1.1102
 8411WAT     H234365   2.113   1.574   4.489 -1.4172  0.9812  0.9237
 8411WAT    EPW34366   2.150   1.592   4.556  0.0918  0.2520  0.3335
 8412WAT      O34367   6.392   4.616   3.273  0.0511 -0.0381 -0.0998
 8412WAT     H134368   6.345   4.608   3.346 -0.1508  1.8414  0.0173
 8412WAT     H234369   6.449   4.679   3.291  0.8447 -0.4222 -1.1479
 8412WAT    EPW34370   6.393   4.624   3.286  0.1385  0.1828 -0.2373
 8413WAT      O34371   0.770   3.839   5.974 -0.0022  0.6128  0.0285
 8413WAT     H134372   0.777   3.812   6.056 -2.4802  0.1534  0.1411
 8413WAT     H234373   0.707   3.790   5.940  0.1066  1.6244 -1.7985
 8413WAT    EPW34374   0.762   3.828   5.981 -0.3522  0.6944 -0.2247
 8414WAT      O34375   1.030   1.405   4.773  0.3831 -0.3667 -0.2241
 8414WAT     H134376   1.033   1.327   4.734 -1.6084 -0.5328 -0.1421
 8414WAT     H234377   1.015   1.460   4.707  0.4871 -0.2157 -0.1206
 8414WAT    EPW34378   1.028   1.402   4.758  0.1042 -0.3689 -0.1967
 8415WAT      O34379   7.177   6.758   4.487 -0.3568  0.3062 -1.0481
 8415WAT     H134380   7.093   6.773   4.471 -0.3256 -0.2817 -1.8259
 8415WAT     H234381   7.192   6.680   4.449  0.7905  0.8945 -1.8865
 8415WAT    EPW34382   7.167   6.749   4.479 -0.1827  0.3063 -1.2868
 8416WAT      O34383   2.091   0.445   6.508  0.5099 -0.2924  0.5403
 8416WAT     H134384   2.009   0.419   6.521 -0.8169  2.2720 -1.6409
 8416WAT     H234385   2.121   0.460   6.589 -1.0975 -1.4426  1.3963
 8416WAT    EPW34386   2.083   0.443   6.522  0.0765 -0.0835  0.3445
 8417WAT      O34387   1.211   2.587   5.456 -0.2582 -0.2111  0.4583
 8417WAT     H134388   1.251   2.531   5.510 -1.1078 -0.1171  1.2120
 8417WAT     H234389   1.276   2.616   5.405  0.6798  0.0472  1.7419
 8417WAT    EPW34390   1.226   2.583   5.457 -0.2451 -0.1591  0.7593
 8418WAT      O34391   7.221   0.507   6.948  0.6402 -0.3504 -0.0003
 8418WAT     H134392   7.304   0.513   6.976  0.2933  0.2502  0.9376
 8418WAT     H234393   7.199   0.590   6.931 -0.1092 -0.3699  0.7943
 8418WAT    EPW34394   7.230   0.520   6.950  0.4782 -0.2646  0.2556
 8419WAT      O34395   5.300   5.480   4.820 -0.1217  0.4323  0.1689
 8419WAT     H134396   5.280   5.398   4.843 -1.0590  0.5753 -0.0882
 8419WAT     H234397   5.222   5.514   4.800  0.5044  0.6689 -2.0413
 8419WAT    EPW34398   5.285   5.473   4.821 -0.1677  0.4884 -0.1956
 8420WAT      O34399   4.727   4.922   4.242 -0.6714 -0.0345  0.2477
 8420WAT     H134400   4.713   4.843   4.206 -0.1985  0.3741 -0.9065
 8420WAT     H234401   4.784   4.959   4.187 -0.6870  1.0209  0.9148
 8420WAT    EPW34402   4.734   4.915   4.228 -0.6038  0.1818  0.1757
 8421WAT      O34403   3.791   0.162   5.938  0.0644 -0.3800 -0.4711
 8421WAT     H134404   3.877   0.154   5.931  0.2692  1.2029 -0.3099
 8421WAT     H234405   3.767   0.092   5.984  1.0285 -1.6732 -1.8692
 8421WAT    EPW34406   3.800   0.151   5.944  0.2371 -0.3372 -0.6538
 8422WAT      O34407   6.971   0.981   0.056  0.2835 -0.5684  0.0021
 8422WAT     H134408   6.995   0.897   0.057  0.4605 -0.5162  0.5699
 8422WAT     H234409   6.956   0.997  -0.028 -0.3304 -1.3369 -0.0524
 8422WAT    EPW34410   6.972   0.971   0.044  0.2190 -0.6742  0.0780
 8423WAT      O34411   5.442   2.366   6.138 -0.1334  0.1344 -0.7297
 8423WAT     H134412   5.412   2.364   6.056  0.3952 -2.1603 -0.9271
 8423WAT     H234413   5.372   2.388   6.185 -0.9171 -0.4162 -1.6133
 8423WAT    EPW34414   5.427   2.369   6.133 -0.1711 -0.2859 -0.8894
 8424WAT      O34415   3.580   2.785   4.290  0.2562 -0.0620 -0.4648
 8424WAT     H134416   3.604   2.825   4.364  1.0028 -0.6959 -0.3531
 8424WAT     H234417   3.631   2.821   4.230  0.7537 -0.6483 -0.4043
 8424WAT    EPW34418   3.591   2.796   4.292  0.4400 -0.2422 -0.4394
 8425WAT      O34419   4.337   3.390   1.053 -0.2747  0.4089 -0.0387
 8425WAT     H134420   4.335   3.321   1.106 -0.4617 -1.4676 -2.3356
 8425WAT     H234421   4.255   3.394   1.022  0.0983  0.7664 -1.0085
 8425WAT    EPW34422   4.324   3.381   1.057 -0.2472  0.1846 -0.5212
 8426WAT      O34423   4.368   1.396   3.107  0.1788 -0.6429 -0.5250
 8426WAT     H134424   4.403   1.369   3.182  2.0055 -0.4444 -1.2476
 8426WAT     H234425   4.411   1.471   3.090 -0.6454 -0.3524 -1.4561
 8426WAT    EPW34426   4.379   1.403   3.116  0.3269 -0.5707 -0.7693
 8427WAT      O34427   5.558   2.784   1.340 -0.2037  0.2673 -0.0514
 8427WAT     H134428   5.524   2.828   1.407  0.2029 -0.8907  0.9645
 8427WAT     H234429   5.596   2.715   1.378  1.3609  0.3523 -1.3317
 8427WAT    EPW34430   5.559   2.780   1.355  0.0875  0.1088 -0.0905
 8428WAT      O34431   6.169   2.152   7.360  0.6010  0.7521  0.5101
 8428WAT     H134432   6.182   2.098   7.427 -2.2559 -1.0545 -0.2357
 8428WAT     H234433   6.116   2.213   7.393 -0.2491  0.2431  0.1219
 8428WAT    EPW34434   6.163   2.153   7.374  0.0534  0.4100  0.3426
 8429WAT      O34435   3.981   5.057   7.303  0.1990 -0.3624 -0.2829
 8429WAT     H134436   3.978   4.984   7.351  1.3072 -1.3600 -1.6480
 8429WAT     H234437   3.955   5.031   7.224  2.3329  0.2404 -1.2551
 8429WAT    EPW34438   3.977   5.042   7.299  0.6779 -0.4207 -0.6282
 8430WAT      O34439   3.512   2.436   5.219 -0.1040 -0.4233  0.6345
 8430WAT     H134440   3.588   2.468   5.191  0.1243 -3.1179 -2.4168
 8430WAT     H234441   3.453   2.490   5.182  0.3213 -1.5543 -1.9394
 8430WAT    EPW34442   3.514   2.449   5.209 -0.0075 -0.9885 -0.1965
 8431WAT      O34443   6.203   0.555   6.690  0.3002 -0.3847 -0.4341
 8431WAT     H134444   6.262   0.581   6.631  0.6555 -0.6462 -0.2026
 8431WAT     H234445   6.149   0.504   6.644 -0.8597  1.3161 -1.0644
 8431WAT    EPW34446   6.204   0.551   6.674  0.1813 -0.1721 -0.4930
 8432WAT      O34447   3.702   6.904   0.878  0.4803 -0.2989  0.4462
 8432WAT     H134448   3.714   6.858   0.951 -0.3483 -0.5940  0.4087
 8432WAT     H234449   3.651   6.969   0.903  0.2343 -0.3733  0.1373
 8432WAT    EPW34450   3.697   6.907   0.892  0.3216 -0.3535  0.3950
 8433WAT      O34451   1.663   0.544   3.551  0.1470  0.5703  0.3416
 8433WAT     H134452   1.652   0.592   3.623  0.4132 -0.7619  1.3052
 8433WAT     H234453   1.747   0.522   3.553 -0.4124 -1.7874  1.1812
 8433WAT    EPW34454   1.674   0.548   3.562  0.1037  0.0252  0.6080
 8434WAT      O34455   1.560   5.162   0.684  0.0544  0.2493 -0.5333
 8434WAT     H134456   1.501   5.111   0.723  0.7646  0.4404  0.8587
 8434WAT     H234457   1.520   5.240   0.681  0.3976  0.4918  0.8433
 8434WAT    EPW34458   1.545   5.166   0.689  0.2100  0.3134 -0.1244
 8435WAT      O34459   4.704   2.752   1.934 -0.1589 -0.3561  0.4205
 8435WAT     H134460   4.689   2.716   1.856 -0.8465 -0.7505  0.7241
 8435WAT     H234461   4.639   2.722   1.983 -0.4086  0.8291  0.8493
 8435WAT    EPW34462   4.692   2.742   1.930 -0.2973 -0.2393  0.5287
 8436WAT      O34463   1.722   3.106   6.132 -0.0327  0.1436 -0.2331
 8436WAT     H134464   1.738   3.141   6.054 -0.2403 -0.5373 -0.5932
 8436WAT     H234465   1.687   3.028   6.113  0.2636 -0.1948  0.5374
 8436WAT    EPW34466   1.719   3.100   6.118 -0.0196 -0.0070 -0.1725
 8437WAT      O34467   3.768   4.706   2.168 -0.3655  0.1123 -0.0274
 8437WAT     H134468   3.761   4.777   2.118 -0.6577  0.6563  0.7799
 8437WAT     H234469   3.742   4.641   2.115  0.8906  0.4519 -1.0992
 8437WAT    EPW34470   3.763   4.707   2.153 -0.2231  0.2429 -0.0665
 8438WAT      O34471   6.617   3.325   0.684  0.4817  0.4447  0.1254
 8438WAT     H134472   6.549   3.284   0.719  1.0046 -0.0015  0.6406
 8438WAT     H234473   6.592   3.339   0.601  0.1701 -0.6569  0.0187
 8438WAT    EPW34474   6.603   3.321   0.677  0.5129  0.2161  0.1857
 8439WAT      O34475   1.974   7.234   0.342 -0.8069  0.5664 -0.1143
 8439WAT     H134476   1.949   7.171   0.397  0.1314 -0.6186 -0.9751
 8439WAT     H234477   1.903   7.247   0.293 -1.7555  1.8579  1.5047
 8439WAT    EPW34478   1.960   7.226   0.343 -0.8084  0.5821 -0.0023
 8440WAT      O34479   5.277   2.588   2.655  1.4041  0.0321 -0.1180
 8440WAT     H134480   5.213   2.538   2.687  0.0001  0.6057 -1.9139
 8440WAT     H234481   5.324   2.609   2.726 -0.6018 -0.0753  1.3113
 8440WAT    EPW34482   5.275   2.583   2.670  0.9004  0.1010 -0.1721
 8441WAT      O34483   4.061   6.762   0.037 -0.6083 -0.1963  0.2189
 8441WAT     H134484   3.995   6.707   0.019 -0.9298 -0.0115  0.8128
 8441WAT     H234485   4.130   6.709   0.042 -0.9802 -0.6192  1.1763
 8441WAT    EPW34486   4.062   6.746   0.035 -0.7107 -0.2315  0.4481
 8442WAT      O34487   4.306   2.122   1.768  0.5819  0.3172  0.1099
 8442WAT     H134488   4.321   2.175   1.836  1.7751  0.9643 -0.6009
 8442WAT     H234489   4.259   2.171   1.714 -1.6087 -0.6717  1.0106
 8442WAT    EPW34490   4.301   2.137   1.770  0.4346  0.2667  0.1379
 8443WAT      O34491   3.303   3.117   2.887  0.7725  0.3419  0.3958
 8443WAT     H134492   3.255   3.158   2.947 -0.9717 -1.6453  0.4707
 8443WAT     H234493   3.295   3.168   2.816 -0.2087  0.8218  0.8326
 8443WAT    EPW34494   3.295   3.131   2.885  0.3699  0.1193  0.4714
 8444WAT      O34495   5.043   4.116   4.047  0.0748  0.2402 -0.6432
 8444WAT     H134496   5.059   4.031   4.052  0.0897  0.3436  1.9116
 8444WAT     H234497   5.111   4.153   4.087 -0.4685  1.3929 -0.7340
 8444WAT    EPW34498   5.055   4.109   4.053 -0.0033  0.4258 -0.2792
 8445WAT      O34499   6.221   0.110   5.261  0.7091  0.5841  0.4829
 8445WAT     H134500   6.206   0.083   5.179  1.4585  2.3322 -0.2797
 8445WAT     H234501   6.288   0.166   5.252  0.5474  1.1038  2.2358
 8445WAT    EPW34502   6.229   0.114   5.247  0.7959  0.9191  0.6292
 8446WAT      O34503   4.480   5.447   1.029 -0.0663 -0.2687  0.2347
 8446WAT     H134504   4.497   5.362   1.020 -0.3336 -0.2676 -0.2971
 8446WAT     H234505   4.501   5.463   1.112 -0.3394 -0.9248  0.4376
 8446WAT    EPW34506   4.486   5.437   1.040 -0.1461 -0.3655  0.1861
 8447WAT      O34507   0.378   1.298   4.292 -0.0745  0.0359  0.0365
 8447WAT     H134508   0.365   1.381   4.269  2.7075  0.4367 -0.4634
 8447WAT     H234509   0.383   1.255   4.216  1.5748  0.0061  0.1321
 8447WAT    EPW34510   0.377   1.304   4.278  0.5801  0.0907 -0.0232
 8448WAT      O34511   2.643   6.973   6.663 -0.0307  0.0731 -0.4204
 8448WAT     H134512   2.615   6.937   6.737 -1.8649 -0.5372 -1.3431
 8448WAT     H234513   2.711   6.922   6.639 -1.4858 -1.7850 -0.8052
 8448WAT    EPW34514   2.649   6.960   6.670 -0.5166 -0.2916 -0.6135
 8449WAT      O34515   5.312   0.116   4.790 -0.0221 -0.0295 -0.1973
 8449WAT     H134516   5.288   0.032   4.785 -0.1768 -0.0166  0.2542
 8449WAT     H234517   5.288   0.149   4.713 -1.1280 -0.1020  0.0984
 8449WAT    EPW34518   5.305   0.108   4.778 -0.2083 -0.0383 -0.0869
 8450WAT      O34519   2.039   0.688   6.400 -0.0231  0.4041 -0.1257
 8450WAT     H134520   2.110   0.739   6.409 -0.6719  1.2935  0.2061
 8450WAT     H234521   2.062   0.614   6.439  0.2500  1.1880  1.2896
 8450WAT    EPW34522   2.053   0.685   6.407 -0.0786  0.6513  0.1324
 8451WAT      O34523   6.103   1.717   3.392 -0.4319 -0.2534  0.2358
 8451WAT     H134524   6.096   1.636   3.360  0.0209 -0.4678  0.6745
 8451WAT     H234525   6.170   1.712   3.447 -0.6896  0.3121  0.6102
 8451WAT    EPW34526   6.112   1.704   3.395 -0.4031 -0.2015  0.3559
 8452WAT      O34527   2.456   6.435   1.992 -0.4522  0.6880  0.1774
 8452WAT     H134528   2.462   6.402   1.911  0.4246  2.5551 -0.5932
 8452WAT     H234529   2.428   6.517   1.978 -2.2828  0.4393  1.9533
 8452WAT    EPW34530   2.453   6.442   1.978 -0.5931  0.9271  0.3259
 8453WAT      O34531   5.322   4.065   5.505  0.2715  0.9599 -0.4572
 8453WAT     H134532   5.242   4.090   5.479  0.0345 -0.0717 -0.7741
 8453WAT     H234533   5.313   3.980   5.518  1.6892  0.5625 -1.8638
 8453WAT    EPW34534   5.309   4.056   5.503  0.4459  0.7488 -0.7118
 8454WAT      O34535   0.914   1.839   3.443  0.4843  0.2420  0.1668
 8454WAT     H134536   0.851   1.782   3.420  1.7762 -0.9882 -0.4452
 8454WAT     H234537   0.887   1.868   3.521 -0.5993 -0.6260  0.1484
 8454WAT    EPW34538   0.900   1.835   3.451  0.5151 -0.0680  0.0737
 8455WAT      O34539   0.067   1.254   2.251  0.1619 -0.0971 -0.2286
 8455WAT     H134540   0.046   1.329   2.290  1.2969  0.2927 -0.3390
 8455WAT     H234541   0.037   1.193   2.305  2.2448  0.4107  1.6517
 8455WAT    EPW34542   0.060   1.256   2.264  0.6373  0.0355  0.0328
 8456WAT      O34543   4.195   2.373   5.895  0.6047  0.2046  0.1493
 8456WAT     H134544   4.209   2.358   5.811 -0.4324 -0.2494  0.0456
 8456WAT     H234545   4.109   2.362   5.904  0.1778  3.1055  0.6723
 8456WAT    EPW34546   4.184   2.369   5.884  0.3884  0.5661  0.2112
 8457WAT      O34547   6.835   2.400   3.316  0.5119 -0.1256  0.5337
 8457WAT     H134548   6.856   2.475   3.277 -0.3136  0.5269  1.2864
 8457WAT     H234549   6.833   2.421   3.401  0.2473 -0.9927  0.7520
 8457WAT    EPW34550   6.838   2.414   3.323  0.3509 -0.1573  0.6772
 8458WAT      O34551   3.220   0.140   0.200 -0.4005  0.3107 -0.3415
 8458WAT     H134552   3.159   0.136   0.138 -1.1916 -0.8539  0.4748
 8458WAT     H234553   3.175   0.158   0.272  0.4534  1.2130 -0.0139
 8458WAT    EPW34554   3.205   0.142   0.201 -0.3912  0.2719 -0.1725
 8459WAT      O34555   5.938   6.993   2.898  0.2988  0.1173 -0.2614
 8459WAT     H134556   5.861   6.981   2.936 -0.1108  0.1871 -1.0389
 8459WAT     H234557   5.938   7.077   2.877  0.5479  0.1006 -0.3346
 8459WAT    EPW34558   5.927   7.003   2.900  0.2751  0.1251 -0.3871
 8460WAT      O34559   6.202   1.046   1.627  0.3054 -0.0465  0.2793
 8460WAT     H134560   6.283   1.027   1.603  0.1822  0.8895 -0.9923
 8460WAT     H234561   6.161   1.061   1.551 -0.4612  1.7420  0.9717
 8460WAT    EPW34562   6.208   1.046   1.612  0.1740  0.3560  0.1937
 8461WAT      O34563   6.829   4.018   0.836  0.3288  0.1854  0.6580
 8461WAT     H134564   6.855   3.937   0.858 -0.3290  0.0902  1.1249
 8461WAT     H234565   6.887   4.043   0.776  0.0868 -0.9532 -0.0928
 8461WAT    EPW34566   6.841   4.009   0.830  0.1959  0.0032  0.6161
 8462WAT      O34567   5.284   0.005   1.315  0.1906  0.3621 -0.0266
 8462WAT     H134568   5.267  -0.055   1.254  0.1702 -0.6482  0.9379
 8462WAT     H234569   5.254   0.079   1.280  1.8814  0.1863 -2.0299
 8462WAT    EPW34570   5.277   0.007   1.301  0.4374  0.1869 -0.1800
 8463WAT      O34571   2.428   6.285   6.068  0.8762  0.3946  0.4302
 8463WAT     H134572   2.501   6.332   6.058  0.0701  1.2028 -2.7809
 8463WAT     H234573   2.448   6.207   6.035  0.7465  0.1016  1.0365
 8463WAT    EPW34574   2.442   6.281   6.062  0.7380  0.4707  0.0454
 8464WAT      O34575   4.685   1.243   6.883  0.1449  0.6746 -0.1265
 8464WAT     H134576   4.683   1.210   6.964 -1.1921  0.6196 -0.1576
 8464WAT     H234577   4.601   1.255   6.864  0.3716 -0.0456 -1.8023
 8464WAT    EPW34578   4.672   1.240   6.892 -0.0191  0.5601 -0.3786
 8465WAT      O34579   2.184   4.924   0.613  0.3345 -0.4414  0.0552
 8465WAT     H134580   2.225   4.960   0.545  2.5912 -0.0595  1.4699
 8465WAT     H234581   2.103   4.911   0.585  0.2061  2.8705 -1.5945
 8465WAT    EPW34582   2.178   4.927   0.599  0.6489  0.1042  0.0205
 8466WAT      O34583   5.528   5.655   3.332 -0.0598  0.0962 -0.4042
 8466WAT     H134584   5.591   5.595   3.320 -0.6614 -0.6972  0.2753
 8466WAT     H234585   5.515   5.654   3.418 -0.8088  0.4411 -0.5101
 8466WAT    EPW34586   5.535   5.646   3.343 -0.2593  0.0300 -0.3195
 8467WAT      O34587   5.343   2.707   1.770  0.1008  0.1571 -0.2747
 8467WAT     H134588   5.364   2.738   1.691 -0.0524 -0.9980 -0.7910
 8467WAT     H234589   5.416   2.668   1.797 -0.5765 -1.7400 -1.0133
 8467WAT    EPW34590   5.357   2.705   1.762 -0.0219 -0.2938 -0.4601
 8468WAT      O34591   2.353   3.198   5.608 -0.1783 -0.0508 -0.4040
 8468WAT     H134592   2.435   3.200   5.636  0.1097  0.3374 -1.2364
 8468WAT     H234593   2.307   3.223   5.678  0.4267 -0.0698  0.0067
 8468WAT    EPW34594   2.358   3.202   5.622 -0.0464  0.0037 -0.4663
 8469WAT      O34595   5.504   1.007   1.331  0.2581  0.1622  0.0530
 8469WAT     H134596   5.434   1.005   1.278  0.4948 -0.1653 -0.2556
 8469WAT     H234597   5.471   1.031   1.408 -0.2215 -0.1320 -0.0541
 8469WAT    EPW34598   5.489   1.010   1.334  0.2222  0.0703 -0.0084
 8470WAT      O34599   2.213   6.196   0.914  0.1997  0.2374  0.0150
 8470WAT     H134600   2.172   6.268   0.885  1.9534  1.1300 -0.3458
 8470WAT     H234601   2.280   6.187   0.859  1.2032 -0.4712  1.2985
 8470WAT    EPW34602   2.217   6.205   0.901  0.6070  0.2645  0.1513
 8471WAT      O34603   1.231   5.610   3.651 -0.0987 -0.0730 -0.2680
 8471WAT     H134604   1.177   5.655   3.599 -0.5315 -0.4764 -0.1741
 8471WAT     H234605   1.246   5.537   3.606  1.9283  0.8384 -1.1770
 8471WAT    EPW34606   1.225   5.606   3.636  0.1368  0.0021 -0.3884
 8472WAT      O34607   0.970   4.597   6.109  0.3298 -0.5335  0.0428
 8472WAT     H134608   1.020   4.618   6.178  0.5159 -0.1887 -0.1916
 8472WAT     H234609   0.958   4.511   6.117  2.1800 -0.8984 -0.6810
 8472WAT    EPW34610   0.976   4.588   6.120  0.6306 -0.5365 -0.0987
 8473WAT      O34611   2.979   6.252   1.660 -0.3945  0.2328 -0.1644
 8473WAT     H134612   2.894   6.231   1.657 -0.1950 -0.5186 -2.0445
 8473WAT     H234613   3.019   6.174   1.658  0.3539  0.5788  0.7022
 8473WAT    EPW34614   2.972   6.237   1.659 -0.2545  0.1729 -0.3141
 8474WAT      O34615   6.331   6.304   4.086  0.5137  0.6104  0.4600
 8474WAT     H134616   6.389   6.364   4.112 -1.0787  2.4890 -0.0611
 8474WAT     H234617   6.257   6.328   4.126 -0.4584 -0.2717 -0.7135
 8474WAT    EPW34618   6.328   6.316   4.095  0.1349  0.7576  0.2097
 8475WAT      O34619   3.327   2.421   0.807 -0.5141  0.2124 -0.5898
 8475WAT     H134620   3.372   2.482   0.851  0.6377 -0.5712 -0.6251
 8475WAT     H234621   3.354   2.431   0.725  1.5870 -1.8461 -0.2632
 8475WAT    EPW34622   3.338   2.431   0.802 -0.0336 -0.2074 -0.5468
 8476WAT      O34623   4.234   6.487   4.758 -0.0342  0.0165 -0.4379
 8476WAT     H134624   4.284   6.417   4.771  1.3937  0.8288 -1.2628
 8476WAT     H234625   4.153   6.454   4.749  0.4842 -1.4312 -0.0430
 8476WAT    EPW34626   4.229   6.472   4.759  0.2533 -0.0774 -0.5014
 8477WAT      O34627   2.684   2.074   2.163 -0.3395 -0.1482 -0.0526
 8477WAT     H134628   2.711   2.012   2.218  0.0724  0.0876  0.0145
 8477WAT     H234629   2.613   2.106   2.202 -0.1884 -0.1438  0.2234
 8477WAT    EPW34630   2.677   2.069   2.177 -0.2564 -0.1127 -0.0019
 8478WAT      O34631   0.052   5.369   6.383 -0.1513 -0.6006 -0.0415
 8478WAT     H134632  -0.035   5.368   6.379 -0.1912 -2.4089  0.4605
 8478WAT     H234633   0.073   5.447   6.349 -1.9853  0.2896  0.7230
 8478WAT    EPW34634   0.042   5.380   6.377 -0.4281 -0.7362  0.1456
 8479WAT      O34635   0.634   0.529   7.327 -0.1243 -0.0925 -0.5860
 8479WAT     H134636   0.552   0.532   7.297  0.0348  0.6551 -0.9754
 8479WAT     H234637   0.625   0.551   7.411 -0.5326 -1.8856 -0.1081
 8479WAT    EPW34638   0.620   0.533   7.335 -0.1611 -0.2469 -0.5729
 8480WAT      O34639   3.331   0.748   3.414  0.2318  0.0611 -0.3703
 8480WAT     H134640   3.369   0.809   3.464  1.2499  0.3844 -1.4764
 8480WAT     H234641   3.366   0.762   3.335 -0.6470 -1.0045 -0.9802
 8480WAT    EPW34642   3.342   0.759   3.410  0.2524 -0.0486 -0.6238
 8481WAT      O34643   1.070   3.793   2.815 -0.7211 -0.1009  0.4185
 8481WAT     H134644   1.140   3.830   2.852 -0.2609 -0.0978 -0.4326
 8481WAT     H234645   1.033   3.749   2.881 -0.5466  0.7986  1.1432
 8481WAT    EPW34646   1.075   3.792   2.830 -0.6273  0.0325  0.3998
 8482WAT      O34647   3.590   2.494   5.508 -0.4551  0.1118 -0.0076
 8482WAT     H134648   3.634   2.476   5.435 -0.5252  1.5175 -0.4335
 8482WAT     H234649   3.514   2.454   5.497 -0.7263  0.8814 -1.0283
 8482WAT    EPW34650   3.585   2.486   5.496 -0.5055  0.4331 -0.2213
 8483WAT      O34651   0.173   2.150   4.566 -0.4819  0.2921 -0.1267
 8483WAT     H134652   0.253   2.179   4.585 -0.0594 -1.0880  0.3324
 8483WAT     H234653   0.163   2.168   4.482  0.4938  0.0821 -0.2946
 8483WAT    EPW34654   0.183   2.157   4.557 -0.2754  0.0572 -0.0837
 8484WAT      O34655   2.635   5.178   2.767 -0.2722 -0.2356 -0.7245
 8484WAT     H134656   2.551   5.156   2.771 -0.9091  1.9763 -0.7462
 8484WAT     H234657   2.663   5.138   2.694 -1.1303 -1.4485 -0.4142
 8484WAT    EPW34658   2.627   5.168   2.757 -0.4930 -0.0880 -0.6818
 8485WAT      O34659   2.016   5.109   5.187  0.4439 -0.3459 -0.7113
 8485WAT     H134660   2.053   5.085   5.262  1.6194  3.3405  0.0965
 8485WAT     H234661   1.939   5.141   5.211 -0.2505 -1.3504 -1.4856
 8485WAT    EPW34662   2.010   5.110   5.202  0.5149  0.0503 -0.7064
 8486WAT      O34663   4.698   1.336   2.699  0.7564  0.4535 -0.0641
 8486WAT     H134664   4.669   1.321   2.780 -0.4918  0.7711 -0.4226
 8486WAT     H234665   4.727   1.258   2.672 -1.6578 -0.4121 -0.3773
 8486WAT    EPW34666   4.698   1.322   2.707  0.2153  0.3725 -0.1634
 8487WAT      O34667   2.834   0.543   3.009 -0.2273 -0.2996 -0.1484
 8487WAT     H134668   2.824   0.582   3.087 -1.4761 -0.7263 -0.0679
 8487WAT     H234669   2.808   0.461   3.024  0.4525 -0.6414 -0.7940
 8487WAT    EPW34670   2.828   0.537   3.023 -0.3113 -0.4131 -0.2319
 8488WAT      O34671   7.167   6.380   3.894  0.9033  0.1244 -0.2421
 8488WAT     H134672   7.144   6.442   3.950 -3.0030 -1.8539  0.7167
 8488WAT     H234673   7.146   6.414   3.816  0.1760  0.5753  0.1363
 8488WAT    EPW34674   7.160   6.394   3.891  0.2188 -0.1012 -0.0446
 8489WAT      O34675   0.133   4.946   5.696 -0.2426 -0.3213  0.1805
 8489WAT     H134676   0.139   5.025   5.731 -0.1600 -0.8758  1.4481
 8489WAT     H234677   0.146   4.892   5.763 -1.3671 -1.4326 -0.4555
 8489WAT    EPW34678   0.136   4.950   5.711 -0.3965 -0.5674  0.2738
 8490WAT      O34679   3.541   4.822   3.932 -0.4758 -0.7405 -0.4306
 8490WAT     H134680   3.593   4.871   3.982 -1.2412  0.5775 -0.8937
 8490WAT     H234681   3.490   4.782   3.990 -2.7272  2.3027 -0.0756
 8490WAT    EPW34682   3.541   4.823   3.948 -0.9214 -0.0962 -0.4466
 8491WAT      O34683   0.251   0.813   7.326  0.2698 -0.0267  0.1550
 8491WAT     H134684   0.198   0.838   7.261 -1.2418 -1.5485  0.7246
 8491WAT     H234685   0.225   0.861   7.394  0.6171  0.2505  0.0978
 8491WAT    EPW34686   0.239   0.824   7.326  0.0978 -0.2106  0.2307
 8492WAT      O34687   5.457   0.011   4.343  0.3240  0.1048  0.2186
 8492WAT     H134688   5.452  -0.002   4.257 -0.2223  0.7597  0.1447
 8492WAT     H234689   5.519   0.072   4.351 -0.1931  0.6366  0.2208
 8492WAT    EPW34690   5.465   0.018   4.332  0.1669  0.2801  0.2080
 8493WAT      O34691   5.622   3.363   6.328  0.2919 -0.6495  0.2462
 8493WAT     H134692   5.581   3.287   6.342  1.5897 -1.3079  0.6715
 8493WAT     H234693   5.567   3.407   6.277 -0.1901 -2.1569 -0.5990
 8493WAT    EPW34694   5.608   3.358   6.322  0.4124 -0.9694  0.1842
 8494WAT      O34695   4.362   0.119   3.632  0.3228 -0.8583  0.0406
 8494WAT     H134696   4.383   0.035   3.622 -1.8654 -1.5138  0.3669
 8494WAT     H234697   4.395   0.157   3.560  0.1673 -2.2418 -0.7942
 8494WAT    EPW34698   4.370   0.112   3.620 -0.0234 -1.1595 -0.0345
 8495WAT      O34699   6.554   2.764   5.126  0.0764 -0.5103  0.5337
 8495WAT     H134700   6.563   2.840   5.084  1.0491 -1.2677 -0.7141
 8495WAT     H234701   6.497   2.719   5.078  2.4632 -2.0405 -1.1093
 8495WAT    EPW34702   6.547   2.768   5.113  0.5726 -0.8482  0.1066
 8496WAT      O34703   4.522   0.822   0.787  0.2085 -0.0571  0.3690
 8496WAT     H134704   4.467   0.767   0.749 -0.3595  0.8964 -0.2302
 8496WAT     H234705   4.528   0.793   0.869 -2.0337  0.4225  0.7595
 8496WAT    EPW34706   4.515   0.809   0.794 -0.2066  0.1546  0.3382
 8497WAT      O34707   3.663   2.652   3.673 -0.4846  0.2508  0.0739
 8497WAT     H134708   3.658   2.645   3.760 -1.5187  2.1267  0.2302
 8497WAT     H234709   3.734   2.700   3.660 -1.8624  2.4821  0.1616
 8497WAT    EPW34710   3.673   2.658   3.684 -0.8409  0.8576  0.1100
 8498WAT      O34711   1.871   6.345   1.512  0.6920 -0.8788 -0.2747
 8498WAT     H134712   1.826   6.283   1.471  0.2453 -1.5900  1.2251
 8498WAT     H234713   1.835   6.348   1.591  1.9104  0.0107  0.2809
 8498WAT    EPW34714   1.859   6.336   1.518  0.8060 -0.8525  0.0289
 8499WAT      O34715   3.632   6.647   3.951 -0.0691  0.0139 -0.2406
 8499WAT     H134716   3.636   6.560   3.945 -0.4999  0.0225 -0.8060
 8499WAT     H234717   3.607   6.671   3.871  0.3277  0.6806 -0.1738
 8499WAT    EPW34718   3.629   6.638   3.938 -0.0741  0.1137 -0.3142
 8500WAT      O34719   3.299   5.844   4.504 -0.1687 -0.8412  0.2724
 8500WAT     H134720   3.307   5.765   4.468 -1.2385 -0.7514 -0.1980
 8500WAT     H234721   3.213   5.852   4.517  0.1307 -0.7347  2.5706
 8500WAT    EPW34722   3.287   5.834   4.501 -0.2825 -0.8122  0.5424
 8501WAT      O34723   2.214   0.845   6.919 -0.0125 -0.5631  0.0151
 8501WAT     H134724   2.218   0.787   6.984 -0.6124 -0.4876  0.1219
 8501WAT     H234725   2.129   0.851   6.902  0.1321 -0.5414 -0.7444
 8501WAT    EPW34726   2.202   0.837   6.926 -0.0797 -0.5487 -0.0813
 8502WAT      O34727   6.916   4.868   7.273 -0.9385 -0.3184 -0.7903
 8502WAT     H134728   6.897   4.911   7.346 -1.4276  0.5901 -1.4304
 8502WAT     H234729   6.997   4.895   7.253  0.0446 -2.1065  0.4626
 8502WAT    EPW34730   6.926   4.878   7.281 -0.8655 -0.4483 -0.6998
 8503WAT      O34731   2.064   4.789   5.214 -0.1908 -0.0665 -0.0064
 8503WAT     H134732   2.060   4.848   5.151 -0.2533 -2.9041 -2.9411
 8503WAT     H234733   1.983   4.786   5.245  0.0205  1.9303  0.8856
 8503WAT    EPW34734   2.052   4.797   5.209 -0.1688 -0.1907 -0.3082
 8504WAT      O34735   6.066   1.440   4.673  0.9454 -0.6432  0.5182
 8504WAT     H134736   5.984   1.460   4.650  0.1104 -1.9534  2.1567
 8504WAT     H234737   6.114   1.500   4.631 -0.5426 -1.4691 -2.7480
 8504WAT    EPW34738   6.061   1.452   4.663  0.6022 -0.9588  0.2778
 8505WAT      O34739   6.716   5.370   2.491  0.3505 -0.3316 -0.0222
 8505WAT     H134740   6.732   5.450   2.458  0.3740 -0.1988  0.3089
 8505WAT     H234741   6.654   5.339   2.439  2.2547 -1.2168 -1.9411
 8505WAT    EPW34742   6.709   5.377   2.478  0.6353 -0.4428 -0.2568
 8506WAT      O34743   1.367   1.118   6.535 -0.2909 -0.2959  0.0564
 8506WAT     H134744   1.448   1.101   6.508  0.4077 -2.3712  2.9559
 8506WAT     H234745   1.317   1.076   6.478  0.9084 -2.0282  0.2084
 8506WAT    EPW34746   1.371   1.110   6.523 -0.0106 -0.8584  0.5072
 8507WAT      O34747   3.335   3.004   6.393 -0.1923  0.2211 -0.1800
 8507WAT     H134748   3.359   2.921   6.384 -2.1775 -0.7158  2.1142
 8507WAT     H234749   3.285   3.018   6.322  1.1163 -0.0975 -1.2052
 8507WAT    EPW34750   3.331   2.994   6.381 -0.2922  0.0356  0.0074
 8508WAT      O34751   4.253   0.109   5.367  0.5705  0.3675 -0.0656
 8508WAT     H134752   4.327   0.102   5.413  0.7507  0.1426 -0.3852
 8508WAT     H234753   4.191   0.115   5.428  0.7571 -0.4000  0.2063
 8508WAT    EPW34754   4.255   0.109   5.383  0.6247  0.2209 -0.0726
 8509WAT      O34755   3.773   6.358   6.139 -0.2037 -0.5086 -0.2401
 8509WAT     H134756   3.733   6.412   6.084  0.7422 -1.8909 -2.4023
 8509WAT     H234757   3.743   6.280   6.117  0.6834 -1.1798  0.8004
 8509WAT    EPW34758   3.763   6.355   6.128  0.0671 -0.8120 -0.4058
 8510WAT      O34759   0.042   3.832   6.989 -0.8281 -0.1105  0.0797
 8510WAT     H134760  -0.012   3.885   7.032 -0.2517  0.7022 -0.1845
 8510WAT     H234761  -0.012   3.782   6.941 -1.3656  2.9140 -2.8441
 8510WAT    EPW34762   0.026   3.832   6.988 -0.8224  0.4563 -0.3913
 8511WAT      O34763   5.505   6.562   6.520 -0.0341  0.5007  0.1207
 8511WAT     H134764   5.505   6.633   6.470  1.6393  0.7175  0.3724
 8511WAT     H234765   5.565   6.510   6.483 -0.8450 -0.5634  0.2460
 8511WAT    EPW34766   5.514   6.565   6.507  0.0933  0.3755  0.1764
 8512WAT      O34767   0.296   3.061   0.004  0.2168  0.1203 -0.6916
 8512WAT     H134768   0.242   3.121  -0.031  0.5482  0.6316 -0.3396
 8512WAT     H234769   0.374   3.084  -0.027  0.1875 -0.8809 -1.5528
 8512WAT    EPW34770   0.300   3.074  -0.006  0.2614  0.0480 -0.7668
 8513WAT      O34771   0.088   5.839   5.346  0.1016 -0.4867  0.1821
 8513WAT     H134772   0.010   5.869   5.369 -1.7339 -2.1431 -3.1744
 8513WAT     H234773   0.125   5.817   5.422 -1.3708  3.0732  2.1452
 8513WAT    EPW34774   0.082   5.840   5.360 -0.3870 -0.2055 -0.0238
 8514WAT      O34775   3.759   5.720   0.393  1.1347 -0.0715  0.0770
 8514WAT     H134776   3.763   5.640   0.360  0.6561  0.1013 -0.4034
 8514WAT     H234777   3.675   5.743   0.385  0.9959 -0.0323  1.4433
 8514WAT    EPW34778   3.747   5.712   0.387  1.0435 -0.0402  0.2079
 8515WAT      O34779   6.270   2.094   3.835 -0.0531 -0.1788 -0.1938
 8515WAT     H134780   6.201   2.060   3.876  0.5662 -0.6684  0.4693
 8515WAT     H234781   6.327   2.109   3.899  0.3907  0.3960 -0.7066
 8515WAT    EPW34782   6.268   2.091   3.851  0.1039 -0.1662 -0.1716
 8516WAT      O34783   3.972   5.447   4.212  0.2279 -0.1885  0.0775
 8516WAT     H134784   3.958   5.403   4.286  1.3178 -0.9819 -0.1626
 8516WAT     H234785   4.015   5.519   4.238  0.1876 -0.2333  0.2643
 8516WAT    EPW34786   3.976   5.452   4.227  0.3830 -0.3123  0.0696
 8517WAT      O34787   3.185   6.015   2.123 -0.3131 -0.1738  0.5030
 8517WAT     H134788   3.184   6.095   2.090  0.4064  0.1401  1.2013
 8517WAT     H234789   3.184   5.963   2.053 -0.5178  0.4484  0.0400
 8517WAT    EPW34790   3.185   6.019   2.108 -0.2370 -0.0356  0.5377
 8518WAT      O34791   6.251   6.807   4.664 -0.3153 -0.3608  0.1191
 8518WAT     H134792   6.291   6.754   4.607  0.4756  0.1515  0.1954
 8518WAT     H234793   6.308   6.815   4.729  0.5385  2.2683 -0.8255
 8518WAT    EPW34794   6.265   6.800   4.665 -0.0724  0.1033 -0.0092
 8519WAT      O34795   0.199   2.892   3.711 -0.4086  0.4493  0.1649
 8519WAT     H134796   0.126   2.879   3.665 -0.8886  3.8274 -0.2683
 8519WAT     H234797   0.170   2.921   3.787  0.5142 -1.2529  1.2383
 8519WAT    EPW34798   0.184   2.894   3.715 -0.3432  0.6968  0.2595
 8520WAT      O34799   1.242   1.207   2.009 -0.4125 -0.3704  0.3542
 8520WAT     H134800   1.225   1.157   1.940  0.0246  0.0417 -0.0615
 8520WAT     H234801   1.289   1.154   2.061  1.3931  0.0378 -0.7684
 8520WAT    EPW34802   1.247   1.191   2.007 -0.0812 -0.2492  0.1269
 8521WAT      O34803   4.484   0.561   7.138  0.3048  0.1355 -0.3892
 8521WAT     H134804   4.409   0.575   7.180 -0.1473  0.2608 -1.2226
 8521WAT     H234805   4.469   0.592   7.058  0.7623 -1.1564 -1.0042
 8521WAT    EPW34806   4.471   0.568   7.133  0.3056 -0.0368 -0.6031
 8522WAT      O34807   2.661   2.747   2.774 -0.1525  0.0702  0.7088
 8522WAT     H134808   2.642   2.681   2.828  0.0920 -0.5922 -0.0061
 8522WAT     H234809   2.597   2.744   2.715 -1.4800  1.9210  1.9032
 8522WAT    EPW34810   2.648   2.737   2.773 -0.3125  0.2457  0.7796
 8523WAT      O34811   7.083   1.515   2.957 -1.0233 -0.1106  0.2002
 8523WAT     H134812   7.101   1.536   2.874  2.6593  1.3912  1.1710
 8523WAT     H234813   7.124   1.438   2.968 -0.3028  0.3547  0.9096
 8523WAT    EPW34814   7.092   1.507   2.946 -0.3729  0.1800  0.4484
 8524WAT      O34815   0.007   3.440   1.488 -0.1717  0.1048  0.1751
 8524WAT     H134816  -0.011   3.405   1.410 -1.7590  5.8904 -2.6211
 8524WAT     H234817   0.091   3.463   1.481 -0.7976  2.3781 -0.9155
 8524WAT    EPW34818   0.017   3.438   1.475 -0.4987  1.2953 -0.3990
 8525WAT      O34819   1.041   3.334   2.962  0.2840  0.7892 -0.1058
 8525WAT     H134820   1.021   3.331   2.877  2.5047  0.2378 -0.6520
 8525WAT     H234821   0.994   3.269   2.996  0.8406 -0.2365 -1.2475
 8525WAT    EPW34822   1.031   3.324   2.955  0.6943  0.5562 -0.3551
 8526WAT      O34823   3.976   3.685   3.499  0.0199  0.0146  0.0380
 8526WAT     H134824   3.998   3.603   3.478 -1.2865 -0.0550 -1.2450
 8526WAT     H234825   3.907   3.675   3.551 -0.2493  0.3008 -0.2613
 8526WAT    EPW34826   3.969   3.672   3.503 -0.2128  0.0466 -0.1957
 8527WAT      O34827   5.944   0.305   6.332 -0.5280  0.7839 -0.4046
 8527WAT     H134828   5.893   0.342   6.393 -0.0529  1.5208 -0.4390
 8527WAT     H234829   5.979   0.237   6.373 -2.5905 -0.6081 -0.7838
 8527WAT    EPW34830   5.942   0.301   6.347 -0.7625  0.6871 -0.4657
 8528WAT      O34831   1.363   0.000   5.705  1.0923 -0.3118  0.8297
 8528WAT     H134832   1.327  -0.059   5.652  2.9542 -1.8789  1.2180
 8528WAT     H234833   1.337   0.076   5.670 -0.5836 -1.3033 -0.2479
 8528WAT    EPW34834   1.354   0.003   5.692  1.1198 -0.6898  0.7279
 8529WAT      O34835   6.668   6.420   6.816 -0.3947 -0.1577  0.0029
 8529WAT     H134836   6.730   6.376   6.773  0.9646  1.2184  0.4393
 8529WAT     H234837   6.681   6.395   6.899  0.4590  1.0537  0.2701
 8529WAT    EPW34838   6.679   6.410   6.822 -0.0678  0.2245  0.1068
 8530WAT      O34839   6.965   2.304   4.941 -0.2003  0.1711 -0.3808
 8530WAT     H134840   6.982   2.334   5.021  1.0102  3.4801 -1.7237
 8530WAT     H234841   6.912   2.236   4.956 -1.8537  1.9654  3.1177
 8530WAT    EPW34842   6.960   2.298   4.955 -0.2657  0.9250 -0.0623
 8531WAT      O34843   3.101   5.888   4.839 -0.0833  0.4216 -0.2320
 8531WAT     H134844   3.055   5.834   4.889  0.0795 -0.0150 -0.5411
 8531WAT     H234845   3.172   5.905   4.887 -0.3072  0.6489  0.0165
 8531WAT    EPW34846   3.105   5.882   4.853 -0.0923  0.3907 -0.2410
 8532WAT      O34847   1.002   2.781   6.037  0.4695  0.1411  0.1983
 8532WAT     H134848   1.041   2.814   6.107  1.1299 -0.7581  0.2769
 8532WAT     H234849   0.961   2.849   6.002 -0.7504  0.4169  2.0154
 8532WAT    EPW34850   1.002   2.796   6.042  0.3868  0.0490  0.4784
 8533WAT      O34851   5.064   2.927   6.538 -0.1974 -0.0602  0.2643
 8533WAT     H134852   4.994   2.894   6.498 -0.2518 -0.0562  0.3569
 8533WAT     H234853   5.070   3.008   6.507 -0.0886 -0.1424  0.0682
 8533WAT    EPW34854   5.055   2.934   6.528 -0.1894 -0.0717  0.2490
 8534WAT      O34855   3.037   3.009   4.372 -0.3940 -0.0533  0.2273
 8534WAT     H134856   3.112   3.013   4.327  0.2562 -0.6623  1.2164
 8534WAT     H234857   3.021   2.924   4.379 -0.0481 -0.0295  1.7927
 8534WAT    EPW34858   3.046   2.997   4.366 -0.2469 -0.1398  0.6046
 8535WAT      O34859   1.123   6.237   1.535  0.0227 -0.3970  0.3840
 8535WAT     H134860   1.153   6.175   1.587  2.7501  0.3975 -0.0869
 8535WAT     H234861   1.056   6.199   1.494  0.5383 -2.4275  1.3113
 8535WAT    EPW34862   1.117   6.222   1.537  0.5017 -0.5796  0.4514
 8536WAT      O34863   5.873   1.252   1.152 -0.0079  0.6079 -0.2175
 8536WAT     H134864   5.791   1.250   1.181 -0.0167 -1.2849 -0.2580
 8536WAT     H234865   5.864   1.265   1.066 -0.3867 -1.2328 -0.4889
 8536WAT    EPW34866   5.859   1.253   1.143 -0.0651  0.0564 -0.2635
 8537WAT      O34867   4.960   2.294   6.433 -0.0182  0.5383 -0.5678
 8537WAT     H134868   5.028   2.337   6.398  1.7631 -0.3304  1.5685
 8537WAT     H234869   4.946   2.337   6.507  0.4939 -1.2716  0.6525
 8537WAT    EPW34870   4.968   2.307   6.439  0.3206  0.1426 -0.0719
 8538WAT      O34871   5.229   5.225   6.203 -0.4883  0.0055 -0.1439
 8538WAT     H134872   5.239   5.283   6.139 -1.4114  0.0212 -0.2966
 8538WAT     H234873   5.214   5.150   6.161 -2.0198  0.1851  0.0153
 8538WAT    EPW34874   5.228   5.223   6.187 -0.8509  0.0344 -0.1429
 8539WAT      O34875   5.683   0.909   2.740 -0.0346 -0.2514 -0.5952
 8539WAT     H134876   5.599   0.926   2.757  0.0643 -0.8383  0.5483
 8539WAT     H234877   5.680   0.849   2.677 -0.5405 -1.5547  0.6163
 8539WAT    EPW34878   5.670   0.903   2.733 -0.0948 -0.5307 -0.2473
 8540WAT      O34879   4.288   5.076   0.131 -0.1057 -0.7777  0.1826
 8540WAT     H134880   4.254   5.135   0.185  0.5945 -1.2422  1.1686
 8540WAT     H234881   4.374   5.082   0.145  0.0920 -0.9507 -0.8470
 8540WAT    EPW34882   4.296   5.086   0.141  0.0269 -0.8719  0.1761
 8541WAT      O34883   2.439   2.147   7.287  0.1820  0.0523  0.7672
 8541WAT     H134884   2.441   2.198   7.216 -0.9614 -0.8140  0.0809
 8541WAT     H234885   2.506   2.093   7.274 -0.8694 -1.0351 -0.4154
 8541WAT    EPW34886   2.449   2.147   7.274 -0.1422 -0.2363  0.4911
 8542WAT      O34887   0.542   1.425   5.775 -0.0211 -0.2999 -0.0781
 8542WAT     H134888   0.546   1.436   5.862  0.5024  1.0616 -0.2634
 8542WAT     H234889   0.626   1.432   5.750 -0.1641 -0.7327 -0.6990
 8542WAT    EPW34890   0.555   1.427   5.784  0.0351 -0.1627 -0.1972
 8543WAT      O34891   2.026   5.462   3.838 -0.1109 -0.0680 -0.0916
 8543WAT     H134892   2.019   5.498   3.759 -0.2669 -0.1860 -0.1328
 8543WAT     H234893   1.977   5.514   3.888  1.4008  1.0499  0.2927
 8543WAT    EPW34894   2.018   5.475   3.834  0.0894  0.0797 -0.0409
 8544WAT      O34895   1.861   5.119   3.051  0.2255 -0.5158 -0.1240
 8544WAT     H134896   1.780   5.120   3.083 -0.8101 -0.1196 -2.5567
 8544WAT     H234897   1.892   5.199   3.067 -0.2563 -0.3393 -0.0747
 8544WAT    EPW34898   1.854   5.131   3.058  0.0014 -0.4312 -0.4761
 8545WAT      O34899   0.832   6.804   6.581  0.1011  0.1097  0.2763
 8545WAT     H134900   0.874   6.862   6.531  0.3625 -0.1749  0.1597
 8545WAT     H234901   0.848   6.728   6.541 -0.3374 -0.0277  0.3591
 8545WAT    EPW34902   0.840   6.801   6.568  0.0749  0.0474  0.2713
 8546WAT      O34903   3.465   2.234   7.270  0.0648  0.7690  0.4078
 8546WAT     H134904   3.513   2.180   7.220  1.1878  1.2539  0.9335
 8546WAT     H234905   3.402   2.261   7.215  0.8423  0.7188 -0.5460
 8546WAT    EPW34906   3.463   2.230   7.254  0.3455  0.8332  0.3446
 8547WAT      O34907   0.720   0.410   1.033 -0.6578  0.1489  0.3565
 8547WAT     H134908   0.659   0.456   1.076  0.4634  0.6801  1.4362
 8547WAT     H234909   0.794   0.430   1.075  0.4029  0.1771 -1.4298
 8547WAT    EPW34910   0.722   0.420   1.046 -0.3355  0.2315  0.2521
 8548WAT      O34911   1.745   1.919   2.707 -0.2381 -0.3883  0.1425
 8548WAT     H134912   1.794   1.855   2.673 -0.2249 -0.2485 -0.1093
 8548WAT     H234913   1.803   1.974   2.741 -0.3062 -1.4410  2.0988
 8548WAT    EPW34914   1.761   1.918   2.707 -0.2462 -0.5231  0.3943
 8549WAT      O34915   5.231   5.929   0.491 -0.0465  0.3333 -0.3382
 8549WAT     H134916   5.304   5.882   0.490  1.0619  1.9728  0.4892
 8549WAT     H234917   5.234   5.974   0.417 -1.0927 -0.7921 -1.1127
 8549WAT    EPW34918   5.242   5.929   0.480 -0.0373  0.4092 -0.3304
 8550WAT      O34919   3.847   5.369   2.798 -0.4231  0.0073 -0.4977
 8550WAT     H134920   3.882   5.376   2.718 -0.6580  0.1305 -0.5895
 8550WAT     H234921   3.858   5.449   2.831 -0.6120  0.0437 -0.5238
 8550WAT    EPW34922   3.854   5.382   2.791 -0.4857  0.0309 -0.5151
 8551WAT      O34923   4.058   6.216   0.705  0.1068  0.1594 -0.4895
 8551WAT     H134924   4.075   6.156   0.766 -1.2723 -0.0251 -0.2503
 8551WAT     H234925   4.002   6.270   0.745  1.3615  1.6616 -0.6817
 8551WAT    EPW34926   4.052   6.215   0.720  0.0884  0.3540 -0.4825
 8552WAT      O34927   6.799   3.998   2.385 -0.0807 -0.0373  0.3253
 8552WAT     H134928   6.723   3.960   2.364 -1.2763  2.1719  0.3877
 8552WAT     H234929   6.843   3.999   2.310 -0.8464  0.2200 -0.1295
 8552WAT    EPW34930   6.794   3.992   2.371 -0.3705  0.3270  0.2673
 8553WAT      O34931   5.925   4.278   6.349  0.7099  0.1055 -0.4668
 8553WAT     H134932   5.951   4.204   6.312  1.0172  0.0131 -0.0780
 8553WAT     H234933   5.940   4.265   6.434  1.3800  0.8405 -0.4525
 8553WAT    EPW34934   5.931   4.265   6.356  0.8543  0.2005 -0.4072
 8554WAT      O34935   5.458   5.752   0.989 -0.4070 -0.7380  0.3982
 8554WAT     H134936   5.389   5.715   1.027  0.3739 -1.4335  1.2010
 8554WAT     H234937   5.515   5.686   0.982  0.0232 -0.2840 -0.6455
 8554WAT    EPW34938   5.456   5.737   0.994 -0.2280 -0.7737  0.3626
 8555WAT      O34939   1.812   7.042   0.763  0.0714 -0.3703 -0.0009
 8555WAT     H134940   1.773   6.979   0.807  1.7344 -0.7451  1.0303
 8555WAT     H234941   1.820   7.009   0.682 -1.0692 -0.5450 -0.0573
 8555WAT    EPW34942   1.808   7.028   0.758  0.1486 -0.4515  0.1431
 8556WAT      O34943   4.950   1.843   1.842  0.5537  0.3060 -0.0867
 8556WAT     H134944   4.902   1.772   1.829  0.5895  0.1917  0.3959
 8556WAT     H234945   4.989   1.857   1.765 -1.6654  1.4606 -1.0952
 8556WAT    EPW34946   4.949   1.835   1.829  0.2312  0.4597 -0.1644
 8557WAT      O34947   4.920   6.292   3.213 -0.2706  0.4115  0.6081
 8557WAT     H134948   4.998   6.328   3.195 -0.2235  1.8491  3.1803
 8557WAT     H234949   4.867   6.329   3.154  0.8648 -0.2136 -0.8691
 8557WAT    EPW34950   4.924   6.303   3.201 -0.0959  0.5315  0.7698
 8558WAT      O34951   5.476   5.805   0.707  0.1199  0.2830 -0.1868
 8558WAT     H134952   5.541   5.861   0.723  1.9577 -1.4382 -1.0031
 8558WAT     H234953   5.452   5.778   0.786  1.1325  0.2451  0.1291
 8558WAT    EPW34954   5.482   5.809   0.721  0.5410  0.0231 -0.2607
 8559WAT      O34955   6.223   3.379   3.610 -0.0905  0.3675 -0.8402
 8559WAT     H134956   6.143   3.413   3.611  0.6775  2.3613 -1.4699
 8559WAT     H234957   6.258   3.412   3.537  0.8080 -1.7239 -1.4072
 8559WAT    EPW34958   6.216   3.389   3.600  0.1557  0.3530 -1.0169
 8560WAT      O34959   3.339   1.680   1.930  0.5390  0.2074 -0.1145
 8560WAT     H134960   3.384   1.736   1.880  0.5370 -0.1439 -0.5194
 8560WAT     H234961   3.335   1.608   1.881 -0.9922  0.4153 -0.3680
 8560WAT    EPW34962   3.345   1.678   1.915  0.3125  0.1862 -0.2118
 8561WAT      O34963   3.579   6.832   6.719 -0.4026 -0.1515 -0.0704
 8561WAT     H134964   3.510   6.860   6.673 -0.4721 -0.5493 -0.2150
 8561WAT     H234965   3.549   6.761   6.760 -0.2460  0.0137  0.3379
 8561WAT    EPW34966   3.564   6.826   6.718 -0.3897 -0.1859 -0.0314
 8562WAT      O34967   4.821   6.505   0.496 -0.4314  0.3311  0.2702
 8562WAT     H134968   4.781   6.436   0.460  0.3378 -0.3731  0.7226
 8562WAT     H234969   4.783   6.512   0.573 -0.2765  0.1841  0.3625
 8562WAT    EPW34970   4.810   6.496   0.502 -0.2949  0.2054  0.3506
 8563WAT      O34971   5.478   1.525   3.535 -0.5034  0.3017 -0.7251
 8563WAT     H134972   5.401   1.557   3.509 -0.3250 -0.6456 -2.6125
 8563WAT     H234973   5.536   1.573   3.491 -0.0844  0.0454 -0.4578
 8563WAT    EPW34974   5.475   1.537   3.525 -0.4151  0.1239 -0.9644
 8564WAT      O34975   0.602   6.798   4.128  0.6959 -0.5132  0.0874
 8564WAT     H134976   0.572   6.788   4.209 -0.4968 -1.3621 -0.4420
 8564WAT     H234977   0.681   6.760   4.130  0.3671 -1.1709  0.6575
 8564WAT    EPW34978   0.610   6.791   4.140  0.4711 -0.7358  0.0934
 8565WAT      O34979   0.645   0.623   0.197  0.2656  0.1983 -0.1556
 8565WAT     H134980   0.579   0.662   0.239 -0.5089 -1.9870  0.8166
 8565WAT     H234981   0.714   0.673   0.217 -0.6871  1.1854  0.8314
 8565WAT    EPW34982   0.645   0.636   0.206  0.0105  0.0213  0.1338
 8566WAT      O34983   1.072   5.792   2.737  0.2200 -0.0432  0.2907
 8566WAT     H134984   0.991   5.822   2.743 -0.0869 -0.5554 -0.9016
 8566WAT     H234985   1.116   5.857   2.699 -0.0425 -0.4141 -0.6692
 8566WAT    EPW34986   1.067   5.806   2.732  0.1359 -0.1736 -0.0272
 8567WAT      O34987   6.789   1.771   4.494  0.4178  0.8011  0.2612
 8567WAT     H134988   6.715   1.791   4.536 -0.7871 -0.3636 -1.1987
 8567WAT     H234989   6.816   1.848   4.463  0.0896  1.3104  1.1990
 8567WAT    EPW34990   6.782   1.786   4.496  0.1913  0.7043  0.1841
 8568WAT      O34991   0.924   5.831   2.183 -0.6198 -0.1596  0.1205
 8568WAT     H134992   0.998   5.818   2.140 -1.0762  1.0890 -1.0979
 8568WAT     H234993   0.865   5.785   2.137 -0.8912  0.1699  0.1384
 8568WAT    EPW34994   0.926   5.822   2.170 -0.7273  0.0735 -0.0568
 8569WAT      O34995   1.467   7.149   3.415 -0.6546 -0.3637 -0.1480
 8569WAT     H134996   1.420   7.167   3.344  0.7465 -0.9812 -1.2888
 8569WAT     H234997   1.421   7.087   3.455 -0.8245 -0.9854 -1.2565
 8569WAT    EPW34998   1.454   7.143   3.411 -0.4727 -0.5468 -0.4803
 8570WAT      O34999   1.503   5.017   6.660 -0.1361  0.5830 -0.1263
 8570WAT     H135000   1.566   4.957   6.667 -1.4388 -0.8374  0.1940
 8570WAT     H235001   1.546   5.090   6.641  1.4201 -0.8023 -2.4966
 8570WAT    EPW35002   1.519   5.019   6.659 -0.0986  0.1685 -0.4291
 8571WAT      O35003   6.904   1.364   4.858  0.1224 -0.5269  0.4548
 8571WAT     H135004   6.988   1.388   4.850 -0.1621 -0.0169 -1.8637
 8571WAT     H235005   6.861   1.440   4.854 -0.6336 -0.9010 -4.0513
 8571WAT    EPW35006   6.910   1.379   4.856 -0.0313 -0.5068 -0.5533
 8572WAT      O35007   0.906   3.442   6.855 -0.0796  0.2067  0.5830
 8572WAT     H135008   0.921   3.397   6.928 -0.9894  0.7967  1.1490
 8572WAT     H235009   0.863   3.385   6.804  0.2414 -0.0893  0.6411
 8572WAT    EPW35010   0.902   3.427   6.858 -0.1666  0.2501  0.6752
 8573WAT      O35011   3.848   5.984   6.294 -0.4360 -0.1786 -0.0577
 8573WAT     H135012   3.764   5.996   6.315 -0.8202 -1.4755 -0.7259
 8573WAT     H235013   3.844   5.932   6.224  0.9404 -0.5207  0.0882
 8573WAT    EPW35014   3.835   5.978   6.287 -0.2894 -0.4207 -0.1348
 8574WAT      O35015   5.589   4.759   1.247  0.2075 -0.0175 -0.4207
 8574WAT     H135016   5.589   4.741   1.332  1.5134  0.7025 -0.2371
 8574WAT     H235017   5.568   4.844   1.244 -1.9080 -0.4986 -0.9928
 8574WAT    EPW35018   5.586   4.769   1.259  0.0879  0.0178 -0.4781
 8575WAT      O35019   1.360   3.279   7.151 -0.3282  0.1912 -0.3731
 8575WAT     H135020   1.409   3.307   7.217 -0.5763  3.4637 -1.4207
 8575WAT     H235021   1.283   3.261   7.188 -0.5825  2.3420  0.2619
 8575WAT    EPW35022   1.356   3.280   7.166 -0.4024  0.9923 -0.4341
 8576WAT      O35023   2.424   1.387   6.606 -0.3305 -0.0744 -0.3364
 8576WAT     H135024   2.482   1.329   6.576 -1.2082 -0.6013 -1.0943
 8576WAT     H235025   2.462   1.420   6.676  0.5343 -1.0164 -0.3347
 8576WAT    EPW35026   2.438   1.383   6.612 -0.3324 -0.2914 -0.4481
 8577WAT      O35027   2.998   0.224   5.170  0.1103  0.2090  0.3812
 8577WAT     H135028   3.021   0.297   5.129  0.0685  0.1936  0.3307
 8577WAT     H235029   3.049   0.223   5.241 -0.0647  0.4162  0.5138
 8577WAT    EPW35030   3.009   0.235   5.175  0.0783  0.2373  0.3934
 8578WAT      O35031   5.304   6.560   1.977  0.6693  0.0750  0.6611
 8578WAT     H135032   5.366   6.594   2.029  1.3654  0.6015 -0.4726
 8578WAT     H235033   5.349   6.530   1.909 -0.2008 -0.8696  0.4864
 8578WAT    EPW35034   5.320   6.561   1.974  0.6436  0.0132  0.4678
 8579WAT      O35035   2.440   3.261   2.247  0.2482  0.1997 -0.3201
 8579WAT     H135036   2.444   3.260   2.334 -1.5870  0.6752 -0.1884
 8579WAT     H235037   2.450   3.346   2.228 -1.4743  0.4134 -0.3947
 8579WAT    EPW35038   2.442   3.274   2.257 -0.2774  0.3015 -0.3117
 8580WAT      O35039   4.213   3.394   4.338  0.1303 -0.3799 -0.3126
 8580WAT     H135040   4.175   3.458   4.293 -0.0161  0.2640  0.6844
 8580WAT     H235041   4.153   3.331   4.339 -0.7643  0.4335  0.8060
 8580WAT    EPW35042   4.199   3.394   4.332 -0.0235 -0.1646 -0.0000
 8581WAT      O35043   3.606   4.026   2.941 -0.3137 -0.5266  0.0377
 8581WAT     H135044   3.656   4.009   3.011 -0.6302 -0.0564  0.3833
 8581WAT     H235045   3.590   3.947   2.908  0.7243 -0.6819 -0.1277
 8581WAT    EPW35046   3.611   4.012   2.946 -0.2072 -0.4801  0.0643
 8582WAT      O35047   4.768   3.189   5.178 -0.2101  0.4863  0.0074
 8582WAT     H135048   4.843   3.203   5.221  0.1698  1.0582 -0.8190
 8582WAT     H235049   4.707   3.206   5.238  0.3079  1.4161  0.2944
 8582WAT    EPW35050   4.770   3.194   5.193 -0.0774  0.7082 -0.0723
 8583WAT      O35051   5.215   1.414   0.461 -0.5604  0.2983 -0.0643
 8583WAT     H135052   5.252   1.440   0.386 -1.2177  0.1206 -0.4576
 8583WAT     H235053   5.273   1.358   0.495  0.5644  1.7091  0.4510
 8583WAT    EPW35054   5.229   1.410   0.455 -0.4913  0.4805 -0.0463
 8584WAT      O35055   7.209   6.990   5.670 -0.0645  0.2270  0.1090
 8584WAT     H135056   7.178   6.986   5.751  0.7665  0.6745  0.4494
 8584WAT     H235057   7.182   7.068   5.642  1.0589  0.7805  0.5384
 8584WAT    EPW35058   7.200   7.001   5.678  0.2242  0.3749  0.2227
 8585WAT      O35059   1.065   0.642   1.538  0.0979 -0.1276 -0.0322
 8585WAT     H135060   1.040   0.724   1.555 -1.3873 -0.7022  0.6649
 8585WAT     H235061   1.004   0.593   1.576  1.8171 -1.6115  0.9636
 8585WAT    EPW35062   1.052   0.647   1.546  0.1324 -0.4317  0.2179
 8586WAT      O35063   4.739   0.163   2.724 -0.7544 -0.0506  0.1713
 8586WAT     H135064   4.808   0.203   2.688  0.0108 -0.7085  0.8658
 8586WAT     H235065   4.685   0.229   2.744 -0.6082  0.4201 -0.9472
 8586WAT    EPW35066   4.741   0.179   2.722 -0.6197 -0.0783  0.1087
 8587WAT      O35067   1.160   4.708   3.325 -0.3591 -0.2259  0.1057
 8587WAT     H135068   1.160   4.780   3.374 -0.3256 -0.1691  0.0234
 8587WAT     H235069   1.162   4.739   3.244 -2.4972 -0.2630 -0.0200
 8587WAT    EPW35070   1.160   4.723   3.320 -0.6700 -0.2230  0.0750
 8588WAT      O35071   7.084   2.543   2.170 -0.5739 -0.1860 -0.3768
 8588WAT     H135072   7.143   2.526   2.109 -2.1030  0.0052 -1.9699
 8588WAT     H235073   7.121   2.607   2.217 -0.5675  1.9157 -3.0011
 8588WAT    EPW35074   7.098   2.550   2.168 -0.7988  0.1527 -0.9998
 8589WAT      O35075   6.007   6.947   3.425 -0.1798 -0.6726 -0.4849
 8589WAT     H135076   5.963   6.910   3.360 -0.2052 -3.0384  0.7755
 8589WAT     H235077   6.091   6.941   3.400 -0.1208 -2.3199 -0.0239
 8589WAT    EPW35078   6.013   6.941   3.412 -0.1749 -1.2654 -0.2307
 8590WAT      O35079   3.846   0.156   2.832  0.5153  0.0807  0.0450
 8590WAT     H135080   3.933   0.154   2.832  0.5429  0.8448 -0.9809
 8590WAT     H235081   3.827   0.226   2.880  0.4742  0.1926 -0.1348
 8590WAT    EPW35082   3.856   0.166   2.839  0.5133  0.2101 -0.1331
 8591WAT      O35083   6.634   3.967   3.316  0.1309 -0.3618 -0.0205
 8591WAT     H135084   6.603   4.014   3.250 -1.0766 -1.5147 -0.3122
 8591WAT     H235085   6.564   3.956   3.368 -0.3899 -3.9145 -1.2026
 8591WAT    EPW35086   6.619   3.972   3.314 -0.1244 -1.0569 -0.2382
 8592WAT      O35087   3.079   5.500   6.983  0.3262  0.2989  0.0696
 8592WAT     H135088   3.125   5.564   7.020  1.5485  0.6284 -1.8631
 8592WAT     H235089   3.139   5.446   6.952 -0.6073 -0.0783 -1.1749
 8592WAT    EPW35090   3.094   5.502   6.984  0.3689  0.2919 -0.3997
 8593WAT      O35091   0.988   5.482   0.649  0.2354 -0.5307 -0.0524
 8593WAT     H135092   0.999   5.437   0.723 -2.1612 -1.7647 -0.3578
 8593WAT     H235093   1.038   5.553   0.661 -0.3132 -0.5111  2.8944
 8593WAT    EPW35094   0.997   5.486   0.662 -0.1996 -0.7101  0.3378
 8594WAT      O35095   5.906   3.296   1.221  0.3543 -0.4149 -0.0348
 8594WAT     H135096   5.921   3.231   1.278 -0.8379  1.7077  2.9575
 8594WAT     H235097   5.980   3.299   1.175  1.2469 -2.5425  1.0842
 8594WAT    EPW35098   5.919   3.287   1.223  0.3101 -0.4157  0.5725
 8595WAT      O35099   3.201   3.133   6.071  0.3705  0.3734 -0.3300
 8595WAT     H135100   3.240   3.175   6.137  0.7015  1.1687 -1.0302
 8595WAT     H235101   3.263   3.129   6.010 -0.5942  1.5044 -1.3961
 8595WAT    EPW35102   3.216   3.138   6.072  0.2769  0.6580 -0.5909
 8596WAT      O35103   1.783   3.173   4.555 -0.6403  0.5090 -0.4086
 8596WAT     H135104   1.773   3.106   4.609 -1.0598  0.5187 -0.4749
 8596WAT     H235105   1.850   3.217   4.589  0.7325 -0.8210 -1.2618
 8596WAT    EPW35106   1.792   3.170   4.568 -0.4995  0.3140 -0.5444
 8597WAT      O35107   2.845   2.498   1.535 -0.9648  0.1144  0.5790
 8597WAT     H135108   2.844   2.515   1.449 -0.9366 -2.1040  0.0941
 8597WAT     H235109   2.907   2.438   1.544 -1.9405 -0.7649  1.9201
 8597WAT    EPW35110   2.854   2.492   1.524 -1.1048 -0.3432  0.7055
 8598WAT      O35111   6.776   6.780   2.130  0.3104 -0.2603  0.1617
 8598WAT     H135112   6.777   6.863   2.105 -0.1605 -0.1770  0.4032
 8598WAT     H235113   6.853   6.770   2.170  0.5068 -0.0348 -0.1535
 8598WAT    EPW35114   6.788   6.791   2.132  0.2699 -0.2147  0.1508
 8599WAT      O35115   3.185   4.355   1.047  0.1929  0.9050  0.0682
 8599WAT     H135116   3.177   4.392   0.969 -2.5471 -1.0215 -0.7380
 8599WAT     H235117   3.128   4.400   1.096 -0.8655 -0.2002 -0.1038
 8599WAT    EPW35118   3.175   4.367   1.043 -0.3682  0.4571 -0.0763
 8600WAT      O35119   1.308   5.922   6.141  0.0138 -0.0469  0.2976
 8600WAT     H135120   1.370   5.889   6.193 -0.1948 -0.0002  0.5833
 8600WAT     H235121   1.334   5.901   6.061 -0.8295 -2.1715  0.5202
 8600WAT    EPW35122   1.321   5.914   6.137 -0.1416 -0.3539  0.3727
 8601WAT      O35123   4.139   0.118   0.941  0.5526  0.2962  0.0866
 8601WAT     H135124   4.127   0.032   0.945 -3.7709  0.7283  1.0353
 8601WAT     H235125   4.145   0.142   1.025 -0.3205  1.0528 -0.0491
 8601WAT    EPW35126   4.138   0.109   0.954 -0.2150  0.4718  0.2067
 8602WAT      O35127   6.133   6.515   0.286 -0.0177  0.2607 -0.3377
 8602WAT     H135128   6.116   6.448   0.233  0.8408 -1.1349  1.0563
 8602WAT     H235129   6.197   6.485   0.337  0.0029  1.9581  0.7301
 8602WAT    EPW35130   6.140   6.501   0.286  0.1122  0.3053  0.0259
 8603WAT      O35131   5.035   3.390   1.090 -0.1942  0.1140 -0.1522
 8603WAT     H135132   5.040   3.398   1.177  1.8827 -0.2817 -0.1983
 8603WAT     H235133   5.089   3.452   1.061  0.4169 -0.8346 -1.0968
 8603WAT    EPW35134   5.043   3.401   1.099  0.2029 -0.0845 -0.2985
 8604WAT      O35135   5.592   3.607   3.258 -0.2552 -0.1515  0.4959
 8604WAT     H135136   5.672   3.576   3.247 -0.3472 -1.1808  2.3121
 8604WAT     H235137   5.602   3.668   3.319 -0.8224 -0.2231  0.6677
 8604WAT    EPW35138   5.605   3.611   3.265 -0.3526 -0.3141  0.7896
 8605WAT      O35139   1.228   3.856   5.946  0.5434 -0.0763  0.3427
 8605WAT     H135140   1.261   3.814   5.877  1.5593  0.8914  0.2185
 8605WAT     H235141   1.241   3.941   5.927 -1.2820  0.3331  0.6592
 8605WAT    EPW35142   1.235   3.863   5.933  0.4238  0.1271  0.3711
 8606WAT      O35143   6.331   1.798   0.847 -0.2526  0.2051  0.1636
 8606WAT     H135144   6.343   1.717   0.879  2.6724 -0.3363 -1.8907
 8606WAT     H235145   6.301   1.783   0.767 -1.5479  1.2973  0.4162
 8606WAT    EPW35146   6.329   1.784   0.840 -0.0119  0.2865 -0.1026
 8607WAT      O35147   5.201   3.539   2.880 -0.3064  0.1994  0.3278
 8607WAT     H135148   5.259   3.556   2.942 -0.0235  2.0777 -0.3951
 8607WAT     H235149   5.149   3.609   2.881 -1.8192 -0.8714  0.1154
 8607WAT    EPW35150   5.202   3.552   2.890 -0.4881  0.3187  0.1896
 8608WAT      O35151   5.444   1.173   0.295  0.5598  0.0626 -0.2366
 8608WAT     H135152   5.379   1.115   0.291 -1.4486  2.1208  0.2650
 8608WAT     H235153   5.436   1.217   0.220  0.2947  1.3874  0.5408
 8608WAT    EPW35154   5.433   1.171   0.283  0.2240  0.5623 -0.0477
 8609WAT      O35155   4.197   1.731   0.278  0.1989  0.2954  0.4342
 8609WAT     H135156   4.134   1.792   0.278  0.3584  0.4613  0.3909
 8609WAT     H235157   4.267   1.774   0.250  0.1923 -0.0362 -0.0927
 8609WAT    EPW35158   4.198   1.746   0.274  0.2215  0.2709  0.3500
 8610WAT      O35159   0.167   2.635   6.984 -0.3346 -0.6317  0.7591
 8610WAT     H135160   0.156   2.702   6.929  1.9233 -0.0346  0.9473
 8610WAT     H235161   0.127   2.661   7.057 -2.4263 -0.9798 -0.1921
 8610WAT    EPW35162   0.159   2.649   6.987 -0.3100 -0.5949  0.6464
 8611WAT      O35163   6.996   1.218   2.323  0.4604  0.0798 -0.0237
 8611WAT     H135164   6.998   1.264   2.250 -1.0965  1.1842  0.5872
 8611WAT     H235165   6.940   1.153   2.306  1.0725 -0.4053 -0.2134
 8611WAT    EPW35166   6.988   1.215   2.310  0.3208  0.1713  0.0385
 8612WAT      O35167   6.501   4.039   2.187 -0.3417 -0.6791 -0.2255
 8612WAT     H135168   6.535   3.970   2.229 -0.5885 -1.0259 -0.5903
 8612WAT     H235169   6.479   4.007   2.109  0.7654  0.1208 -0.8977
 8612WAT    EPW35170   6.503   4.024   2.182 -0.2146 -0.6122 -0.3787
 8613WAT      O35171   6.715   4.556   7.090  0.3894 -0.1401 -0.5401
 8613WAT     H135172   6.661   4.536   7.156 -0.8812  1.5881 -0.9999
 8613WAT     H235173   6.794   4.542   7.124 -0.1799  1.5097  1.6893
 8613WAT    EPW35174   6.719   4.551   7.105  0.1176  0.3589 -0.2787
 8614WAT      O35175   3.541   7.016   3.614  0.2843  0.0652  0.0984
 8614WAT     H135176   3.562   7.000   3.697  0.8748  0.7295  0.0775
 8614WAT     H235177   3.599   6.970   3.568 -1.6751 -2.5626 -0.0107
 8614WAT    EPW35178   3.552   7.007   3.619  0.0821 -0.2249  0.0792
 8615WAT      O35179   6.374   1.922   5.934  0.0524  0.3066 -0.5851
 8615WAT     H135180   6.376   1.835   5.932 -0.3713  0.2484  0.5390
 8615WAT     H235181   6.364   1.945   5.850  0.5867 -0.7088 -0.9347
 8615WAT    EPW35182   6.372   1.913   5.921  0.0688  0.1480 -0.4707
 8616WAT      O35183   1.264   5.517   6.386  0.4054 -0.1962  1.0033
 8616WAT     H135184   1.272   5.529   6.300 -1.1527 -0.5770  0.7570
 8616WAT     H235185   1.274   5.431   6.396  1.3243 -0.0618  1.3220
 8616WAT    EPW35186   1.266   5.506   6.375  0.3110 -0.2326  1.0140
 8617WAT      O35187   0.728   3.285   5.833 -0.3807  0.1755 -0.1356
 8617WAT     H135188   0.671   3.349   5.817 -0.6304  0.0812  0.3681
 8617WAT     H235189   0.744   3.292   5.918 -0.0858 -0.1661 -0.1621
 8617WAT    EPW35190   0.722   3.295   5.843 -0.3740  0.1111 -0.0651
 8618WAT      O35191   0.553   2.852   2.448  0.3650  0.4108  0.5399
 8618WAT     H135192   0.600   2.860   2.520 -0.0290  0.3287  0.8095
 8618WAT     H235193   0.509   2.927   2.443  3.3869  2.2980 -1.8422
 8618WAT    EPW35194   0.553   2.864   2.458  0.7532  0.6775  0.2278
 8619WAT      O35195   4.389   0.747   2.059 -0.4035  0.9674  0.5075
 8619WAT     H135196   4.359   0.820   2.022  0.8820  0.5088 -1.5853
 8619WAT     H235197   4.464   0.773   2.097  1.5981  0.3290 -2.6814
 8619WAT    EPW35198   4.396   0.762   2.059  0.0821  0.8053 -0.2727
 8620WAT      O35199   1.217   3.143   3.198 -0.1144 -0.1774  0.3684
 8620WAT     H135200   1.246   3.218   3.165  1.0405 -0.2784  1.0909
 8620WAT     H235201   1.163   3.168   3.261  0.4924  0.0623  0.8020
 8620WAT    EPW35202   1.213   3.157   3.202  0.1458 -0.1569  0.5392
 8621WAT      O35203   3.581   4.324   6.985 -0.0961  0.3657 -0.5741
 8621WAT     H135204   3.519   4.375   7.019 -0.5625  0.2604 -1.2546
 8621WAT     H235205   3.583   4.255   7.038 -1.1211  0.0006 -0.9971
 8621WAT    EPW35206   3.572   4.321   6.998 -0.3164  0.2963 -0.7371
 8622WAT      O35207   3.350   4.150   2.876  0.0666  0.0086  0.3171
 8622WAT     H135208   3.437   4.149   2.885  0.0038  1.0666  1.2077
 8622WAT     H235209   3.334   4.231   2.847 -0.4992 -0.6875 -1.4074
 8622WAT    EPW35210   3.361   4.162   2.873 -0.0263  0.0621  0.1939
 8623WAT      O35211   2.508   6.884   4.539  0.6524 -0.6923 -0.0828
 8623WAT     H135212   2.585   6.882   4.579  1.1613 -1.1198 -1.0527
 8623WAT     H235213   2.495   6.802   4.514  0.7502 -0.3061 -1.5072
 8623WAT    EPW35214   2.517   6.872   4.541  0.7420 -0.6984 -0.4365
 8624WAT      O35215   4.122   6.270   1.693 -0.4958 -0.3467 -0.3645
 8624WAT     H135216   4.067   6.254   1.628 -3.1220 -0.7895  1.8190
 8624WAT     H235217   4.154   6.191   1.712 -0.4398 -0.3566 -0.4969
 8624WAT    EPW35218   4.119   6.256   1.686 -0.8755 -0.4136 -0.0615
 8625WAT      O35219   3.356   4.867   2.212  0.0687  0.5991  0.5427
 8625WAT     H135220   3.343   4.950   2.188 -1.9393 -0.1217 -1.1802
 8625WAT     H235221   3.300   4.857   2.278 -1.1544  0.1581 -0.5081
 8625WAT    EPW35222   3.346   4.878   2.218 -0.4086  0.4275  0.1330
 8626WAT      O35223   1.845   5.010   0.969 -0.7066  0.2833 -0.0943
 8626WAT     H135224   1.914   4.964   0.995 -0.1188  0.6706 -0.9151
 8626WAT     H235225   1.861   5.024   0.884 -1.5143  0.8767 -0.1576
 8626WAT    EPW35226   1.857   5.005   0.960 -0.7391  0.4281 -0.2249
 8627WAT      O35227   7.108   3.642   0.469  0.1018 -0.5289 -0.4427
 8627WAT     H135228   7.074   3.587   0.410 -0.4840 -0.1084 -0.4973
 8627WAT     H235229   7.178   3.675   0.429 -0.2261 -0.3365 -0.8536
 8627WAT    EPW35230   7.113   3.639   0.455 -0.0332 -0.4383 -0.5115
 8628WAT      O35231   6.155   4.198   6.026  0.3480  0.6460 -0.2970
 8628WAT     H135232   6.154   4.254   6.092  0.9914  0.2475  0.0543
 8628WAT     H235233   6.237   4.171   6.022  0.3534  0.7638 -1.3490
 8628WAT    EPW35234   6.167   4.202   6.035  0.4438  0.6046 -0.4005
 8629WAT      O35235   2.267   2.945   5.509  0.3300  0.3694 -0.3382
 8629WAT     H135236   2.299   3.018   5.545 -1.8036  1.0541  0.3465
 8629WAT     H235237   2.334   2.914   5.462  2.4541  0.8735  2.0774
 8629WAT    EPW35238   2.282   2.951   5.508  0.3286  0.5450  0.1198
 8630WAT      O35239   4.993   1.471   0.629 -0.6987  0.8557  0.4001
 8630WAT     H135240   5.057   1.428   0.589 -1.3817 -0.7535  0.9296
 8630WAT     H235241   5.017   1.468   0.713 -0.7306  1.5672  0.4337
 8630WAT    EPW35242   5.006   1.464   0.636 -0.8043  0.7231  0.4833
 8631WAT      O35243   6.806   1.196   1.849 -0.2489  0.4538  0.5258
 8631WAT     H135244   6.889   1.171   1.857 -0.5244 -0.1531  1.6973
 8631WAT     H235245   6.779   1.203   1.931 -2.2436 -2.4508  0.2702
 8631WAT    EPW35246   6.814   1.193   1.862 -0.5843 -0.0649  0.6611
 8632WAT      O35247   5.419   5.769   0.386 -0.1183 -0.0340  0.5733
 8632WAT     H135248   5.377   5.692   0.387 -0.1207 -0.0506  2.0953
 8632WAT     H235249   5.503   5.747   0.391  0.1002  0.0266 -1.6679
 8632WAT    EPW35250   5.425   5.754   0.387 -0.0864 -0.0275  0.4670
 8633WAT      O35251   6.724   7.097   1.312  0.5090  0.7164 -0.4162
 8633WAT     H135252   6.794   7.046   1.299  1.2444  0.9219  2.1777
 8633WAT     H235253   6.758   7.177   1.320  0.0773  0.7712  1.2342
 8633WAT    EPW35254   6.739   7.101   1.311  0.5539  0.7549  0.2108
 8634WAT      O35255   5.854   3.650   5.197 -0.0540  0.7462 -0.2727
 8634WAT     H135256   5.907   3.720   5.191  0.6799  0.3135  0.8876
 8634WAT     H235257   5.904   3.589   5.233 -1.3979  0.3851  1.0827
 8634WAT    EPW35258   5.869   3.652   5.201 -0.1441  0.6289  0.0989
 8635WAT      O35259   4.999   0.942   1.574 -0.1779 -0.6004  0.0540
 8635WAT     H135260   5.027   1.020   1.602  0.0212 -0.3886 -0.7101
 8635WAT     H235261   5.047   0.885   1.619  0.3140 -0.2642 -0.0437
 8635WAT    EPW35262   5.010   0.945   1.585 -0.0759 -0.5194 -0.0733
 8636WAT      O35263   1.842   5.765   2.288  0.6265  0.3507 -0.4753
 8636WAT     H135264   1.801   5.741   2.361  0.0239 -0.0124 -0.9252
 8636WAT     H235265   1.826   5.851   2.283  0.6583  0.3738 -0.1919
 8636WAT    EPW35266   1.833   5.774   2.298  0.5422  0.3005 -0.4999
 8637WAT      O35267   6.861   0.672   6.516 -0.1315  0.1404 -0.2018
 8637WAT     H135268   6.801   0.726   6.484 -1.3732 -0.1322  1.5294
 8637WAT     H235269   6.826   0.593   6.505 -0.5660  0.0316  1.6165
 8637WAT    EPW35270   6.847   0.669   6.510 -0.3791  0.0841  0.3225
 8638WAT      O35271   3.395   6.088   4.574  0.2410  0.2121  0.0323
 8638WAT     H135272   3.359   6.008   4.570 -1.0773  0.7925 -3.3164
 8638WAT     H235273   3.475   6.075   4.542  0.7187 -0.0329  1.2899
 8638WAT    EPW35274   3.401   6.074   4.568  0.1168  0.2616 -0.2766
 8639WAT      O35275   0.880   2.009   6.797  0.4700  0.3134  0.6472
 8639WAT     H135276   0.865   2.080   6.748  0.3645  0.4616  0.8895
 8639WAT     H235277   0.920   1.954   6.742  1.9240  1.1154  0.8285
 8639WAT    EPW35278   0.884   2.012   6.781  0.6692  0.4538  0.7098
 8640WAT      O35279   2.826   3.065   0.641 -0.1311  0.2843  0.6000
 8640WAT     H135280   2.789   3.139   0.611 -3.1192 -0.8269  1.1932
 8640WAT     H235281   2.825   3.013   0.571  1.4489  0.5503  0.3381
 8640WAT    EPW35282   2.821   3.068   0.626 -0.3391  0.1595  0.6489
 8641WAT      O35283   6.295   0.586   0.869  0.0562  0.0687  0.3190
 8641WAT     H135284   6.327   0.667   0.856  1.2685 -0.4865 -0.3537
 8641WAT     H235285   6.212   0.600   0.890 -0.3234  1.4411 -1.7391
 8641WAT    EPW35286   6.288   0.600   0.870  0.1792  0.1894 -0.0844
 8642WAT      O35287   1.624   3.816   4.404 -0.1220  0.3600  1.2092
 8642WAT     H135288   1.561   3.827   4.345  1.3477  1.0609 -0.3039
 8642WAT     H235289   1.602   3.741   4.443 -1.8906  0.6109  0.7741
 8642WAT    EPW35290   1.611   3.806   4.401 -0.1662  0.5006  0.9214
 8643WAT      O35291   0.835   1.228   0.705  0.1267  0.6343 -0.2549
 8643WAT     H135292   0.874   1.184   0.640  2.6236  1.2370  0.7445
 8643WAT     H235293   0.795   1.294   0.664  1.3099  0.7734 -1.2244
 8643WAT    EPW35294   0.835   1.231   0.689  0.6703  0.7438 -0.2505
 8644WAT      O35295   5.528   1.596   4.237  0.7645 -0.1967 -0.5683
 8644WAT     H135296   5.519   1.573   4.153 -0.2147  0.0243 -0.5388
 8644WAT     H235297   5.476   1.541   4.279 -0.7242  1.2669 -0.3780
 8644WAT    EPW35298   5.519   1.585   4.231  0.4000  0.0521 -0.5358
 8645WAT      O35299   0.430   1.314   0.687  0.0747 -0.5286 -0.1463
 8645WAT     H135300   0.350   1.309   0.653  0.1576 -1.7059 -0.2325
 8645WAT     H235301   0.420   1.368   0.755 -1.0046 -1.3509  0.3836
 8645WAT    EPW35302   0.417   1.321   0.692 -0.0725 -0.8240 -0.0808
 8646WAT      O35303   2.152   5.290   3.459  0.4560  0.4790  0.3410
 8646WAT     H135304   2.112   5.223   3.498 -0.3482  0.5827 -0.2890
 8646WAT     H235305   2.094   5.355   3.464  0.8330  0.8437  0.0604
 8646WAT    EPW35306   2.138   5.290   3.465  0.3929  0.5482  0.2065
 8647WAT      O35307   5.095   0.496   4.663 -0.1442 -0.9813  0.1772
 8647WAT     H135308   5.054   0.429   4.625 -0.7714 -0.3054 -0.3576
 8647WAT     H235309   5.069   0.566   4.617 -0.3487 -0.2303  1.3706
 8647WAT    EPW35310   5.085   0.497   4.651 -0.2671 -0.7705  0.2745
 8648WAT      O35311   6.058   1.890   0.406 -0.2777  0.3259 -0.1989
 8648WAT     H135312   6.094   1.872   0.329  2.2549  2.0764  0.4701
 8648WAT     H235313   6.085   1.826   0.457  1.0379  1.0247  0.0218
 8648WAT    EPW35314   6.067   1.878   0.402  0.2908  0.6877 -0.0674
 8649WAT      O35315   2.995   6.288   5.313 -0.3076  0.4657  0.6051
 8649WAT     H135316   3.057   6.227   5.308  1.2914  2.0994 -0.7095
 8649WAT     H235317   2.923   6.243   5.333  0.6942 -1.9027 -0.8136
 8649WAT    EPW35318   2.993   6.273   5.316  0.0766  0.3572  0.2013
 8650WAT      O35319   6.308   0.279   5.844  0.2064 -0.0219  0.4087
 8650WAT     H135320   6.313   0.267   5.757  1.0228  0.3029  0.3984
 8650WAT     H235321   6.222   0.280   5.860  0.0472 -1.0064 -0.2602
 8650WAT    EPW35322   6.296   0.277   5.833  0.3035 -0.1194  0.3084
 8651WAT      O35323   3.591   6.224   4.777  0.3590  0.1366 -0.2895
 8651WAT     H135324   3.568   6.264   4.703  0.6497 -2.0834 -1.6661
 8651WAT     H235325   3.514   6.198   4.810  0.3753 -1.5766 -1.4879
 8651WAT    EPW35326   3.576   6.226   4.771  0.4043 -0.4444 -0.6698
 8652WAT      O35327   6.685   2.764   3.295  0.1197 -0.2913 -0.5074
 8652WAT     H135328   6.615   2.728   3.256 -0.3573  0.9040 -0.7803
 8652WAT     H235329   6.751   2.719   3.260 -0.5427 -2.7429  1.1370
 8652WAT    EPW35330   6.684   2.752   3.284 -0.0486 -0.4769 -0.3048
 8653WAT      O35331   5.525   5.418   3.918  0.3257 -0.2171  0.4821
 8653WAT     H135332   5.467   5.479   3.941 -0.3118 -1.3783  2.1495
 8653WAT     H235333   5.511   5.406   3.833 -1.9805 -0.5350  0.8620
 8653WAT    EPW35334   5.515   5.425   3.909 -0.1092 -0.4356  0.7845
 8654WAT      O35335   1.941   6.521   6.380  0.1164 -0.3880 -0.0563
 8654WAT     H135336   1.934   6.520   6.293 -1.3952 -0.4815  0.0494
 8654WAT     H235337   2.017   6.561   6.394  0.8984 -1.3130 -1.4440
 8654WAT    EPW35338   1.951   6.526   6.369  0.0086 -0.5385 -0.2456
 8655WAT      O35339   0.098   3.151   6.677  0.1206  0.1584 -0.7783
 8655WAT     H135340   0.109   3.069   6.703  0.5927 -0.1595 -1.9286
 8655WAT     H235341   0.033   3.146   6.619 -0.1443  0.6682 -0.5300
 8655WAT    EPW35342   0.090   3.138   6.672  0.1512  0.1868 -0.9115
 8656WAT      O35343   1.861   7.087   2.580 -0.5544  0.2757  0.2463
 8656WAT     H135344   1.788   7.133   2.594  0.3750  1.9848 -0.2113
 8656WAT     H235345   1.838   7.029   2.519 -1.5795  0.6288  0.2777
 8656WAT    EPW35346   1.847   7.085   2.573 -0.5685  0.5803  0.1834
 8657WAT      O35347   3.591   1.084   1.330 -0.1469 -0.2234 -0.1013
 8657WAT     H135348   3.640   1.036   1.383  1.1853 -0.3267 -1.3551
 8657WAT     H235349   3.549   1.138   1.383 -0.2952 -1.5588  1.1876
 8657WAT    EPW35350   3.592   1.085   1.345  0.0280 -0.4359 -0.0961
 8658WAT      O35351   3.455   0.212   3.175  0.1790  0.3518  0.5132
 8658WAT     H135352   3.371   0.190   3.175  0.1916  0.2675  1.5088
 8658WAT     H235353   3.483   0.188   3.096 -0.4698 -0.6669  0.5742
 8658WAT    EPW35354   3.447   0.205   3.163  0.0850  0.1888  0.6693
 8659WAT      O35355   6.363   3.661   6.172 -0.1049  0.1945  0.3842
 8659WAT     H135356   6.312   3.601   6.209  0.1715  0.1931  0.7619
 8659WAT     H235357   6.310   3.701   6.116 -0.3520 -0.2428  0.3016
 8659WAT    EPW35358   6.348   3.658   6.169 -0.1006  0.1297  0.4278
 8660WAT      O35359   4.695   2.781   4.070  0.0152  0.4129 -0.1526
 8660WAT     H135360   4.715   2.746   4.148  1.9821  0.5183 -0.5456
 8660WAT     H235361   4.748   2.850   4.066 -0.4559  0.7194 -1.3765
 8660WAT    EPW35362   4.706   2.786   4.081  0.2362  0.4737 -0.3915
 8661WAT      O35363   2.906   5.381   4.928  0.1555 -0.5998  0.2404
 8661WAT     H135364   2.992   5.370   4.939  0.6742  1.1080 -1.5521
 8661WAT     H235365   2.877   5.406   5.006  1.6376  0.6573  0.4119
 8661WAT    EPW35366   2.914   5.383   4.941  0.4510 -0.1618  0.0009
 8662WAT      O35367   6.252   0.691   4.593  0.2204 -0.3124 -0.5536
 8662WAT     H135368   6.261   0.713   4.509  0.4746 -1.0399 -0.7280
 8662WAT     H235369   6.335   0.684   4.621  0.1370 -0.2873 -0.3025
 8662WAT    EPW35370   6.266   0.693   4.585  0.2456 -0.4162 -0.5422
 8663WAT      O35371   7.025   3.408   0.317 -0.0354  0.0518 -0.2868
 8663WAT     H135372   6.965   3.351   0.344  0.5560 -0.0549  0.8628
 8663WAT     H235373   7.084   3.358   0.276  1.4475 -0.5357  2.3179
 8663WAT    EPW35374   7.025   3.392   0.315  0.2710 -0.0507  0.2678
 8664WAT      O35375   2.456   2.950   6.417  0.2343  0.3542  0.1302
 8664WAT     H135376   2.421   3.029   6.426  0.3658  0.4126  0.1281
 8664WAT     H235377   2.419   2.904   6.481 -2.1610 -0.4090 -1.6326
 8664WAT    EPW35378   2.445   2.955   6.428 -0.1001  0.2501 -0.1305
 8665WAT      O35379   5.038   4.880   7.179  0.1568 -0.1871 -0.0267
 8665WAT     H135380   4.956   4.867   7.205 -0.0749 -0.6970 -0.9855
 8665WAT     H235381   5.078   4.909   7.251 -0.7380 -0.4484  0.5869
 8665WAT    EPW35382   5.032   4.882   7.194 -0.0096 -0.3010 -0.0777
 8666WAT      O35383   4.530   1.340   6.319 -0.0981 -0.4868  0.0977
 8666WAT     H135384   4.537   1.427   6.313  1.5548 -0.6403 -0.8206
 8666WAT     H235385   4.566   1.322   6.397  2.2834 -0.5311 -0.9319
 8666WAT    EPW35386   4.536   1.350   6.330  0.4979 -0.5160 -0.1900
 8667WAT      O35387   1.146   2.541   4.135  0.1663 -0.2402  0.2318
 8667WAT     H135388   1.061   2.546   4.151  0.0816 -1.6322  0.3267
 8667WAT     H235389   1.172   2.624   4.137 -0.9750  0.1262  1.3263
 8667WAT    EPW35390   1.138   2.554   4.138 -0.0148 -0.3917  0.4075
 8668WAT      O35391   3.245   0.732   5.779  0.1250 -0.1648 -0.4910
 8668WAT     H135392   3.289   0.799   5.745  1.5700  0.3494  2.1022
 8668WAT     H235393   3.307   0.681   5.812 -0.9707  0.6992  3.5460
 8668WAT    EPW35394   3.260   0.734   5.779  0.1766  0.0388  0.4884
 8669WAT      O35395   7.267   4.264   5.981  0.0407 -0.0795  0.0026
 8669WAT     H135396   7.196   4.291   5.938 -0.3248 -1.8633 -0.6120
 8669WAT     H235397   7.242   4.265   6.065 -0.2060  0.7212 -0.0786
 8669WAT    EPW35398   7.252   4.268   5.987 -0.0497 -0.2247 -0.1002
 8670WAT      O35399   2.104   5.370   1.523 -0.0622 -0.6200 -0.5939
 8670WAT     H135400   2.108   5.454   1.548 -0.1737 -0.2322 -1.8010
 8670WAT     H235401   2.188   5.350   1.507  0.3030 -1.4893  1.8492
 8670WAT    EPW35402   2.117   5.379   1.525 -0.0248 -0.6911 -0.4113
 8671WAT      O35403   6.002   6.622   4.714 -0.5016  0.3019  0.1819
 8671WAT     H135404   6.064   6.684   4.707  0.1785 -0.1286  1.8595
 8671WAT     H235405   5.948   6.655   4.773 -1.4151  0.2645 -0.6114
 8671WAT    EPW35406   6.003   6.636   4.721 -0.5361  0.2328  0.3126
 8672WAT      O35407   6.919   2.724   4.863 -0.3541 -0.5005 -0.1044
 8672WAT     H135408   6.948   2.644   4.842 -1.9281 -1.5921  1.6419
 8672WAT     H235409   6.864   2.710   4.929 -0.3489  2.1022  0.5609
 8672WAT    EPW35410   6.915   2.710   4.869 -0.5858 -0.2773  0.2518
 8673WAT      O35411   1.341   3.396   6.902  0.5166 -0.0962 -0.3123
 8673WAT     H135412   1.299   3.468   6.926  1.9347  0.6470  0.0073
 8673WAT     H235413   1.360   3.357   6.977 -1.0936 -1.3701 -0.4940
 8673WAT    EPW35414   1.337   3.401   6.916  0.4883 -0.1746 -0.2920
 8674WAT      O35415   5.041   3.153   0.052 -0.3595 -0.2109 -0.1966
 8674WAT     H135416   5.104   3.149   0.113 -0.4477  2.0012  0.1192
 8674WAT     H235417   5.065   3.220   0.002 -1.4221 -0.6245 -1.3172
 8674WAT    EPW35418   5.054   3.163   0.054 -0.5295  0.0548 -0.3155
 8675WAT      O35419   3.689   1.937   1.851  0.1333  0.4366 -0.1089
 8675WAT     H135420   3.654   1.957   1.928 -0.0877  2.4387 -0.6546
 8675WAT     H235421   3.737   2.008   1.832  0.8310 -0.3524 -1.4256
 8675WAT    EPW35422   3.691   1.951   1.859  0.2037  0.6158 -0.3840
 8676WAT      O35423   7.199   7.074   4.130  0.0689 -0.3125 -0.0087
 8676WAT     H135424   7.124   7.102   4.095  0.9010  1.6208 -0.3565
 8676WAT     H235425   7.236   7.147   4.160  1.4449 -1.3395  0.9139
 8676WAT    EPW35426   7.193   7.089   4.129  0.3951 -0.1786  0.0762
 8677WAT      O35427   4.294   3.086   0.237  0.1428  0.0996 -0.3793
 8677WAT     H135428   4.254   3.046   0.170  0.2678  1.7387 -1.4685
 8677WAT     H235429   4.369   3.043   0.244 -0.1216 -0.4673 -0.9082
 8677WAT    EPW35430   4.299   3.073   0.228  0.1222  0.2580 -0.6183
 8678WAT      O35431   3.062   6.465   3.735  0.3023 -0.2183  0.2497
 8678WAT     H135432   3.119   6.445   3.798  0.7590 -0.9258 -0.3671
 8678WAT     H235433   3.104   6.524   3.687 -0.1076  0.4390  0.6822
 8678WAT    EPW35434   3.076   6.471   3.737  0.3092 -0.2257  0.2225
 8679WAT      O35435   0.582   0.136   0.697  0.0253 -0.3756  0.2252
 8679WAT     H135436   0.606   0.208   0.739  0.0945 -0.6614  0.6840
 8679WAT     H235437   0.652   0.085   0.702 -0.7668 -1.3800  1.9308
 8679WAT    EPW35438   0.596   0.139   0.704 -0.0815 -0.5662  0.5450
 8680WAT      O35439   3.435   5.345   4.917  0.2927 -0.1503  0.3123
 8680WAT     H135440   3.519   5.357   4.939 -0.0665  1.9293  0.8167
 8680WAT     H235441   3.437   5.280   4.860  2.3731  0.4643 -0.3892
 8680WAT    EPW35442   3.447   5.337   4.912  0.5470  0.2477  0.2832
 8681WAT      O35443   4.292   2.352   4.214 -0.0787  0.2880  0.0758
 8681WAT     H135444   4.307   2.396   4.141 -0.7640  0.3506 -0.0357
 8681WAT     H235445   4.371   2.345   4.251  0.2863  0.1624 -0.7157
 8681WAT    EPW35446   4.306   2.357   4.209 -0.1260  0.2787 -0.0576
 8682WAT      O35447   1.447   1.569   2.633  0.2505 -0.9288 -0.2275
 8682WAT     H135448   1.507   1.616   2.591 -0.5653  0.4940  0.1374
 8682WAT     H235449   1.382   1.562   2.575 -1.1749  1.6367  0.9098
 8682WAT    EPW35450   1.446   1.575   2.618 -0.0806 -0.3396 -0.0056
 8683WAT      O35451   6.371   2.100   3.251 -0.3714 -0.6868  0.4967
 8683WAT     H135452   6.451   2.121   3.225 -0.4317 -1.8184 -0.6913
 8683WAT     H235453   6.329   2.177   3.254  0.2568 -0.2824 -0.6374
 8683WAT    EPW35454   6.377   2.114   3.248 -0.2875 -0.7942  0.1537
 8684WAT      O35455   6.475   2.742   1.404 -0.0768  0.1282  0.1946
 8684WAT     H135456   6.490   2.710   1.323 -1.3829  0.1111 -0.0614
 8684WAT     H235457   6.440   2.674   1.446 -0.8123  0.5624  0.3080
 8684WAT    EPW35458   6.472   2.727   1.398 -0.3784  0.1898  0.1735
 8685WAT      O35459   0.977   6.414   1.958 -0.1137  0.1342 -0.4812
 8685WAT     H135460   0.920   6.380   1.902 -0.4410 -1.2854  0.6582
 8685WAT     H235461   0.931   6.425   2.031  0.8879 -0.4163  0.2620
 8685WAT    EPW35462   0.962   6.411   1.961 -0.0141 -0.1568 -0.2031
 8686WAT      O35463   5.106   0.845   4.378  0.2811 -0.0774 -0.0372
 8686WAT     H135464   5.164   0.834   4.441 -0.6195  0.4920  0.9246
 8686WAT     H235465   5.035   0.803   4.407  0.4704 -1.6386 -1.6355
 8686WAT    EPW35466   5.104   0.837   4.392  0.1760 -0.2239 -0.1312
 8687WAT      O35467   1.480   5.077   3.906  0.1538 -0.0951  0.2631
 8687WAT     H135468   1.454   5.150   3.867  0.1576  0.3605  1.0856
 8687WAT     H235469   1.509   5.104   3.984 -0.6998 -1.0531  0.9589
 8687WAT    EPW35470   1.480   5.092   3.912  0.0283 -0.1693  0.4874
 8688WAT      O35471   4.906   0.989   0.848 -0.0452 -0.1918  0.6908
 8688WAT     H135472   4.898   1.035   0.775  1.1829  0.8306  1.1622
 8688WAT     H235473   4.838   1.016   0.896 -0.9418 -0.9761 -0.0925
 8688WAT    EPW35474   4.895   1.000   0.845  0.0038 -0.1567  0.6447
 8689WAT      O35475   4.780   1.344   2.141  0.1862 -0.2113 -0.4302
 8689WAT     H135476   4.719   1.396   2.108  0.3470 -0.2099 -0.7252
 8689WAT     H235477   4.736   1.291   2.194  0.2933  1.7628  1.8018
 8689WAT    EPW35478   4.765   1.344   2.144  0.2258  0.0805 -0.1441
 8690WAT      O35479   3.210   6.087   5.254 -0.1287  0.5273 -0.2931
 8690WAT     H135480   3.262   6.029   5.294  0.0360  0.3870 -0.7061
 8690WAT     H235481   3.157   6.038   5.205  0.0642  0.7263 -0.7052
 8690WAT    EPW35482   3.210   6.072   5.253 -0.0759  0.5359 -0.4150
 8691WAT      O35483   5.496   2.951   6.563 -0.2387  0.2285 -0.2342
 8691WAT     H135484   5.480   3.008   6.499 -0.3337 -1.1911 -1.5180
 8691WAT     H235485   5.559   2.900   6.530 -1.2302 -1.3876  0.2278
 8691WAT    EPW35486   5.503   2.952   6.549 -0.3992 -0.2199 -0.3556
 8692WAT      O35487   4.621   1.401   4.900 -0.3094  0.0511  0.6645
 8692WAT     H135488   4.560   1.391   4.838 -0.6586  0.1339  0.9894
 8692WAT     H235489   4.575   1.402   4.974 -0.1256  2.1356  0.8013
 8692WAT    EPW35490   4.605   1.399   4.901 -0.3338  0.3713  0.7327
 8693WAT      O35491   5.075   5.316   6.406 -0.0128  0.0703  0.1155
 8693WAT     H135492   5.136   5.303   6.344  1.6191  0.2965  1.5909
 8693WAT     H235493   5.078   5.244   6.454 -0.6023  0.2668  0.4595
 8693WAT    EPW35494   5.085   5.304   6.404  0.1412  0.1328  0.3843
 8694WAT      O35495   0.476   0.834   1.180  0.1723  0.3111 -0.2808
 8694WAT     H135496   0.487   0.908   1.134  0.7153  1.1358  1.1074
 8694WAT     H235497   0.424   0.786   1.129  2.2689  0.3520 -2.6443
 8694WAT    EPW35498   0.470   0.838   1.166  0.5622  0.4390 -0.4249
 8695WAT      O35499   6.478   2.289   6.098  0.1189  0.1562 -0.8077
 8695WAT     H135500   6.395   2.268   6.115 -0.0186  2.1694  1.5699
 8695WAT     H235501   6.523   2.251   6.162  0.8707  0.2382 -1.2716
 8695WAT    EPW35502   6.472   2.280   6.110  0.2097  0.4657 -0.5250
 8696WAT      O35503   2.850   6.147   6.223 -0.2579 -0.1573  0.6606
 8696WAT     H135504   2.866   6.061   6.227 -1.0171 -0.2981  0.7473
 8696WAT     H235505   2.930   6.182   6.214  0.0130 -0.9100 -0.0169
 8696WAT    EPW35506   2.864   6.140   6.222 -0.3300 -0.2893  0.5733
 8697WAT      O35507   4.863   5.686   6.436  0.6014  0.2572  0.1451
 8697WAT     H135508   4.843   5.616   6.485  0.1802  0.8859  0.8895
 8697WAT     H235509   4.797   5.691   6.380 -0.6163  1.4150  1.6013
 8697WAT    EPW35510   4.851   5.676   6.435  0.3593  0.5211  0.4702
 8698WAT      O35511   0.380   1.683   1.761 -0.0925  0.3384  0.4985
 8698WAT     H135512   0.420   1.735   1.703  1.1455 -0.3494  0.7169
 8698WAT     H235513   0.303   1.722   1.773 -0.4119  0.4825 -1.6490
 8698WAT    EPW35514   0.375   1.696   1.754  0.0432  0.2581  0.2135
 8699WAT      O35515   5.789   3.318   6.121 -0.1473 -0.1378 -0.5642
 8699WAT     H135516   5.741   3.337   6.191  0.8455  1.6525 -0.3027
 8699WAT     H235517   5.803   3.232   6.127 -2.3475 -0.5159 -0.0780
 8699WAT    EPW35518   5.784   3.308   6.132 -0.3256  0.0708 -0.4538
 8700WAT      O35519   2.565   0.650   2.285 -0.0360  0.4166  0.2014
 8700WAT     H135520   2.589   0.734   2.281 -0.3623  0.4719 -1.2140
 8700WAT     H235521   2.488   0.649   2.244 -0.3603 -0.4661  0.8292
 8700WAT    EPW35522   2.557   0.663   2.278 -0.1321  0.2944  0.0851
 8701WAT      O35523   6.242   2.687   5.535 -0.3569 -0.4197 -0.0760
 8701WAT     H135524   6.319   2.657   5.509 -0.1102  0.4280 -0.3546
 8701WAT     H235525   6.216   2.737   5.469 -1.8256 -1.7994 -0.6236
 8701WAT    EPW35526   6.249   2.690   5.522 -0.5374 -0.4983 -0.1980
 8702WAT      O35527   1.604   4.124   1.238  0.4581  0.6452 -0.0277
 8702WAT     H135528   1.607   4.075   1.166  0.2653 -0.7009  0.8261
 8702WAT     H235529   1.684   4.158   1.244  0.8318 -0.1643 -0.2616
 8702WAT    EPW35530   1.616   4.122   1.228  0.4848  0.3268  0.0639
 8703WAT      O35531   3.243   0.581   6.950  0.2198 -0.5395 -0.0052
 8703WAT     H135532   3.182   0.638   6.974 -0.8114 -1.3551 -0.6242
 8703WAT     H235533   3.259   0.536   7.023  0.8600  0.3387  0.4237
 8703WAT    EPW35534   3.237   0.583   6.964  0.1620 -0.5303 -0.0333
 8704WAT      O35535   1.299   0.772   5.121  1.0473  0.4982 -0.4708
 8704WAT     H135536   1.382   0.746   5.112  1.9993  1.9743  2.7274
 8704WAT     H235537   1.286   0.769   5.207 -1.6847  1.9038 -0.7360
 8704WAT    EPW35538   1.310   0.768   5.132  0.7843  0.9239 -0.0375
 8705WAT      O35539   0.417   7.057   1.029  0.0599  0.3300  0.1194
 8705WAT     H135540   0.356   7.091   1.081 -3.5712 -0.5448 -3.1206
 8705WAT     H235541   0.427   7.117   0.967  1.5947 -0.1417 -0.1495
 8705WAT    EPW35542   0.410   7.071   1.028 -0.2498  0.1311 -0.3989
 8706WAT      O35543   4.699   1.913   6.942 -0.0448  0.2145 -0.2031
 8706WAT     H135544   4.624   1.888   6.905 -0.9341 -0.8321  2.0904
 8706WAT     H235545   4.709   1.995   6.915 -1.7559  0.2007 -0.9798
 8706WAT    EPW35546   4.689   1.921   6.933 -0.4289  0.0578  0.0210
 8707WAT      O35547   1.071   5.296   6.311 -0.6089 -0.6128 -0.2133
 8707WAT     H135548   1.068   5.382   6.326  0.0007 -0.5676 -0.3258
 8707WAT     H235549   1.043   5.288   6.229  0.0149 -0.4425 -0.4523
 8707WAT    EPW35550   1.067   5.308   6.301 -0.4267 -0.5810 -0.2652
 8708WAT      O35551   5.917   7.209   5.118  0.0273  0.5131  0.2153
 8708WAT     H135552   5.875   7.272   5.075  0.1421  0.1924 -0.3825
 8708WAT     H235553   5.948   7.158   5.054 -0.9965 -0.7607  0.6896
 8708WAT    EPW35554   5.915   7.211   5.102 -0.1070  0.2775  0.1971
 8709WAT      O35555   3.502   7.128   5.247 -0.1737 -0.5563 -0.1390
 8709WAT     H135556   3.463   7.101   5.321 -0.1715  1.1993  0.5612
 8709WAT     H235557   3.505   7.215   5.257  2.2773 -0.4822 -0.9947
 8709WAT    EPW35558   3.497   7.137   5.260  0.1887 -0.2860 -0.1619
 8710WAT      O35559   7.010   5.959   2.079 -0.1388 -0.0801  0.7381
 8710WAT     H135560   6.933   5.922   2.064  0.1296  0.3902 -2.3660
 8710WAT     H235561   7.020   6.014   2.012  1.6410  2.0250  2.5749
 8710WAT    EPW35562   7.000   5.962   2.067  0.1638  0.3003  0.5509
 8711WAT      O35563   7.052   2.013   3.000  0.1661  0.0846 -0.3003
 8711WAT     H135564   7.040   2.099   3.007 -1.9344  0.0457 -2.2791
 8711WAT     H235565   7.003   1.980   3.064  0.2556  0.3577 -0.0930
 8711WAT    EPW35566   7.043   2.020   3.010 -0.1310  0.1192 -0.5620
 8712WAT      O35567   4.482   6.477   5.360 -0.2468 -0.1686  0.6064
 8712WAT     H135568   4.435   6.416   5.318  1.6723  0.5571 -2.9941
 8712WAT     H235569   4.547   6.432   5.397  0.1041 -0.5160 -0.4149
 8712WAT    EPW35570   4.484   6.461   5.359  0.0885 -0.1127 -0.0763
 8713WAT      O35571   2.348   5.236   1.473  0.5139 -0.0070 -0.1931
 8713WAT     H135572   2.341   5.156   1.438  0.6748 -0.0600 -0.1034
 8713WAT     H235573   2.421   5.232   1.520 -0.2536 -0.2599  1.0068
 8713WAT    EPW35574   2.358   5.223   1.475  0.4243 -0.0522 -0.0026
 8714WAT      O35575   7.156   2.352   0.795 -0.4477 -0.1007  1.2688
 8714WAT     H135576   7.070   2.366   0.798 -0.5624 -0.1696 -0.5652
 8714WAT     H235577   7.189   2.431   0.782 -0.5704 -0.4381 -1.8035
 8714WAT    EPW35578   7.148   2.366   0.794 -0.4828 -0.1607  0.5441
 8715WAT      O35579   3.663   4.881   0.750  0.2312  0.5488  0.2853
 8715WAT     H135580   3.720   4.898   0.814 -0.3550  1.1778  0.6634
 8715WAT     H235581   3.658   4.957   0.708 -1.2604  0.9001  1.0277
 8715WAT    EPW35582   3.671   4.895   0.753 -0.0757  0.6936  0.4508
 8716WAT      O35583   7.100   0.837   2.622  0.3790  0.2925  0.1598
 8716WAT     H135584   7.173   0.880   2.640 -0.0681  0.9358  0.4979
 8716WAT     H235585   7.040   0.877   2.672 -0.3960  0.4387 -0.8453
 8716WAT    EPW35586   7.102   0.850   2.632  0.1985  0.4091  0.0613
 8717WAT      O35587   6.541   5.297   5.316  0.0917  0.1751  0.3592
 8717WAT     H135588   6.470   5.254   5.341 -0.4024  1.8223  2.0478
 8717WAT     H235589   6.606   5.240   5.329 -0.5624 -0.2240  2.1878
 8717WAT    EPW35590   6.540   5.282   5.322 -0.0779  0.3595  0.8788
 8718WAT      O35591   0.456   4.130   4.551 -0.1450 -0.2974  0.1079
 8718WAT     H135592   0.388   4.118   4.603 -0.5039 -1.5704 -0.6288
 8718WAT     H235593   0.524   4.129   4.606 -0.6826  1.1052  0.8589
 8718WAT    EPW35594   0.456   4.128   4.567 -0.2774 -0.2783  0.1100
 8719WAT      O35595   3.179   2.057   0.279  0.1595  0.4255 -0.0027
 8719WAT     H135596   3.111   2.013   0.246 -1.0688  2.4907 -0.4393
 8719WAT     H235597   3.238   2.054   0.215 -0.7977  1.3160 -0.9544
 8719WAT    EPW35598   3.178   2.050   0.265 -0.1634  0.8621 -0.2078
 8720WAT      O35599   6.935   2.194   3.641  0.0711  0.0682 -0.4749
 8720WAT     H135600   6.964   2.138   3.581  0.8910  1.2622 -1.2296
 8720WAT     H235601   7.000   2.195   3.700 -0.2691 -0.3248 -0.0924
 8720WAT    EPW35602   6.949   2.186   3.641  0.1420  0.1865 -0.5299
 8721WAT      O35603   4.407   1.262   1.588 -0.4942  0.5173  0.2192
 8721WAT     H135604   4.336   1.219   1.614  0.0094 -0.6941 -0.3392
 8721WAT     H235605   4.377   1.315   1.526 -1.6024  2.9866  2.6357
 8721WAT    EPW35606   4.392   1.263   1.583 -0.5835  0.7031  0.4937
 8722WAT      O35607   1.369   1.464   3.903  0.1682  0.1004 -0.0230
 8722WAT     H135608   1.388   1.385   3.870 -0.7981  0.0925 -0.6040
 8722WAT     H235609   1.396   1.458   3.986 -1.6903 -1.5581  0.5304
 8722WAT    EPW35610   1.376   1.451   3.910 -0.2491 -0.1457 -0.0271
 8723WAT      O35611   3.144   7.164   3.393  0.1190  0.3937  0.0172
 8723WAT     H135612   3.092   7.188   3.459  0.3016  1.0983 -0.0905
 8723WAT     H235613   3.096   7.106   3.349 -0.3320  0.5691  0.2766
 8723WAT    EPW35614   3.129   7.159   3.397  0.0794  0.5237  0.0396
 8724WAT      O35615   1.601   0.866   4.249  0.7402 -0.3403 -0.4534
 8724WAT     H135616   1.520   0.895   4.265  0.7046  1.3598 -2.9826
 8724WAT     H235617   1.616   0.809   4.312 -1.3047  1.4615  1.8611
 8724WAT    EPW35618   1.591   0.862   4.261  0.4328  0.1770 -0.4851
 8725WAT      O35619   6.780   2.771   1.934  0.1900 -0.0885  0.4790
 8725WAT     H135620   6.813   2.753   1.856  1.0115  1.7120  0.3549
 8725WAT     H235621   6.772   2.858   1.933 -0.9211 -0.1270  1.9596
 8725WAT    EPW35622   6.784   2.782   1.922  0.1472  0.1718  0.6794
 8726WAT      O35623   2.818   5.530   2.565  0.3316 -0.5899  0.1399
 8726WAT     H135624   2.846   5.611   2.553 -0.9032  0.0094  1.1583
 8726WAT     H235625   2.871   5.499   2.627 -1.1402  0.5285  2.0446
 8726WAT    EPW35626   2.830   5.537   2.572 -0.0682 -0.3361  0.5717
 8727WAT      O35627   0.085   1.760   5.502  0.1922  0.3340 -0.1400
 8727WAT     H135628   0.137   1.801   5.558  0.8609 -0.7667  0.0778
 8727WAT     H235629   0.082   1.813   5.433  0.9120  0.8038  0.1902
 8727WAT    EPW35630   0.092   1.774   5.500  0.3973  0.2408 -0.0590
 8728WAT      O35631   5.725   2.606   4.862  0.5388  0.0540  0.2253
 8728WAT     H135632   5.671   2.556   4.815  2.0360 -1.4633  0.0170
 8728WAT     H235633   5.680   2.620   4.936 -0.5440 -0.2835 -0.3458
 8728WAT    EPW35634   5.711   2.601   4.866  0.6000 -0.2200  0.1101
 8729WAT      O35635   0.706   6.152   6.654 -0.2955  0.2291  0.6044
 8729WAT     H135636   0.763   6.207   6.691  0.8253 -1.0960  0.8960
 8729WAT     H235637   0.739   6.137   6.575 -0.6609  0.0359  0.4840
 8729WAT    EPW35638   0.719   6.158   6.648 -0.1839  0.0048  0.6297
 8730WAT      O35639   0.450   0.584   3.594 -0.2589 -0.0597  0.0832
 8730WAT     H135640   0.388   0.527   3.614 -0.7409  0.0205 -1.0787
 8730WAT     H235641   0.407   0.660   3.590 -0.3023 -0.1217 -1.5339
 8730WAT    EPW35642   0.434   0.587   3.596 -0.3365 -0.0570 -0.3273
 8731WAT      O35643   4.617   2.598   2.602 -0.2137  0.1949 -0.0466
 8731WAT     H135644   4.678   2.553   2.645  2.7878  2.0850 -1.9169
 8731WAT     H235645   4.663   2.657   2.557 -3.3095  0.5936 -3.1498
 8731WAT    EPW35646   4.633   2.600   2.602 -0.2276  0.5330 -0.7813
 8732WAT      O35647   0.854   2.894   4.266  0.2167 -0.1578 -0.4035
 8732WAT     H135648   0.924   2.946   4.264  0.7012 -0.8131 -1.5927
 8732WAT     H235649   0.796   2.935   4.215 -0.0674  0.1150  0.1376
 8732WAT    EPW35650   0.855   2.907   4.258  0.2463 -0.2143 -0.4993
 8733WAT      O35651   2.161   6.475   0.213  0.7126 -0.0731  0.1781
 8733WAT     H135652   2.212   6.491   0.143  3.6197  0.7544  2.2781
 8733WAT     H235653   2.144   6.390   0.206  1.1604 -0.0658 -1.4068
 8733WAT    EPW35654   2.166   6.465   0.201  1.2082  0.0502  0.2542
 8734WAT      O35655   5.362   6.855   3.278 -0.5364 -0.0919  0.7335
 8734WAT     H135656   5.295   6.804   3.302 -0.9634 -0.1390 -0.4700
 8734WAT     H235657   5.327   6.907   3.217  0.1448  0.9752  1.2140
 8734WAT    EPW35658   5.347   6.855   3.273 -0.4989  0.0587  0.6267
 8735WAT      O35659   2.812   0.950   6.052 -0.1856  0.0645 -0.0371
 8735WAT     H135660   2.728   0.956   6.029  0.1955  1.8172 -1.1732
 8735WAT     H235661   2.854   0.962   5.977  1.1238 -1.3427  0.4191
 8735WAT    EPW35662   2.806   0.952   6.038  0.0641  0.1156 -0.1376
 8736WAT      O35663   6.103   4.155   4.070 -0.1481 -0.0600 -0.3815
 8736WAT     H135664   6.031   4.122   4.033  1.4476 -0.9064 -2.9683
 8736WAT     H235665   6.106   4.236   4.039 -1.7828  1.3408  2.6256
 8736WAT    EPW35666   6.093   4.162   4.060 -0.1539  0.0219 -0.3194
 8737WAT      O35667   1.304   7.053   4.321 -0.3883 -0.5529 -0.0580
 8737WAT     H135668   1.302   6.976   4.363  0.8128  0.0252  1.1287
 8737WAT     H235669   1.318   7.111   4.385  0.7829  0.4293 -1.1567
 8737WAT    EPW35670   1.306   7.050   4.337 -0.0379 -0.3224 -0.0450
 8738WAT      O35671   6.602   2.014   3.490  0.0010  0.4338  0.0774
 8738WAT     H135672   6.654   1.955   3.528 -0.2770 -0.1398 -0.4265
 8738WAT     H235673   6.600   2.079   3.548 -0.1302 -0.2746  0.8807
 8738WAT    EPW35674   6.610   2.015   3.504 -0.0595  0.2444  0.1216
 8739WAT      O35675   2.605   5.025   4.551  0.2018  0.2879  0.0641
 8739WAT     H135676   2.569   5.046   4.628  0.1482  0.1850  0.0668
 8739WAT     H235677   2.682   4.991   4.573  0.2829  0.4669  0.0596
 8739WAT    EPW35678   2.611   5.023   4.566  0.2058  0.2992  0.0638
 8740WAT      O35679   3.320   1.743   3.526 -0.2996 -0.1514 -0.0161
 8740WAT     H135680   3.259   1.790   3.567 -0.4688 -0.5574  0.2128
 8740WAT     H235681   3.389   1.750   3.579 -0.0430  0.5587 -0.4286
 8740WAT    EPW35682   3.321   1.751   3.540 -0.2867 -0.1065 -0.0432
 8741WAT      O35683   6.371   1.522   4.322  0.6482  0.2695 -0.0538
 8741WAT     H135684   6.299   1.504   4.276  1.2796  1.4085 -1.5832
 8741WAT     H235685   6.346   1.511   4.405 -0.5673 -1.7886 -0.6208
 8741WAT    EPW35686   6.357   1.517   4.327  0.5619  0.1337 -0.3635
 8742WAT      O35687   0.158   0.608   3.412 -0.3911 -0.4021  0.0728
 8742WAT     H135688   0.084   0.574   3.445  0.9697 -1.7070  1.9954
 8742WAT     H235689   0.174   0.676   3.465  0.0485 -0.4656  0.0249
 8742WAT    EPW35690   0.149   0.613   3.425 -0.1252 -0.6042  0.3497
 8743WAT      O35691   2.467   3.899   1.937  0.3990 -0.3072 -0.0383
 8743WAT     H135692   2.408   3.836   1.927 -0.4814  0.6089 -0.6664
 8743WAT     H235693   2.463   3.944   1.863  2.9593 -1.0858 -0.7690
 8743WAT    EPW35694   2.458   3.896   1.925  0.6471 -0.2869 -0.2390
 8744WAT      O35695   3.047   2.942   3.680 -0.0970  0.6361  0.2863
 8744WAT     H135696   3.103   2.996   3.642 -1.4688  0.9741 -1.3535
 8744WAT     H235697   2.973   2.987   3.683 -0.8075 -0.4984  0.5932
 8744WAT    EPW35698   3.044   2.957   3.675 -0.4046  0.5184  0.0894
 8745WAT      O35699   5.542   5.397   2.026 -0.5282  0.3502 -0.4302
 8745WAT     H135700   5.586   5.335   1.983  2.0252  1.1885  0.7424
 8745WAT     H235701   5.573   5.391   2.107 -3.1896  0.5982  0.6912
 8745WAT    EPW35702   5.553   5.387   2.031 -0.5442  0.5106 -0.0913
 8746WAT      O35703   2.725   2.071   5.137  0.1426  0.5726 -0.2024
 8746WAT     H135704   2.756   2.143   5.176  1.8898 -0.4682  0.4878
 8746WAT     H235705   2.748   2.008   5.193 -1.2454 -0.5282 -0.8526
 8746WAT    EPW35706   2.733   2.073   5.151  0.1957  0.2563 -0.1965
 8747WAT      O35707   6.961   2.767   0.533  0.0092 -0.1928 -0.2247
 8747WAT     H135708   6.995   2.753   0.454 -1.2622 -1.0266 -0.6673
 8747WAT     H235709   7.026   2.802   0.578  0.1660  2.5340 -2.2979
 8747WAT    EPW35710   6.975   2.770   0.528 -0.1554  0.0868 -0.5964
 8748WAT      O35711   4.978   4.420   0.678 -0.3728  0.3629 -0.2283
 8748WAT     H135712   5.031   4.380   0.735  1.1787  0.1506 -1.7459
 8748WAT     H235713   4.922   4.463   0.730 -0.0742 -1.1266  1.4403
 8748WAT    EPW35714   4.978   4.421   0.694 -0.0995  0.1115 -0.2060
 8749WAT      O35715   0.040   4.545   0.620 -0.0898  0.3912 -0.8957
 8749WAT     H135716   0.057   4.629   0.639  1.3174  0.7578 -3.2955
 8749WAT     H235717  -0.024   4.550   0.561 -0.4837 -0.2767 -0.5310
 8749WAT    EPW35718   0.033   4.558   0.614  0.0599  0.3467 -1.1963
 8750WAT      O35719   2.808   2.543   2.615  0.3896  0.1221 -0.5588
 8750WAT     H135720   2.760   2.611   2.641  0.9998  0.6185 -0.7291
 8750WAT     H235721   2.862   2.576   2.555 -0.5931 -0.8943 -2.0676
 8750WAT    EPW35722   2.809   2.558   2.610  0.3345  0.0453 -0.8068
 8751WAT      O35723   5.509   0.946   5.190 -0.1102  0.2218  0.1729
 8751WAT     H135724   5.491   0.875   5.237  2.5074 -0.0594  0.9488
 8751WAT     H235725   5.439   0.997   5.201 -0.9333 -1.1569  1.7754
 8751WAT    EPW35726   5.496   0.943   5.199  0.1549 -0.0234  0.5242
 8752WAT      O35727   0.982   1.526   5.214  0.4686 -0.1523  0.6683
 8752WAT     H135728   1.036   1.518   5.145 -0.3531  0.6082 -0.0912
 8752WAT     H235729   0.942   1.449   5.217  1.8208 -0.8649  1.4675
 8752WAT    EPW35730   0.984   1.514   5.204  0.5470 -0.1452  0.6741
 8753WAT      O35731   2.555   5.954   0.643  0.2022  0.0941 -0.5349
 8753WAT     H135732   2.625   5.903   0.640 -0.5288 -0.9417 -0.3662
 8753WAT     H235733   2.566   6.008   0.575  0.2518 -1.2995 -1.6850
 8753WAT    EPW35734   2.567   5.955   0.632  0.1016 -0.2648 -0.6799
 8754WAT      O35735   0.483   1.177   1.612  0.2041 -0.6553  0.4504
 8754WAT     H135736   0.561   1.153   1.581  1.3852 -1.9153  3.8540
 8754WAT     H235737   0.490   1.263   1.623  1.0335 -0.7225  0.4828
 8754WAT    EPW35738   0.495   1.186   1.609  0.5011 -0.8514  0.9580
 8755WAT      O35739   6.887   5.030   0.089  0.3267 -0.5101 -0.1555
 8755WAT     H135740   6.836   5.057   0.155  0.6620 -0.8789  0.2663
 8755WAT     H235741   6.963   5.072   0.105  0.3608 -0.4799 -0.3985
 8755WAT    EPW35742   6.891   5.040   0.101  0.3813 -0.5601 -0.1291
 8756WAT      O35743   3.566   0.136   3.882 -0.2864 -0.0633 -0.2708
 8756WAT     H135744   3.501   0.079   3.869  1.5245 -2.3668  0.1620
 8756WAT     H235745   3.533   0.212   3.853 -2.9357 -1.2226 -0.5706
 8756WAT    EPW35746   3.552   0.139   3.876 -0.4102 -0.5748 -0.2512
 8757WAT      O35747   2.136   2.651   1.884 -0.4933 -0.2349 -0.4177
 8757WAT     H135748   2.141   2.735   1.859 -0.6607 -0.0449  0.1748
 8757WAT     H235749   2.203   2.642   1.939  1.5295 -1.3651 -2.8478
 8757WAT    EPW35750   2.147   2.662   1.888 -0.2192 -0.3738 -0.6892
 8758WAT      O35751   6.664   1.382   3.052  0.2993 -0.5773 -0.5378
 8758WAT     H135752   6.658   1.375   2.965 -3.9036 -0.9164 -0.4020
 8758WAT     H235753   6.607   1.444   3.072  0.8255 -0.7998  2.0490
 8758WAT    EPW35754   6.655   1.390   3.042 -0.2438 -0.6603 -0.1356
 8759WAT      O35755   5.449   0.242   2.393  0.1151 -0.0368  0.5978
 8759WAT     H135756   5.433   0.250   2.479  1.8417 -1.5306  1.1091
 8759WAT     H235757   5.478   0.321   2.370 -2.5628  1.1062  0.8030
 8759WAT    EPW35758   5.451   0.255   2.402 -0.0254 -0.0886  0.7036
 8760WAT      O35759   6.450   4.204   0.650 -0.3178  0.1509 -0.1420
 8760WAT     H135760   6.443   4.134   0.598  0.3697  1.0971 -1.5721
 8760WAT     H235761   6.430   4.270   0.597  1.1951  1.2355  0.5714
 8760WAT    EPW35762   6.446   4.203   0.635  0.0072  0.4509 -0.2479
 8761WAT      O35763   6.219   3.135   3.935 -0.1605 -0.3410  0.5966
 8761WAT     H135764   6.162   3.183   3.889  0.5887 -1.1960 -1.3499
 8761WAT     H235765   6.185   3.134   4.015 -0.5628  2.8648  0.6137
 8761WAT    EPW35766   6.206   3.142   3.940 -0.1092  0.0063  0.3116
 8762WAT      O35767   6.823   3.825   6.984 -0.2887  0.1023 -0.2833
 8762WAT     H135768   6.772   3.813   6.915 -0.3214  0.2840 -0.2922
 8762WAT     H235769   6.795   3.901   7.017  0.0433  0.2533 -0.3490
 8762WAT    EPW35770   6.811   3.835   6.979 -0.2445  0.1515 -0.2943
 8763WAT      O35771   5.007   0.851   2.614  0.1372  0.4665 -0.3132
 8763WAT     H135772   5.028   0.789   2.556  0.1190 -1.3431  1.5034
 8763WAT     H235773   4.932   0.822   2.648 -0.3881  2.0174 -0.0558
 8763WAT    EPW35774   4.999   0.838   2.610  0.0569  0.4283 -0.0068
 8764WAT      O35775   2.333   1.391   7.256 -0.0187 -0.0667  0.9498
 8764WAT     H135776   2.349   1.453   7.197  2.9016 -0.8757  0.7414
 8764WAT     H235777   2.265   1.348   7.224  0.1398  0.8711 -0.7134
 8764WAT    EPW35778   2.325   1.394   7.243  0.4361 -0.0476  0.6733
 8765WAT      O35779   2.552   7.162   4.089  0.9994  0.1368  0.2973
 8765WAT     H135780   2.525   7.131   4.166  0.9735 -1.4983 -0.3322
 8765WAT     H235781   2.478   7.180   4.047  0.7571 -3.1623 -0.9543
 8765WAT    EPW35782   2.537   7.160   4.094  0.9598 -0.5921  0.0194
 8766WAT      O35783   0.776   4.221   4.234 -0.3169 -0.1126  0.1282
 8766WAT     H135784   0.693   4.230   4.258 -0.2753  1.9415 -0.3125
 8766WAT     H235785   0.785   4.277   4.167  0.9286 -1.7388 -1.1785
 8766WAT    EPW35786   0.765   4.231   4.228 -0.1267 -0.0494 -0.1299
 8767WAT      O35787   5.015   6.176   2.090 -0.3709  0.1058  0.3479
 8767WAT     H135788   5.027   6.126   2.160 -0.4710  0.6960  0.7992
 8767WAT     H235789   4.939   6.215   2.106 -0.0254  0.8290  0.2817
 8767WAT    EPW35790   5.006   6.175   2.103 -0.3347  0.2998  0.4048
 8768WAT      O35791   5.558   4.414   4.772  0.2285  0.2183  0.4380
 8768WAT     H135792   5.488   4.466   4.763  1.4496  2.3127  1.9772
 8768WAT     H235793   5.603   4.429   4.699  0.6861  1.6143  0.9679
 8768WAT    EPW35794   5.554   4.424   4.760  0.4765  0.7339  0.7437
 8769WAT      O35795   5.995   6.524   7.168 -0.2821  0.1421 -0.1383
 8769WAT     H135796   6.013   6.439   7.157 -2.6078 -0.5544  0.7407
 8769WAT     H235797   5.919   6.523   7.211 -0.3997  2.6965 -0.1372
 8769WAT    EPW35798   5.986   6.511   7.173 -0.6430  0.4166 -0.0083
 8770WAT      O35799   6.040   4.828   1.166  0.2358  1.2233  0.5859
 8770WAT     H135800   6.121   4.853   1.184  1.0735  0.4774 -1.8195
 8770WAT     H235801   6.006   4.896   1.124  0.0919  1.0369  0.3944
 8770WAT    EPW35802   6.047   4.842   1.162  0.3383  1.0856  0.2023
 8771WAT      O35803   5.809   6.299   2.112 -0.2389 -0.3485  0.1039
 8771WAT     H135804   5.881   6.266   2.076 -0.9370 -0.4564 -1.2769
 8771WAT     H235805   5.748   6.239   2.095 -0.6664 -0.2737  1.2761
 8771WAT    EPW35806   5.811   6.285   2.104 -0.4052 -0.3534  0.0731
 8772WAT      O35807   2.800   3.152   3.926  0.3233  0.2425  0.8616
 8772WAT     H135808   2.813   3.117   3.847 -0.3739 -0.0980  0.8846
 8772WAT     H235809   2.879   3.177   3.952  0.6876 -0.4413  0.4276
 8772WAT    EPW35810   2.813   3.151   3.918  0.2741  0.0912  0.8009
 8773WAT      O35811   1.526   3.321   0.004 -0.1056  0.0817  0.1282
 8773WAT     H135812   1.560   3.358   0.075  0.3931  1.8641 -0.9775
 8773WAT     H235813   1.530   3.236   0.021  0.9978  0.4193  1.7703
 8773WAT    EPW35814   1.531   3.314   0.017  0.1311  0.3949  0.2075
 8774WAT      O35815   2.788   3.880   7.096  0.1441 -0.7249 -0.0958
 8774WAT     H135816   2.854   3.936   7.112 -0.2200  0.0758 -1.3052
 8774WAT     H235817   2.822   3.826   7.036 -0.3946 -0.0848 -0.9994
 8774WAT    EPW35818   2.803   3.881   7.089  0.0108 -0.5121 -0.4079
 8775WAT      O35819   7.197   2.699   0.927  0.0101 -0.1077 -0.3319
 8775WAT     H135820   7.255   2.653   0.972  0.0870  0.4384  0.1416
 8775WAT     H235821   7.129   2.708   0.982  0.9274  2.3656  0.5556
 8775WAT    EPW35822   7.195   2.694   0.941  0.1569  0.3383 -0.1308
 8776WAT      O35823   2.878   1.136   6.541  0.5525  0.9497  0.8487
 8776WAT     H135824   2.931   1.068   6.553 -1.3450 -0.8130 -0.2060
 8776WAT     H235825   2.868   1.140   6.455 -0.7554  1.4041  0.9903
 8776WAT    EPW35826   2.884   1.127   6.530  0.0790  0.7564  0.7138
 8777WAT      O35827   1.819   1.476   5.475  0.3148  0.5885 -0.1302
 8777WAT     H135828   1.830   1.523   5.548  0.7438  0.0402  0.1738
 8777WAT     H235829   1.737   1.447   5.482  0.1655  1.0055 -0.1467
 8777WAT    EPW35830   1.808   1.479   5.487  0.3561  0.5691 -0.0877
 8778WAT      O35831   6.806   3.847   5.808 -0.4666 -0.1301 -0.0218
 8778WAT     H135832   6.747   3.901   5.842 -0.2542 -0.5382  1.0151
 8778WAT     H235833   6.762   3.806   5.744 -0.6430  1.2106 -0.7988
 8778WAT    EPW35834   6.791   3.849   5.803 -0.4613  0.0077  0.0166
 8779WAT      O35835   5.064   6.143   1.470 -0.1442 -0.1605  0.3426
 8779WAT     H135836   5.134   6.103   1.436 -0.2946  1.3468 -1.9618
 8779WAT     H235837   5.052   6.102   1.546  2.1274 -1.6866 -0.0170
 8779WAT    EPW35838   5.072   6.131   1.477  0.1691 -0.1633 -0.0510
 8780WAT      O35839   2.934   4.347   3.477 -0.2252  0.6086 -0.1781
 8780WAT     H135840   2.886   4.415   3.503 -1.0212 -0.7948  2.3527
 8780WAT     H235841   3.007   4.354   3.523 -0.4024 -0.3408  0.2675
 8780WAT    EPW35842   2.938   4.358   3.488 -0.3690  0.2611  0.2616
 8781WAT      O35843   0.395   6.216   0.265 -0.0611 -0.3965 -0.1368
 8781WAT     H135844   0.346   6.160   0.311  0.6729  0.3781  1.6786
 8781WAT     H235845   0.476   6.203   0.296  0.5573 -0.1790 -1.5788
 8781WAT    EPW35846   0.400   6.206   0.276  0.1387 -0.2499 -0.0816
 8782WAT      O35847   3.827   6.470   2.725  0.2953 -0.9339 -0.0577
 8782WAT     H135848   3.794   6.426   2.657  3.4896 -1.1529 -1.6185
 8782WAT     H235849   3.864   6.407   2.774  1.0939 -0.4219  0.0056
 8782WAT    EPW35850   3.827   6.454   2.722  0.8851 -0.8906 -0.2789
 8783WAT      O35851   6.872   6.093   1.438  0.3638  0.4868  0.1158
 8783WAT     H135852   6.811   6.039   1.406  1.4325 -0.6790  0.0146
 8783WAT     H235853   6.906   6.130   1.366  0.5212  0.3373  0.1156
 8783WAT    EPW35854   6.868   6.091   1.422  0.5449  0.2925  0.1008
 8784WAT      O35855   2.154   2.075   4.417 -0.3553 -1.3285  0.1746
 8784WAT     H135856   2.127   2.110   4.342 -0.7007  0.3109  1.0192
 8784WAT     H235857   2.080   2.069   4.464  0.4137  2.5350  2.2586
 8784WAT    EPW35858   2.139   2.079   4.413 -0.2927 -0.5156  0.6072
 8785WAT      O35859   2.209   5.791   1.086  0.0087  0.4505 -0.0533
 8785WAT     H135860   2.270   5.809   1.025  0.2114 -0.0177  0.0123
 8785WAT     H235861   2.150   5.744   1.042  0.3346 -0.1997  0.1944
 8785WAT    EPW35862   2.209   5.787   1.070  0.0868  0.2853 -0.0070
 8786WAT      O35863   2.778   0.282   2.943 -0.3972  0.2532 -0.1630
 8786WAT     H135864   2.854   0.248   2.967 -0.7146 -0.1210  0.3434
 8786WAT     H235865   2.731   0.280   3.017 -0.9796  0.2483 -0.5311
 8786WAT    EPW35866   2.782   0.277   2.958 -0.5301  0.1972 -0.1426
 8787WAT      O35867   6.327   4.897   4.991  0.0415 -0.2730 -0.1246
 8787WAT     H135868   6.401   4.938   5.012 -0.6205  1.1111 -0.3860
 8787WAT     H235869   6.350   4.812   4.990  1.5570  0.1088 -0.0047
 8787WAT    EPW35870   6.342   4.890   4.994  0.1676 -0.0122 -0.1455
 8788WAT      O35871   0.517   2.709   0.020 -0.1625  0.1213  0.0567
 8788WAT     H135872   0.527   2.623   0.013 -0.2422  0.0098  1.1266
 8788WAT     H235873   0.591   2.735   0.059 -0.1184  0.5434 -0.2985
 8788WAT    EPW35874   0.530   2.700   0.025 -0.1678  0.1672  0.1623
 8789WAT      O35875   3.091   2.475   1.257  0.3880 -0.0979 -0.4060
 8789WAT     H135876   3.009   2.502   1.249 -0.3814 -1.6662  1.3355
 8789WAT     H235877   3.126   2.534   1.312  0.0915 -0.0515 -0.2633
 8789WAT    EPW35878   3.084   2.488   1.264  0.2306 -0.3227 -0.1277
 8790WAT      O35879   0.541   0.054   3.613 -0.0258  0.8171 -0.6233
 8790WAT     H135880   0.532   0.098   3.688  2.1378 -0.0057  0.1999
 8790WAT     H235881   0.478  -0.006   3.616  1.5330 -0.9017  1.8991
 8790WAT    EPW35882   0.531   0.052   3.624  0.5241  0.4417 -0.1291
 8791WAT      O35883   1.665   2.553   6.562 -0.0080  0.1946  0.3673
 8791WAT     H135884   1.685   2.478   6.523 -0.9905  0.5375 -0.8278
 8791WAT     H235885   1.726   2.609   6.532  0.2737  0.0639  0.6834
 8791WAT    EPW35886   1.677   2.550   6.552 -0.1115  0.2260  0.2375
 8792WAT      O35887   0.544   6.224   2.291 -0.4678  0.0416 -0.4430
 8792WAT     H135888   0.507   6.215   2.213 -4.4653  1.2317  1.0789
 8792WAT     H235889   0.546   6.142   2.323 -1.0710 -0.1432 -0.8758
 8792WAT    EPW35890   0.539   6.210   2.284 -1.1474  0.1901 -0.2821
 8793WAT      O35891   2.526   6.665   3.170  0.4862  0.6661  0.2443
 8793WAT     H135892   2.479   6.593   3.157 -1.1309  1.2460  2.3655
 8793WAT     H235893   2.590   6.639   3.223  0.4204  0.6319  0.3053
 8793WAT    EPW35894   2.529   6.651   3.176  0.2376  0.7467  0.5666
 8794WAT      O35895   1.234   4.103   5.811  0.0107 -0.5796 -0.2183
 8794WAT     H135896   1.219   4.069   5.731 -1.0028 -1.8049  0.4476
 8794WAT     H235897   1.162   4.150   5.827  0.2250 -0.3130 -0.0335
 8794WAT    EPW35898   1.221   4.105   5.801 -0.1073 -0.7212 -0.0927
 8795WAT      O35899   0.084   5.917   2.811  0.1423 -0.2298  0.0015
 8795WAT     H135900   0.029   5.912   2.744 -0.7335  0.8087  0.6123
 8795WAT     H235901   0.158   5.947   2.776 -0.5457  1.0745 -0.3895
 8795WAT    EPW35902   0.086   5.920   2.796 -0.0887  0.1163  0.0339
 8796WAT      O35903   2.202   4.599   5.550 -0.4378 -0.0990 -0.1113
 8796WAT     H135904   2.282   4.632   5.542  0.2769 -1.5432  0.6781
 8796WAT     H235905   2.156   4.665   5.585  0.7810  0.2579  0.8738
 8796WAT    EPW35906   2.207   4.614   5.554 -0.1522 -0.2596  0.1508
 8797WAT      O35907   6.429   4.699   7.013 -0.1353 -0.6413  0.0384
 8797WAT     H135908   6.399   4.748   6.947 -0.6469 -0.6383  0.2665
 8797WAT     H235909   6.386   4.623   7.002  0.4073 -0.9276 -0.1219
 8797WAT    EPW35910   6.418   4.695   7.002 -0.1307 -0.6831  0.0484
 8798WAT      O35911   5.395   6.773   0.348  0.0654  0.5725 -0.1015
 8798WAT     H135912   5.415   6.692   0.375 -1.1492  0.8080  1.6398
 8798WAT     H235913   5.314   6.764   0.315 -1.1834  1.4841  2.4869
 8798WAT    EPW35914   5.386   6.760   0.347 -0.2985  0.7419  0.5381
 8799WAT      O35915   1.574   1.848   2.120 -0.2563 -0.0273 -0.4314
 8799WAT     H135916   1.554   1.928   2.146 -0.6133 -0.5830  1.0759
 8799WAT     H235917   1.497   1.814   2.095 -0.5151 -0.6663  1.1526
 8799WAT    EPW35918   1.560   1.855   2.120 -0.3472 -0.2038  0.0253
 8800WAT      O35919   3.364   2.444   6.935 -0.1347  0.0474 -0.0088
 8800WAT     H135920   3.446   2.473   6.943 -0.5020  1.0162  0.3865
 8800WAT     H235921   3.369   2.388   6.869  0.4488  1.7357 -1.4942
 8800WAT    EPW35922   3.377   2.440   6.926 -0.1027  0.4399 -0.1698
 8801WAT      O35923   2.872   4.920   1.417  0.1834  0.1426 -0.3834
 8801WAT     H135924   2.885   4.976   1.482  0.3280 -1.0969  0.6975
 8801WAT     H235925   2.792   4.889   1.431  0.7746 -1.2615  0.1438
 8801WAT    EPW35926   2.862   4.924   1.429  0.2921 -0.2479 -0.1458
 8802WAT      O35927   2.508   0.641   5.095 -0.0899  0.2551 -0.0746
 8802WAT     H135928   2.454   0.579   5.066 -1.0303  0.7233  0.6019
 8802WAT     H235929   2.577   0.636   5.042 -1.3290  0.4545 -1.7806
 8802WAT    EPW35930   2.510   0.631   5.083 -0.4118  0.3537 -0.2267
 8803WAT      O35931   6.448   3.803   5.840 -0.3663 -0.0322  0.1303
 8803WAT     H135932   6.483   3.805   5.920 -0.8247  1.4766  0.3305
 8803WAT     H235933   6.369   3.768   5.853 -1.5769  2.7078  0.9041
 8803WAT    EPW35934   6.442   3.798   5.854 -0.6128  0.5955  0.2742
 8804WAT      O35935   0.217   2.404   6.334 -0.4503 -0.4961 -0.5441
 8804WAT     H135936   0.233   2.474   6.384  1.8383 -0.6070 -1.0218
 8804WAT     H235937   0.186   2.438   6.260 -0.4003 -0.0564 -0.3669
 8804WAT    EPW35938   0.215   2.419   6.331 -0.1048 -0.4476 -0.5885
 8805WAT      O35939   7.028   5.455   1.821  0.0492  0.1372 -0.1601
 8805WAT     H135940   6.974   5.426   1.759  2.3589  0.0828 -2.2926
 8805WAT     H235941   7.063   5.382   1.853  0.9694  0.2578 -0.8564
 8805WAT    EPW35942   7.025   5.440   1.817  0.5263  0.1470 -0.5780
 8806WAT      O35943   7.189   3.934   6.138 -0.4750  0.2282 -0.2504
 8806WAT     H135944   7.220   3.923   6.057  0.0585  1.6002 -0.2656
 8806WAT     H235945   7.184   3.853   6.169 -1.4763 -0.4063 -1.9229
 8806WAT    EPW35946   7.193   3.921   6.131 -0.5441  0.3372 -0.4997
 8807WAT      O35947   6.298   6.168   1.600 -0.4656  0.0098 -0.0419
 8807WAT     H135948   6.247   6.239   1.597 -1.4594 -0.5236  2.1526
 8807WAT     H235949   6.377   6.198   1.576 -0.9581  1.7532  0.3944
 8807WAT    EPW35950   6.302   6.183   1.596 -0.6852  0.1885  0.3468
 8808WAT      O35951   6.784   2.256   4.490 -0.4025 -0.6232  0.6537
 8808WAT     H135952   6.851   2.202   4.508  1.4813  0.8394 -1.4166
 8808WAT     H235953   6.775   2.249   4.403 -0.7394  1.6474  0.4583
 8808WAT    EPW35954   6.793   2.247   4.480 -0.1740 -0.0717  0.3191
 8809WAT      O35955   5.755   4.604   0.893  0.1826 -0.0972 -0.3620
 8809WAT     H135956   5.682   4.591   0.939 -0.9135  1.4659 -1.5654
 8809WAT     H235957   5.819   4.595   0.953 -1.1297  1.2284  1.3389
 8809WAT    EPW35958   5.754   4.601   0.909 -0.1732  0.3295 -0.2885
 8810WAT      O35959   6.376   0.344   5.338 -0.2365  0.1165 -0.3219
 8810WAT     H135960   6.453   0.313   5.366 -1.1845 -1.3353  0.8316
 8810WAT     H235961   6.373   0.425   5.370  0.1742 -0.3502  0.9452
 8810WAT    EPW35962   6.387   0.351   5.346 -0.3158 -0.1669  0.0357
 8811WAT      O35963   0.411   7.172   0.787  0.0342 -0.2048 -0.0391
 8811WAT     H135964   0.329   7.196   0.769 -0.7374 -0.1950  2.9196
 8811WAT     H235965   0.457   7.245   0.772 -0.5726 -0.0256 -1.1272
 8811WAT    EPW35966   0.405   7.186   0.782 -0.1694 -0.1769  0.2372
 8812WAT      O35967   6.686   6.337   1.928 -0.3028 -0.1019  0.5802
 8812WAT     H135968   6.723   6.416   1.925  1.0903 -0.7598 -0.9687
 8812WAT     H235969   6.653   6.326   1.848  1.3590 -1.8706  0.0577
 8812WAT    EPW35970   6.687   6.347   1.916  0.1485 -0.4603  0.2742
 8813WAT      O35971   5.940   1.233   2.097  0.4297  0.0004 -0.1753
 8813WAT     H135972   6.017   1.247   2.136  0.2835  2.6098 -0.6686
 8813WAT     H235973   5.962   1.221   2.013  0.3374  0.6676 -0.3029
 8813WAT    EPW35974   5.955   1.233   2.090  0.3945  0.4844 -0.2670
 8814WAT      O35975   4.718   0.518   5.769  0.2718  0.3531  0.4760
 8814WAT     H135976   4.725   0.455   5.709 -0.6469  2.5166 -2.0912
 8814WAT     H235977   4.665   0.484   5.829 -0.5796 -1.1530 -1.0681
 8814WAT    EPW35978   4.712   0.504   5.769  0.0104  0.4502 -0.1313
 8815WAT      O35979   1.223   4.715   5.233  0.1335  0.5815 -0.1358
 8815WAT     H135980   1.220   4.792   5.273  0.3244  0.3731  0.2931
 8815WAT     H235981   1.308   4.706   5.213 -0.0040  0.8068 -0.8347
 8815WAT    EPW35982   1.235   4.725   5.236  0.1414  0.5840 -0.1757
 8816WAT      O35983   4.351   4.712   4.091 -0.6754  0.1338  0.1899
 8816WAT     H135984   4.288   4.652   4.103 -0.6355  0.5191  2.6979
 8816WAT     H235985   4.425   4.665   4.094 -0.6943  0.1478  0.8046
 8816WAT    EPW35986   4.352   4.696   4.093 -0.6723  0.1927  0.6512
 8817WAT      O35987   5.055   5.755   1.486  0.5722  0.0146  0.2755
 8817WAT     H135988   5.103   5.822   1.458 -2.1803  2.8255  1.6526
 8817WAT     H235989   5.099   5.727   1.556  0.5012  2.3235  1.3550
 8817WAT    EPW35990   5.069   5.761   1.492  0.1551  0.7709  0.6383
 8818WAT      O35991   5.760   0.203   0.327  0.0102  0.1147  0.0853
 8818WAT     H135992   5.806   0.220   0.399  1.0530 -0.2905 -0.4628
 8818WAT     H235993   5.687   0.166   0.357 -0.2573  1.3206  1.0155
 8818WAT    EPW35994   5.756   0.200   0.342  0.1247  0.2330  0.1418
 8819WAT      O35995   3.044   5.462   4.606 -0.2257 -0.2781  0.0298
 8819WAT     H135996   3.118   5.489   4.644 -0.0370 -0.1305 -0.4380
 8819WAT     H235997   3.022   5.391   4.652 -0.7135  0.6251  1.2702
 8819WAT    EPW35998   3.052   5.455   4.619 -0.2699 -0.1229  0.1439
 8820WAT      O35999   3.921   0.599   2.972  0.4371  0.1677 -0.1117
 8820WAT     H136000   3.850   0.634   3.009 -1.7741 -0.8666 -3.0356
 8820WAT     H236001   3.974   0.585   3.040 -1.3016  2.7526  2.0061
 8820WAT    EPW36002   3.919   0.602   2.987 -0.1464  0.3967 -0.2308
 8821WAT      O36003   1.239   5.042   4.574  0.3582  0.0021 -0.5912
 8821WAT     H136004   1.231   5.089   4.501  3.8765 -0.6396 -1.5710
 8821WAT     H236005   1.232   5.101   4.637  0.4854  1.1248 -1.5927
 8821WAT    EPW36006   1.237   5.057   4.572  0.8967  0.0732 -0.8839
 8822WAT      O36007   5.004   1.141   4.682  0.8817 -0.1088  0.5186
 8822WAT     H136008   4.993   1.067   4.728  0.0432  1.0190  2.2517
 8822WAT     H236009   5.015   1.201   4.744  0.7697  1.3436 -0.8307
 8822WAT    EPW36010   5.004   1.139   4.698  0.7413  0.2724  0.5753
 8823WAT      O36011   1.460   2.534   2.333 -0.3100  0.0395 -0.1346
 8823WAT     H136012   1.472   2.449   2.349  0.4596  0.2820  0.6832
 8823WAT     H236013   1.492   2.545   2.253  2.5677  0.1100  0.9120
 8823WAT    EPW36014   1.466   2.523   2.323  0.2287  0.0857  0.1408
 8824WAT      O36015   0.526   1.434   6.339  0.2647  0.4419 -0.0562
 8824WAT     H136016   0.442   1.424   6.318  0.9137 -1.1744 -2.2106
 8824WAT     H236017   0.524   1.444   6.425 -2.1307  0.5359 -0.0436
 8824WAT    EPW36018   0.513   1.434   6.348  0.0067  0.2170 -0.3726
 8825WAT      O36019   6.510   0.827   7.152 -0.1302  0.5222 -0.6459
 8825WAT     H136020   6.500   0.772   7.219 -1.2980 -0.4640 -1.5906
 8825WAT     H236021   6.594   0.818   7.131 -0.3072 -0.9872 -0.8173
 8825WAT    EPW36022   6.521   0.818   7.159 -0.3289  0.1536 -0.8108
 8826WAT      O36023   7.103   6.096   4.218 -0.8018 -0.2627 -0.2857
 8826WAT     H136024   7.188   6.080   4.227 -0.7929 -0.1095 -0.0980
 8826WAT     H236025   7.097   6.137   4.142 -0.6370  0.2738 -0.0097
 8826WAT    EPW36026   7.115   6.099   4.208 -0.7761 -0.1608 -0.2172
 8827WAT      O36027   0.548   6.963   5.005  0.4682 -0.2812 -0.0401
 8827WAT     H136028   0.462   6.975   5.001  0.5943  0.7541  0.0286
 8827WAT     H236029   0.558   6.877   4.998 -0.4649 -0.2844 -2.1548
 8827WAT    EPW36030   0.537   6.952   5.003  0.3490 -0.1287 -0.3423
 8828WAT      O36031   6.042   2.481   1.729 -0.0006 -0.3011  0.6937
 8828WAT     H136032   6.064   2.428   1.794  0.2615  0.4895  1.2731
 8828WAT     H236033   6.087   2.554   1.746  1.5167 -0.6716 -1.3665
 8828WAT    EPW36034   6.052   2.484   1.741  0.2622 -0.2391  0.4749
 8829WAT      O36035   4.250   1.453   2.455  0.0011  0.2821  0.3895
 8829WAT     H136036   4.261   1.476   2.372 -0.9623 -0.3276  0.0861
 8829WAT     H236037   4.331   1.434   2.482  0.9213  3.7923  0.6380
 8829WAT    EPW36038   4.264   1.454   2.447 -0.0052  0.7106  0.3814
 8830WAT      O36039   5.504   4.473   3.001  0.6737 -0.3707  0.0711
 8830WAT     H136040   5.491   4.470   3.087 -1.5128 -1.6116 -0.2469
 8830WAT     H236041   5.444   4.531   2.974  0.4298 -0.9904 -0.7404
 8830WAT    EPW36042   5.493   4.481   3.010  0.3147 -0.6456 -0.0957
 8831WAT      O36043   3.101   3.165   0.362 -0.6292 -0.1223 -0.1753
 8831WAT     H136044   3.164   3.120   0.322 -0.4562  0.4758 -0.5776
 8831WAT     H236045   3.129   3.173   0.444 -0.4967 -0.4338 -0.1890
 8831WAT    EPW36046   3.114   3.159   0.368 -0.5841 -0.0800 -0.2367
 8832WAT      O36047   3.857   7.188   1.191  0.5333 -0.2203 -0.3089
 8832WAT     H136048   3.855   7.269   1.222  0.1075 -0.4969  0.4269
 8832WAT     H236049   3.925   7.188   1.136  1.9425  0.0301  1.3625
 8832WAT    EPW36050   3.866   7.200   1.187  0.6786 -0.2242  0.0467
 8833WAT      O36051   2.171   5.484   4.892 -0.0870 -0.0702 -0.2697
 8833WAT     H136052   2.133   5.412   4.921 -0.0831 -0.1255 -0.3994
 8833WAT     H236053   2.255   5.462   4.885 -0.3584 -0.6823 -2.1715
 8833WAT    EPW36054   2.178   5.470   4.895 -0.1265 -0.1688 -0.5698
 8834WAT      O36055   6.727   5.148   7.276 -0.4017 -0.1320 -0.0219
 8834WAT     H136056   6.774   5.105   7.336  0.6833  0.3459 -0.4955
 8834WAT     H236057   6.780   5.149   7.206 -0.3358  2.0119 -0.0072
 8834WAT    EPW36058   6.742   5.142   7.275 -0.2317  0.2553 -0.0897
 8835WAT      O36059   3.462   0.896   7.127  0.0086  0.0373 -0.4413
 8835WAT     H136060   3.431   0.957   7.072  1.4250 -0.2842 -1.6564
 8835WAT     H236061   3.521   0.940   7.175  1.1741 -0.3599 -1.4502
 8835WAT    EPW36062   3.466   0.912   7.126  0.3900 -0.0689 -0.7698
 8836WAT      O36063   6.632   4.157   0.228 -0.1952  0.5929  0.4691
 8836WAT     H136064   6.625   4.223   0.171  0.8960  0.9861  0.7668
 8836WAT     H236065   6.665   4.092   0.181 -3.8366 -0.7706 -0.5573
 8836WAT    EPW36066   6.636   4.157   0.213 -0.5719  0.4496  0.3614
 8837WAT      O36067   0.455   0.038   6.387  0.0903  0.5181 -0.6607
 8837WAT     H136068   0.374   0.037   6.354  0.1340  3.3341 -1.0730
 8837WAT     H236069   0.442   0.045   6.473 -0.0689  0.3510 -0.6691
 8837WAT    EPW36070   0.441   0.039   6.395  0.0732  0.9094 -0.7228
 8838WAT      O36071   2.271   5.582   4.237  0.0222 -0.8275 -0.2889
 8838WAT     H136072   2.321   5.595   4.166 -0.1329  0.3286 -0.2049
 8838WAT     H236073   2.244   5.500   4.228  1.5359 -1.3226 -0.5883
 8838WAT    EPW36074   2.275   5.572   4.225  0.2229 -0.7299 -0.3207
 8839WAT      O36075   4.840   1.557   4.828  0.3250 -0.6957  0.5181
 8839WAT     H136076   4.766   1.521   4.855 -0.0403 -0.1559  0.2535
 8839WAT     H236077   4.818   1.640   4.813  0.9205 -0.5924  0.1935
 8839WAT    EPW36078   4.826   1.564   4.830  0.3590 -0.6007  0.4310
 8840WAT      O36079   0.671   1.722   3.410 -0.4089  0.2588  0.4515
 8840WAT     H136080   0.613   1.713   3.346 -2.1427  0.7968  1.8703
 8840WAT     H236081   0.622   1.734   3.481  1.3422 -2.3593  2.2909
 8840WAT    EPW36082   0.656   1.723   3.411 -0.4064 -0.0485  0.9328
 8841WAT      O36083   5.705   3.845   6.470 -0.3966 -0.6260  0.1695
 8841WAT     H136084   5.619   3.829   6.474 -0.6392  0.5623  0.1171
 8841WAT     H236085   5.717   3.868   6.386  0.4585 -3.1889 -0.5058
 8841WAT    EPW36086   5.694   3.846   6.458 -0.3061 -0.8291  0.0620
 8842WAT      O36087   4.459   1.756   0.805  0.6006  0.3799 -0.2474
 8842WAT     H136088   4.440   1.716   0.730  0.1714 -0.1318  0.1298
 8842WAT     H236089   4.510   1.822   0.781  0.2078  0.4055 -1.0289
 8842WAT    EPW36090   4.464   1.760   0.791  0.4792  0.3081 -0.3072
 8843WAT      O36091   5.037   5.859   6.102  0.1105 -0.0122  0.2231
 8843WAT     H136092   5.059   5.813   6.173  0.5614 -0.9860 -0.5218
 8843WAT     H236093   5.100   5.840   6.045 -1.0534 -0.4724 -0.9636
 8843WAT    EPW36094   5.050   5.850   6.104  0.0052 -0.2240 -0.0623
 8844WAT      O36095   2.820   2.770   2.417  0.1002 -0.2887 -0.2651
 8844WAT     H136096   2.873   2.783   2.349  0.5287  1.0219  0.2770
 8844WAT     H236097   2.860   2.811   2.483  0.6095 -2.9948  1.2694
 8844WAT    EPW36098   2.834   2.778   2.417  0.2388 -0.4948  0.0417
 8845WAT      O36099   4.553   2.135   3.308  0.0412 -0.5102 -0.6044
 8845WAT     H136100   4.540   2.213   3.343  1.3589 -0.0704 -1.0463
 8845WAT     H236101   4.602   2.093   3.367  0.5361 -0.4824 -0.9811
 8845WAT    EPW36102   4.558   2.140   3.322  0.3090 -0.4411 -0.7253
 8846WAT      O36103   5.692   2.389   3.658 -0.6365  0.2274 -0.0896
 8846WAT     H136104   5.669   2.436   3.588  0.0212  0.9532  0.1597
 8846WAT     H236105   5.774   2.364   3.641 -0.5092  0.3186  0.3664
 8846WAT    EPW36106   5.701   2.393   3.645 -0.5206  0.3481  0.0146
 8847WAT      O36107   0.300   1.590   5.809  0.1215  0.2033  0.2207
 8847WAT     H136108   0.377   1.548   5.803  1.3308  2.2751  0.2692
 8847WAT     H236109   0.266   1.582   5.729  0.1511 -1.0684  0.3026
 8847WAT    EPW36110   0.306   1.582   5.797  0.3045  0.3215  0.2400
 8848WAT      O36111   1.264   1.706   1.345 -0.3613 -0.4377  0.0326
 8848WAT     H136112   1.351   1.704   1.357 -0.0841  1.0230 -1.4120
 8848WAT     H236113   1.241   1.622   1.351  1.2423 -0.9229 -0.1251
 8848WAT    EPW36114   1.274   1.693   1.348 -0.0835 -0.2936 -0.2041
 8849WAT      O36115   1.319   4.202   1.676 -0.1865  0.5160  0.1475
 8849WAT     H136116   1.299   4.181   1.759 -0.4751 -1.7370 -0.4335
 8849WAT     H236117   1.405   4.218   1.679 -0.2649  0.8225  0.9480
 8849WAT    EPW36118   1.329   4.201   1.689 -0.2407  0.2285  0.1799
 8850WAT      O36119   0.679   6.607   2.265  0.3512  0.3286 -0.0744
 8850WAT     H136120   0.663   6.662   2.200  0.7511  1.6124  0.8621
 8850WAT     H236121   0.739   6.650   2.313 -0.7443 -0.0601  1.7171
 8850WAT    EPW36122   0.686   6.622   2.263  0.2485  0.4608  0.3286
 8851WAT      O36123   6.428   0.058   7.155 -0.1388  0.3104  0.0150
 8851WAT     H136124   6.404  -0.026   7.151 -0.6721  0.4979 -1.0928
 8851WAT     H236125   6.418   0.078   7.239  0.2623 -0.8092  0.3436
 8851WAT    EPW36126   6.423   0.048   7.167 -0.1583  0.1727 -0.1001
 8852WAT      O36127   7.098   3.620   4.869 -0.0703  0.3367 -0.1551
 8852WAT     H136128   7.102   3.654   4.949  1.3226  0.1505 -0.1243
 8852WAT     H236129   7.181   3.619   4.843 -0.2344 -1.6589 -0.7382
 8852WAT    EPW36130   7.111   3.625   4.877  0.1113  0.0144 -0.2367
 8853WAT      O36131   3.907   4.600   3.211 -0.4986 -0.7101 -0.1570
 8853WAT     H136132   3.978   4.549   3.210  0.2584  0.3086 -0.0221
 8853WAT     H236133   3.930   4.666   3.263 -1.8390 -0.7491  0.5197
 8853WAT    EPW36134   3.921   4.602   3.219 -0.5848 -0.5654 -0.0371
 8854WAT      O36135   3.447   1.840   2.789  0.3110 -0.1530  0.1212
 8854WAT     H136136   3.468   1.913   2.832  0.3889 -0.1869  0.1404
 8854WAT     H236137   3.408   1.791   2.850  0.5602 -0.2638  0.1917
 8854WAT    EPW36138   3.444   1.844   2.804  0.3593 -0.1744  0.1344
 8855WAT      O36139   6.554   3.544   4.991 -0.5972  0.5113  0.0673
 8855WAT     H136140   6.474   3.573   4.968 -0.7744  0.1244  0.1825
 8855WAT     H236141   6.538   3.463   5.019 -0.4106  1.0035  1.6834
 8855WAT    EPW36142   6.540   3.536   4.992 -0.5958  0.5269  0.3231
 8856WAT      O36143   1.340   6.560   6.166  0.1366 -0.0312 -0.3639
 8856WAT     H136144   1.324   6.645   6.153 -0.2479  0.0043  0.3052
 8856WAT     H236145   1.413   6.546   6.120  2.0996  1.4413  2.0869
 8856WAT    EPW36146   1.348   6.570   6.157  0.3698  0.1916  0.0970
 8857WAT      O36147   4.344   5.709   1.523  0.3492 -0.1661 -0.1686
 8857WAT     H136148   4.263   5.676   1.527 -0.0985  0.7888 -0.8422
 8857WAT     H236149   4.382   5.680   1.596 -0.3270 -1.3209 -0.2547
 8857WAT    EPW36150   4.337   5.700   1.534  0.1832 -0.1956 -0.2809
 8858WAT      O36151   7.082   3.680   6.910 -0.5171 -0.0810  0.5937
 8858WAT     H136152   7.094   3.643   6.832 -1.1561  1.7682 -0.4548
 8858WAT     H236153   6.996   3.693   6.913 -0.6642 -1.1754  2.1568
 8858WAT    EPW36154   7.071   3.677   6.899 -0.6332  0.0305  0.6697
 8859WAT      O36155   0.138   2.166   2.246  0.4056  0.3458 -0.8142
 8859WAT     H136156   0.150   2.186   2.162  0.2939  0.5047 -0.7911
 8859WAT     H236157   0.058   2.132   2.248  1.6956 -3.1998 -1.4427
 8859WAT    EPW36158   0.128   2.164   2.234  0.5796 -0.1545 -0.9036
 8860WAT      O36159   3.729   5.680   3.097 -0.3331  0.0613  0.0154
 8860WAT     H136160   3.795   5.666   3.040 -0.2846 -0.1015  0.1097
 8860WAT     H236161   3.671   5.724   3.050 -0.8128 -1.1043 -0.5301
 8860WAT    EPW36162   3.730   5.684   3.081 -0.3968 -0.1349 -0.0512
 8861WAT      O36163   5.475   1.905   0.963 -0.5365 -0.2550 -0.1396
 8861WAT     H136164   5.491   1.820   0.951 -2.7137 -1.1153  2.0390
 8861WAT     H236165   5.388   1.909   0.961 -0.6546  1.3219  2.6812
 8861WAT    EPW36166   5.464   1.893   0.961 -0.8756 -0.1491  0.5990
 8862WAT      O36167   3.876   4.684   0.341 -0.0327 -0.2612  0.0349
 8862WAT     H136168   3.936   4.644   0.388 -0.9715 -1.5377  0.2001
 8862WAT     H236169   3.911   4.689   0.261 -0.1001 -1.9231 -0.1142
 8862WAT    EPW36170   3.890   4.679   0.336 -0.1813 -0.6953  0.0373
 8863WAT      O36171   4.818   5.158   6.035 -0.3240  0.1808 -0.7665
 8863WAT     H136172   4.863   5.084   6.032 -0.3733  0.0867  0.3405
 8863WAT     H236173   4.839   5.192   6.112 -0.6003  1.1346 -1.0919
 8863WAT    EPW36174   4.828   5.152   6.046 -0.3721  0.3078 -0.6510
 8864WAT      O36175   0.309   2.555   3.793 -0.0690  0.0393  0.0325
 8864WAT     H136176   0.235   2.571   3.750  0.0851  1.5593  0.2495
 8864WAT     H236177   0.327   2.472   3.775 -1.4509 -0.1439 -0.5909
 8864WAT    EPW36178   0.301   2.545   3.784 -0.2504  0.2368 -0.0276
 8865WAT      O36179   2.866   1.579   2.978 -0.5684  0.3138  0.1796
 8865WAT     H136180   2.883   1.574   3.064 -0.3537 -0.2677  0.1057
 8865WAT     H236181   2.781   1.600   2.975 -0.6486  0.0457  0.5351
 8865WAT    EPW36182   2.856   1.582   2.990 -0.5485  0.1883  0.2212
 8866WAT      O36183   4.710   0.257   7.172  0.2197 -0.0685 -0.4158
 8866WAT     H136184   4.703   0.313   7.238 -1.3328 -0.1547 -0.4484
 8866WAT     H236185   4.784   0.279   7.132  0.0699  1.3836  0.0783
 8866WAT    EPW36186   4.720   0.268   7.176 -0.0317  0.1333 -0.3476
 8867WAT      O36187   2.832   5.776   3.438  0.4700 -0.1876 -0.1284
 8867WAT     H136188   2.804   5.733   3.509  1.7158 -1.9245 -0.6121
 8867WAT     H236189   2.794   5.733   3.372  1.5051 -0.3777 -0.6228
 8867WAT    EPW36190   2.822   5.763   3.438  0.8070 -0.4723 -0.2729
 8868WAT      O36191   6.306   5.218   1.160  0.5764 -0.6545  0.6094
 8868WAT     H136192   6.389   5.243   1.166  0.4977  0.1526 -0.9173
 8868WAT     H236193   6.282   5.247   1.080 -1.1213 -0.9637  0.9612
 8868WAT    EPW36194   6.314   5.226   1.149  0.3140 -0.5809  0.4358
 8869WAT      O36195   6.715   3.372   5.450  0.3518 -0.0521  0.3006
 8869WAT     H136196   6.771   3.310   5.427  0.8656  0.3564  0.4166
 8869WAT     H236197   6.701   3.417   5.376 -0.0758 -0.3435  0.1999
 8869WAT    EPW36198   6.721   3.370   5.436  0.3645 -0.0348  0.3029
 8870WAT      O36199   1.986   1.137   5.977  0.1513 -0.8996  0.5935
 8870WAT     H136200   2.021   1.189   6.038 -0.0400  0.3970 -0.3582
 8870WAT     H236201   1.901   1.154   5.983  0.1356 -0.7430 -0.0389
 8870WAT    EPW36202   1.979   1.147   5.987  0.1207 -0.6849  0.3595
 8871WAT      O36203   3.322   6.940   3.861  0.4053  0.2771 -0.6175
 8871WAT     H136204   3.293   6.927   3.942  1.9591  2.2608  0.3769
 8871WAT     H236205   3.259   6.908   3.810 -1.3764  0.4449  1.3594
 8871WAT    EPW36206   3.309   6.933   3.865  0.3716  0.5949 -0.1786
 8872WAT      O36207   5.695   1.342   1.490  0.0761 -0.1636 -0.3087
 8872WAT     H136208   5.668   1.399   1.551  0.7104 -0.7716  0.5484
 8872WAT     H236209   5.774   1.371   1.468  0.4884 -0.8200  0.2810
 8872WAT    EPW36210   5.702   1.355   1.496  0.2307 -0.3504 -0.0950
 8873WAT      O36211   3.237   6.496   6.649 -0.4959  0.3773 -0.3409
 8873WAT     H136212   3.220   6.582   6.648  1.0722  0.7307 -2.5106
 8873WAT     H236213   3.175   6.463   6.597 -2.0286 -0.0977  1.6572
 8873WAT    EPW36214   3.225   6.504   6.641 -0.4907  0.3593 -0.3663
 8874WAT      O36215   4.342   5.868   2.261  0.4843 -0.0397  0.6977
 8874WAT     H136216   4.266   5.827   2.254  0.9228 -0.6867 -0.6903
 8874WAT     H236217   4.399   5.804   2.277  0.6697  0.5218  2.5150
 8874WAT    EPW36218   4.339   5.852   2.262  0.5764 -0.0523  0.7611
 8875WAT      O36219   5.713   4.189   4.011  0.0900 -0.0797 -0.5847
 8875WAT     H136220   5.741   4.271   3.999  0.5668  0.0227  0.9400
 8875WAT     H236221   5.627   4.194   3.998 -0.3785  1.3575  2.2456
 8875WAT    EPW36222   5.704   4.202   4.007  0.0912  0.1478  0.0586
 8876WAT      O36223   0.824   2.442   0.854 -0.2899  0.5310 -0.3590
 8876WAT     H136224   0.811   2.356   0.859  1.2998  0.2869 -0.0634
 8876WAT     H236225   0.852   2.464   0.933  2.0980  0.7662 -1.1707
 8876WAT    EPW36226   0.826   2.433   0.866  0.2977  0.5297 -0.4353
 8877WAT      O36227   4.848   7.050   0.871  0.7520  0.2704  0.0262
 8877WAT     H136228   4.795   6.982   0.884  1.3044  0.1595  1.9920
 8877WAT     H236229   4.794   7.119   0.873  0.3130 -0.0230 -1.0803
 8877WAT    EPW36230   4.832   7.050   0.873  0.7688  0.2107  0.1531
 8878WAT      O36231   2.836   6.557   3.841  0.0743  0.0708 -0.1766
 8878WAT     H136232   2.912   6.537   3.804  0.6217 -0.2094  1.0447
 8878WAT     H236233   2.778   6.509   3.798  0.6483 -0.0666 -0.8094
 8878WAT    EPW36234   2.838   6.547   3.829  0.2400  0.0091 -0.0897
 8879WAT      O36235   0.134   5.176   2.029 -0.1240  0.1022  0.2684
 8879WAT     H136236   0.195   5.229   1.995  0.5539  0.0777  1.3664
 8879WAT     H236237   0.064   5.189   1.979  0.9058 -0.1864 -1.3066
 8879WAT    EPW36238   0.133   5.186   2.017  0.1283  0.0559  0.1980
 8880WAT      O36239   7.264   5.394   0.950  0.5668 -0.2624 -0.4742
 8880WAT     H136240   7.248   5.462   0.898  1.1716 -1.1162 -1.8586
 8880WAT     H236241   7.255   5.325   0.897  0.6882 -1.2193  0.6958
 8880WAT    EPW36242   7.260   5.394   0.934  0.6741 -0.5299 -0.5059
 8881WAT      O36243   2.632   5.822   4.268 -0.2935  0.1558  0.8359
 8881WAT     H136244   2.679   5.894   4.258 -1.7450  0.8955 -1.5284
 8881WAT     H236245   2.684   5.759   4.238 -0.5681  0.9245 -1.4974
 8881WAT    EPW36246   2.647   5.823   4.262 -0.5485  0.3787  0.1420
 8882WAT      O36247   2.337   3.735   1.558 -0.1234  0.4403 -0.2021
 8882WAT     H136248   2.300   3.739   1.637 -0.9837  1.9398 -0.6358
 8882WAT     H236249   2.329   3.651   1.535  1.9670 -0.4972  2.1023
 8882WAT    EPW36250   2.330   3.723   1.566  0.0583  0.5233  0.0742
 8883WAT      O36251   2.342   1.806   2.343  0.8080 -0.1668  0.1868
 8883WAT     H136252   2.314   1.724   2.352  1.1351 -0.0883  2.2821
 8883WAT     H236253   2.392   1.819   2.413  0.5363  1.9155  0.0576
 8883WAT    EPW36254   2.345   1.796   2.355  0.8162  0.1524  0.4772
 8884WAT      O36255   0.077   5.471   1.205  0.9948 -0.0622 -0.6550
 8884WAT     H136256   0.049   5.439   1.129 -0.2537 -1.3015  0.2763
 8884WAT     H236257   0.019   5.534   1.223 -0.5073 -1.7257  0.6256
 8884WAT    EPW36258   0.064   5.476   1.196  0.5885 -0.4910 -0.3283
 8885WAT      O36259   5.324   2.013   6.353  0.0727  0.2570 -0.2265
 8885WAT     H136260   5.334   2.078   6.410 -2.9610  0.6466  0.0102
 8885WAT     H236261   5.268   2.044   6.295  0.5124 -1.3098 -1.5822
 8885WAT    EPW36262   5.317   2.027   6.353 -0.3105  0.0831 -0.3918
 8886WAT      O36263   5.589   4.451   7.389  0.7729 -0.3246  0.6633
 8886WAT     H136264   5.613   4.460   7.305 -1.1982 -0.1935  0.0596
 8886WAT     H236265   5.597   4.531   7.421  0.0482 -0.0292  0.1423
 8886WAT    EPW36266   5.593   4.464   7.381  0.3747 -0.2616  0.4972
 8887WAT      O36267   6.187   1.453   7.043 -0.2034 -0.7264  0.0022
 8887WAT     H136268   6.122   1.420   6.995  0.0475  0.1998 -1.0089
 8887WAT     H236269   6.258   1.416   7.009  0.2016  1.5178 -1.8838
 8887WAT    EPW36270   6.188   1.443   7.031 -0.1065 -0.2580 -0.4258
 8888WAT      O36271   1.629   5.610   1.500 -0.1226  0.0549 -0.3536
 8888WAT     H136272   1.685   5.560   1.544 -0.3689 -0.0261 -0.1254
 8888WAT     H236273   1.560   5.614   1.553  0.5336  2.0934  0.4670
 8888WAT    EPW36274   1.627   5.603   1.514 -0.0621  0.3441 -0.1987
 8889WAT      O36275   2.887   5.887   6.221  0.6011  0.3791 -0.0606
 8889WAT     H136276   2.929   5.850   6.153  1.8453 -1.2866  1.4995
 8889WAT     H236277   2.934   5.860   6.290 -1.8888  0.1282  1.6413
 8889WAT    EPW36278   2.900   5.877   6.221  0.4171  0.0960  0.4212
 8890WAT      O36279   1.428   6.486   2.949 -0.0036 -0.7542  0.2220
 8890WAT     H136280   1.504   6.448   2.969  0.2154  0.1279  1.1523
 8890WAT     H236281   1.380   6.473   3.021  0.0851  0.7034  0.5792
 8890WAT    EPW36282   1.432   6.478   2.963  0.0419 -0.4086  0.4122
 8891WAT      O36283   0.545   0.393   0.832 -0.1070  0.0843  0.2043
 8891WAT     H136284   0.612   0.387   0.888 -1.1681  2.1331  1.8074
 8891WAT     H236285   0.533   0.479   0.823 -1.2447 -0.2150 -1.6725
 8891WAT    EPW36286   0.553   0.405   0.839 -0.4318  0.3427  0.1638
 8892WAT      O36287   3.947   2.684   2.759  0.2845  0.4077  0.3652
 8892WAT     H136288   3.889   2.714   2.816  0.5791  0.7651  0.4836
 8892WAT     H236289   3.901   2.671   2.686 -0.0099  0.3401  0.5636
 8892WAT    EPW36290   3.932   2.686   2.756  0.2846  0.4505  0.4120
 8893WAT      O36291   4.311   4.941   2.754  0.1670 -0.2970  0.0356
 8893WAT     H136292   4.276   4.997   2.697  1.7291 -0.6081 -1.3216
 8893WAT     H236293   4.258   4.872   2.750  0.5730 -0.5491 -1.5329
 8893WAT    EPW36294   4.298   4.939   2.745  0.4577 -0.3802 -0.3966
 8894WAT      O36295   1.646   6.624   4.095 -0.0682  0.3900  0.2022
 8894WAT     H136296   1.604   6.686   4.139 -0.0674 -0.4217  1.3893
 8894WAT     H236297   1.617   6.550   4.131 -1.5409 -0.4709 -2.4063
 8894WAT    EPW36298   1.635   6.622   4.107 -0.2856  0.1429 -0.0077
 8895WAT      O36299   0.518   3.658   3.385  0.4129  0.5610 -0.1156
 8895WAT     H136300   0.598   3.658   3.420  0.3102  1.8444  0.2027
 8895WAT     H236301   0.485   3.580   3.406  1.6170 -0.0369 -0.3677
 8895WAT    EPW36302   0.525   3.647   3.393  0.5756  0.6623 -0.1058
 8896WAT      O36303   0.959   1.540   5.788 -0.2189 -0.5680 -0.4245
 8896WAT     H136304   0.916   1.464   5.797 -0.2068 -0.4163  1.2593
 8896WAT     H236305   1.011   1.542   5.858  0.0458  0.8367 -0.6417
 8896WAT    EPW36306   0.960   1.529   5.799 -0.1780 -0.3381 -0.2079
 8897WAT      O36307   5.662   4.221   7.017  0.1604  0.3542  0.6128
 8897WAT     H136308   5.672   4.308   7.019  1.1350  0.2915 -0.5278
 8897WAT     H236309   5.678   4.201   6.934  1.9406 -1.1411  1.2624
 8897WAT    EPW36310   5.666   4.231   7.005  0.5674  0.1240  0.5403
 8898WAT      O36311   6.757   1.705   4.094  0.0252  0.0420 -0.3722
 8898WAT     H136312   6.732   1.671   4.017 -2.2282 -0.6137  0.5420
 8898WAT     H236313   6.843   1.696   4.093  0.5390  2.8020 -4.0408
 8898WAT    EPW36314   6.766   1.698   4.082 -0.2318  0.3528 -0.7791
 8899WAT      O36315   5.993   0.268   7.000 -0.8953 -0.0789 -0.8091
 8899WAT     H136316   5.981   0.335   6.945  0.0602 -1.5035 -2.8758
 8899WAT     H236317   6.065   0.290   7.044 -0.4101  0.1584 -1.6891
 8899WAT    EPW36318   6.002   0.281   6.998 -0.6825 -0.2543 -1.2444
 8900WAT      O36319   4.273   5.296   0.576  0.0827  0.0682 -0.1809
 8900WAT     H136320   4.355   5.277   0.596  0.4403 -0.6167 -2.1696
 8900WAT     H236321   4.279   5.368   0.527 -0.5430  0.1567 -0.1469
 8900WAT    EPW36322   4.286   5.304   0.572  0.0431 -0.0199 -0.4697
 8901WAT      O36323   6.669   4.600   5.188 -0.1011 -0.0312 -0.7621
 8901WAT     H136324   6.677   4.618   5.103  0.6999 -1.5456 -1.0408
 8901WAT     H236325   6.741   4.635   5.223 -0.0081 -0.1407 -0.8432
 8901WAT    EPW36326   6.681   4.608   5.180  0.0310 -0.2711 -0.8153
 8902WAT      O36327   3.018   2.711   6.964 -0.0740  0.7027 -0.6770
 8902WAT     H136328   3.016   2.786   7.009  2.8597  0.9047 -0.6953
 8902WAT     H236329   3.097   2.711   6.928 -0.9039 -1.2569 -2.7856
 8902WAT    EPW36330   3.029   2.722   6.965  0.2368  0.4430 -0.9912
 8903WAT      O36331   3.933   5.931   1.582 -0.4865 -0.1965 -0.2857
 8903WAT     H136332   3.894   5.967   1.651  1.0050  0.8737  0.0549
 8903WAT     H236333   3.998   5.884   1.617  0.0592  0.0527 -0.9365
 8903WAT    EPW36334   3.937   5.929   1.597 -0.1855 -0.0016 -0.3315
 8904WAT      O36335   0.946   2.570   5.443 -0.1125 -0.3303  0.3046
 8904WAT     H136336   1.033   2.571   5.442 -0.1072 -0.3888  0.6064
 8904WAT     H236337   0.925   2.640   5.490 -0.2694  0.6429 -1.1597
 8904WAT    EPW36338   0.956   2.580   5.450 -0.1349 -0.1952  0.1329
 8905WAT      O36339   6.759   2.243   1.912  0.0939  1.3778 -0.3974
 8905WAT     H136340   6.809   2.304   1.951 -0.6963  1.9708 -0.2751
 8905WAT     H236341   6.772   2.257   1.827 -0.0665  1.7107 -0.3693
 8905WAT    EPW36342   6.769   2.254   1.905 -0.0466  1.5146 -0.3752
 8906WAT      O36343   6.015   2.345   2.410 -0.2760  0.2164 -0.1926
 8906WAT     H136344   5.939   2.311   2.385 -0.7630  0.5535  0.7630
 8906WAT     H236345   6.074   2.292   2.374 -0.9728 -2.8706  2.6090
 8906WAT    EPW36346   6.013   2.332   2.401 -0.4509 -0.1898  0.3624
 8907WAT      O36347   5.498   2.482   3.807  0.3422 -0.2686 -0.7101
 8907WAT     H136348   5.569   2.452   3.765 -0.1696 -0.6194 -1.3383
 8907WAT     H236349   5.521   2.563   3.829  1.7005 -1.0293  0.8910
 8907WAT    EPW36350   5.512   2.489   3.804  0.4673 -0.4328 -0.5664
 8908WAT      O36351   5.112   6.051   5.833 -0.1287 -0.1295  0.4530
 8908WAT     H136352   5.116   6.013   5.754 -0.4179 -1.2430  0.9475
 8908WAT     H236353   5.160   6.123   5.823 -1.6491  0.7368 -1.2602
 8908WAT    EPW36354   5.120   6.056   5.820 -0.3960 -0.1660  0.2730
 8909WAT      O36355   4.592   5.777   7.058  0.4318 -0.4932 -0.2814
 8909WAT     H136356   4.554   5.701   7.037  1.7692 -1.4215  0.5403
 8909WAT     H236357   4.644   5.793   6.990  2.6070 -2.0399  0.9004
 8909WAT    EPW36358   4.594   5.768   7.045  0.9507 -0.8588  0.0146
 8910WAT      O36359   2.383   6.419   0.606  0.0114  0.1049 -0.1686
 8910WAT     H136360   2.301   6.441   0.625 -0.7243 -0.4172 -2.4046
 8910WAT     H236361   2.430   6.464   0.664 -1.8510 -0.1025  1.6045
 8910WAT    EPW36362   2.378   6.429   0.617 -0.3724 -0.0029 -0.2370
 8911WAT      O36363   2.268   5.212   0.999 -0.0308 -0.2873 -0.2278
 8911WAT     H136364   2.353   5.230   1.001 -0.3354  1.2799 -0.3454
 8911WAT     H236365   2.238   5.259   0.932 -0.7672 -1.9849 -1.1511
 8911WAT    EPW36366   2.276   5.222   0.990 -0.1846 -0.3065 -0.3816
 8912WAT      O36367   7.132   6.478   3.647  0.1827  0.2615 -0.1818
 8912WAT     H136368   7.186   6.486   3.579 -1.4278 -1.2514 -1.7770
 8912WAT     H236369   7.090   6.554   3.650 -1.4478 -0.4396 -2.5689
 8912WAT    EPW36370   7.134   6.490   3.637 -0.2961 -0.0656 -0.7700
 8913WAT      O36371   0.033   2.651   2.848  0.6706 -0.3160 -0.7182
 8913WAT     H136372  -0.014   2.583   2.822  1.7527 -0.9874 -1.0028
 8913WAT     H236373  -0.024   2.717   2.850 -0.1286 -0.9647 -1.6133
 8913WAT    EPW36374   0.018   2.651   2.845  0.7124 -0.5110 -0.8925
 8914WAT      O36375   2.223   0.262   1.247  0.0973  0.3680  0.0958
 8914WAT     H136376   2.226   0.347   1.228 -0.1143  0.1699 -0.9030
 8914WAT     H236377   2.139   0.241   1.236  0.3293 -0.1833 -0.7595
 8914WAT    EPW36378   2.211   0.271   1.242  0.1003  0.2573 -0.1781
 8915WAT      O36379   5.309   1.108   3.594 -0.2905 -0.2671  0.4992
 8915WAT     H136380   5.296   1.045   3.534 -1.7835  0.1228  0.3771
 8915WAT     H236381   5.254   1.171   3.569 -1.1221 -0.1834  2.3929
 8915WAT    EPW36382   5.299   1.108   3.581 -0.6339 -0.1972  0.7609
 8916WAT      O36383   0.818   3.426   3.749  0.5834  0.5536  0.3852
 8916WAT     H136384   0.887   3.381   3.776  0.3596  0.5836  1.0400
 8916WAT     H236385   0.761   3.417   3.815  1.0011  2.8313  1.1491
 8916WAT    EPW36386   0.820   3.418   3.763  0.6120  0.8945  0.5948
 8917WAT      O36387   1.429   3.105   6.147  0.2460  0.0694 -0.0144
 8917WAT     H136388   1.405   3.140   6.070  2.2113 -1.9561 -1.6820
 8917WAT     H236389   1.434   3.020   6.130 -0.2741 -0.5815  2.7255
 8917WAT    EPW36390   1.426   3.098   6.133  0.4595 -0.3260  0.1440
 8918WAT      O36391   5.164   6.213   6.911 -0.0071  0.9027  0.4052
 8918WAT     H136392   5.177   6.236   6.828  0.4022  0.8354  0.4489
 8918WAT     H236393   5.100   6.154   6.906 -0.2289  1.1588  0.1740
 8918WAT    EPW36394   5.157   6.208   6.898  0.0206  0.9306  0.3775
 8919WAT      O36395   3.769   7.058   5.205  0.1326 -0.3864 -0.1830
 8919WAT     H136396   3.684   7.072   5.218  0.0372 -0.3611 -0.8110
 8919WAT     H236397   3.791   7.117   5.144  0.4625 -0.7864 -0.4603
 8919WAT    EPW36398   3.760   7.068   5.198  0.1672 -0.4418 -0.3167
 8920WAT      O36399   6.576   7.046   3.548  0.0236 -0.2853  0.1341
 8920WAT     H136400   6.585   7.015   3.468  1.9147 -1.4497  0.7507
 8920WAT     H236401   6.645   7.099   3.558 -0.3965  0.1513  0.8670
 8920WAT    EPW36402   6.587   7.050   3.538  0.2409 -0.3928  0.3334
 8921WAT      O36403   4.105   1.160   3.366 -0.2163 -0.0327 -0.1880
 8921WAT     H136404   4.062   1.119   3.429 -0.6632  0.7083  0.0034
 8921WAT     H236405   4.185   1.126   3.370 -0.4240 -0.4740  0.3294
 8921WAT    EPW36406   4.110   1.149   3.376 -0.3130  0.0116 -0.0833
 8922WAT      O36407   5.303   5.856   4.056  0.3941  0.0196  0.0149
 8922WAT     H136408   5.274   5.879   4.135 -0.9530  2.1129 -1.0081
 8922WAT     H236409   5.385   5.887   4.055 -0.2749  1.9206 -0.1063
 8922WAT    EPW36410   5.311   5.864   4.068  0.0963  0.6097 -0.1541
 8923WAT      O36411   6.412   6.791   7.039 -0.3492  0.0060 -0.1099
 8923WAT     H136412   6.370   6.726   7.079 -2.0677  0.3821 -1.2352
 8923WAT     H236413   6.496   6.766   7.042 -0.7548 -1.3266  1.1326
 8923WAT    EPW36414   6.418   6.778   7.046 -0.6630 -0.1353 -0.0926
 8924WAT      O36415   1.445   3.327   0.485 -0.0348  0.5153  0.4236
 8924WAT     H136416   1.528   3.325   0.457 -0.1353 -0.0646  0.1528
 8924WAT     H236417   1.447   3.388   0.548  0.3823  1.1837 -0.2273
 8924WAT    EPW36418   1.458   3.335   0.490  0.0120  0.5283  0.2874
 8925WAT      O36419   6.916   3.357   6.367 -0.1066  0.1765 -0.2088
 8925WAT     H136420   6.940   3.420   6.422 -0.1294  0.8038 -0.9163
 8925WAT     H236421   6.915   3.396   6.289 -0.2621 -0.6580 -0.6352
 8925WAT    EPW36422   6.919   3.372   6.364 -0.1329  0.1459 -0.3763
 8926WAT      O36423   1.190   2.198   5.560  0.3031  0.0801  0.0227
 8926WAT     H136424   1.146   2.123   5.551 -3.0241  1.9504 -0.6555
 8926WAT     H236425   1.209   2.221   5.478  0.7719  0.3016  0.1891
 8926WAT    EPW36426   1.187   2.190   5.547 -0.1192  0.3891 -0.0529
 8927WAT      O36427   3.339   1.263   1.076  0.1993  0.2648  0.4726
 8927WAT     H136428   3.371   1.301   1.147  0.9127  0.9682 -0.2009
 8927WAT     H236429   3.371   1.182   1.078  0.5828  0.4233  0.7141
 8927WAT    EPW36430   3.348   1.257   1.087  0.3613  0.3921  0.4088
 8928WAT      O36431   0.413   6.356   0.034 -0.3293  0.4526 -0.5832
 8928WAT     H136432   0.375   6.317   0.103 -1.3305 -0.3631 -1.5583
 8928WAT     H236433   0.440   6.289  -0.015 -1.3620  0.9761 -1.9157
 8928WAT    EPW36434   0.411   6.340   0.037 -0.6297  0.4094 -0.9241
 8929WAT      O36435   4.333   1.869   4.471  0.8526 -0.4723 -0.2898
 8929WAT     H136436   4.382   1.818   4.523  1.1775 -0.0993 -0.2218
 8929WAT     H236437   4.355   1.844   4.391 -1.7874 -3.1239 -0.3411
 8929WAT    EPW36438   4.344   1.858   4.467  0.5106 -0.8089 -0.2873
 8930WAT      O36439   4.920   4.235   2.590  0.3088 -0.2363 -0.1634
 8930WAT     H136440   4.853   4.252   2.536 -1.2087 -2.5158  0.8487
 8930WAT     H236441   4.982   4.289   2.562  0.0768 -1.9410 -4.9728
 8930WAT    EPW36442   4.919   4.245   2.578  0.0503 -0.8249 -0.7244
 8931WAT      O36443   4.017   6.429   5.424  0.3066  0.4272  0.0431
 8931WAT     H136444   4.074   6.373   5.389 -0.0983 -0.3974  0.6620
 8931WAT     H236445   4.018   6.497   5.369  0.6466 -0.2781 -0.8449
 8931WAT    EPW36446   4.026   6.431   5.411  0.2970  0.2012  0.0034
 8932WAT      O36447   3.348   5.088   4.812  0.5233 -0.0151  0.6474
 8932WAT     H136448   3.384   5.047   4.744  0.6030  0.4063  0.4339
 8932WAT     H236449   3.289   5.031   4.842 -2.0521  1.0830 -1.9268
 8932WAT    EPW36450   3.345   5.074   4.807  0.1546  0.2094  0.2356
 8933WAT      O36451   5.080   3.662   4.760  0.2820 -0.1275 -0.3670
 8933WAT     H136452   5.000   3.629   4.765  0.4555 -0.4137  0.8804
 8933WAT     H236453   5.070   3.744   4.787  0.1621  0.3165 -1.7046
 8933WAT    EPW36454   5.067   3.669   4.765  0.2899 -0.1042 -0.3804
 8934WAT      O36455   0.550   2.854   4.585  0.5090  0.0017 -0.1275
 8934WAT     H136456   0.530   2.937   4.565 -0.3116 -0.1409  0.0345
 8934WAT     H236457   0.477   2.810   4.564  0.7565 -0.6023  0.2502
 8934WAT    EPW36458   0.536   2.860   4.579  0.4243 -0.1086 -0.0478
 8935WAT      O36459   1.869   3.768   4.326  0.2379 -0.2859  1.4277
 8935WAT     H136460   1.880   3.741   4.244  1.7047 -0.0968  1.5342
 8935WAT     H236461   1.785   3.790   4.329  0.5107  1.2692 -0.4985
 8935WAT    EPW36462   1.858   3.767   4.314  0.4949 -0.0282  1.1589
 8936WAT      O36463   6.887   4.723   0.196  0.1673  0.1115  0.1622
 8936WAT     H136464   6.894   4.746   0.280  1.5027 -0.1754  0.1508
 8936WAT     H236465   6.969   4.705   0.173 -0.2581 -0.3516 -1.0576
 8936WAT    EPW36466   6.900   4.724   0.205  0.3017  0.0007 -0.0197
 8937WAT      O36467   0.391   1.713   1.053  0.2861  0.2664 -0.5999
 8937WAT     H136468   0.471   1.714   1.087 -0.0870 -0.4652  0.3423
 8937WAT     H236469   0.373   1.797   1.038  1.3919  0.4065 -1.2509
 8937WAT    EPW36470   0.400   1.726   1.056  0.3943  0.1791 -0.5569
 8938WAT      O36471   0.431   1.008   1.816  0.2545 -0.0239 -0.2746
 8938WAT     H136472   0.390   1.050   1.881 -0.5557  0.0947 -0.8451
 8938WAT     H236473   0.452   1.072   1.761  0.8906 -0.1302 -0.1624
 8938WAT    EPW36474   0.428   1.024   1.818  0.2288 -0.0221 -0.3423
 8939WAT      O36475   1.588   0.709   1.012  0.0665  0.4434 -0.0850
 8939WAT     H136476   1.508   0.741   0.998  0.5497  2.6963  1.6980
 8939WAT     H236477   1.621   0.763   1.072  1.9468 -2.0325  1.2956
 8939WAT    EPW36478   1.581   0.721   1.019  0.4157  0.4105  0.3823
 8940WAT      O36479   3.234   0.344   2.908 -0.0666 -0.0100 -0.1951
 8940WAT     H136480   3.192   0.323   2.834  0.5184 -1.5516 -0.1175
 8940WAT     H236481   3.318   0.347   2.885  0.0291  0.5625  0.1930
 8940WAT    EPW36482   3.240   0.342   2.894  0.0339 -0.1532 -0.1263
 8941WAT      O36483   6.569   5.845   4.065 -0.0608 -0.0358  0.3641
 8941WAT     H136484   6.590   5.808   4.141  0.2372  1.2679  0.9457
 8941WAT     H236485   6.640   5.833   4.016  0.7165  1.2303  1.1304
 8941WAT    EPW36486   6.582   5.838   4.069  0.0980  0.3438  0.5632
 8942WAT      O36487   6.351   7.056   0.835  0.0702  0.1818  0.2832
 8942WAT     H136488   6.322   7.001   0.774 -1.6344  0.1447  1.0769
 8942WAT     H236489   6.408   7.008   0.880  1.3626  0.2094 -1.2040
 8942WAT    EPW36490   6.355   7.041   0.833  0.0093  0.1804  0.1807
 8943WAT      O36491   1.674   6.923   0.319 -0.2009  0.1059  0.6739
 8943WAT     H136492   1.620   6.985   0.289  0.5389  0.0228 -0.9682
 8943WAT     H236493   1.640   6.849   0.285  0.5837 -0.0109  0.1238
 8943WAT    EPW36494   1.661   6.921   0.309  0.0243  0.0764  0.3501
 8944WAT      O36495   1.359   3.303   1.931 -0.3682  0.5580 -0.0089
 8944WAT     H136496   1.393   3.374   1.894 -3.1143  2.6374  1.1312
 8944WAT     H236497   1.297   3.278   1.875  0.2239 -0.6770 -0.1450
 8944WAT    EPW36498   1.355   3.310   1.917 -0.6864  0.6827  0.1394
 8945WAT      O36499   0.613   3.740   0.710  0.1619  0.1056 -0.9295
 8945WAT     H136500   0.653   3.677   0.664 -0.6751 -1.4945  0.4089
 8945WAT     H236501   0.538   3.752   0.668 -0.4280 -1.0691 -0.2677
 8945WAT    EPW36502   0.608   3.732   0.697 -0.0489 -0.3043 -0.6341
 8946WAT      O36503   2.248   5.755   4.833  0.5216 -0.3683 -0.0133
 8946WAT     H136504   2.225   5.671   4.841 -2.8846  0.4608  0.4510
 8946WAT     H236505   2.230   5.788   4.911 -2.4345  1.5457 -1.3273
 8946WAT    EPW36506   2.242   5.747   4.846 -0.4183  0.0369 -0.1388
 8947WAT      O36507   2.645   1.303   1.409  0.5584 -0.5229  0.1192
 8947WAT     H136508   2.731   1.315   1.396  0.6854 -0.5139  0.8870
 8947WAT     H236509   2.633   1.219   1.391  0.9311 -0.7665  0.9663
 8947WAT    EPW36510   2.656   1.293   1.405  0.6322 -0.5575  0.3578
 8948WAT      O36511   5.592   4.739   4.163  0.7562 -0.2199  0.7179
 8948WAT     H136512   5.617   4.780   4.090  2.4365 -0.7837  0.9282
 8948WAT     H236513   5.605   4.800   4.225 -2.9623  1.1301  0.4032
 8948WAT    EPW36514   5.598   4.754   4.161  0.4551 -0.1037  0.7025
 8949WAT      O36515   2.639   6.048   3.866  0.1297 -0.1555  0.1195
 8949WAT     H136516   2.713   6.030   3.909 -0.1377  0.1019  0.7044
 8949WAT     H236517   2.577   6.021   3.921 -0.2640  1.6708  0.6291
 8949WAT    EPW36518   2.641   6.042   3.881  0.0320  0.1523  0.2812
 8950WAT      O36519   2.227   2.620   6.918 -0.3740  0.4206 -0.0658
 8950WAT     H136520   2.281   2.594   6.855 -0.3120  0.3157  0.0294
 8950WAT     H236521   2.277   2.670   6.969 -0.3300  0.2149  0.0967
 8950WAT    EPW36522   2.242   2.623   6.916 -0.3584  0.3747 -0.0277
 8951WAT      O36523   2.884   0.916   5.784 -0.0315  0.0736  0.0365
 8951WAT     H136524   2.943   0.856   5.761 -0.0244  0.0592  0.0908
 8951WAT     H236525   2.837   0.928   5.711 -0.5136 -0.5604  0.2323
 8951WAT    EPW36526   2.885   0.909   5.770 -0.1017 -0.0221  0.0734
 8952WAT      O36527   7.151   2.552   1.635 -0.5267 -0.1710 -0.0745
 8952WAT     H136528   7.223   2.541   1.683 -0.5680 -1.8362 -0.3320
 8952WAT     H236529   7.180   2.555   1.553 -0.4866  2.4010 -0.0672
 8952WAT    EPW36530   7.166   2.551   1.630 -0.5268 -0.0371 -0.1115
 8953WAT      O36531   0.493   4.494   2.700  0.2904 -0.4852 -0.2594
 8953WAT     H136532   0.488   4.422   2.650  0.6519 -0.3625 -0.4754
 8953WAT     H236533   0.494   4.462   2.781  0.3711 -0.7232 -0.3524
 8953WAT    EPW36534   0.492   4.479   2.705  0.3557 -0.5022 -0.3051
 8954WAT      O36535   6.480   3.354   5.688 -0.2751 -0.3720  0.1484
 8954WAT     H136536   6.556   3.365   5.647 -0.8698 -2.1255 -1.6047
 8954WAT     H236537   6.421   3.385   5.631 -1.0041 -1.0554  0.5104
 8954WAT    EPW36538   6.483   3.360   5.674 -0.4706 -0.7319 -0.0571
 8955WAT      O36539   1.469   2.727   5.325 -0.4138  0.1782 -0.4687
 8955WAT     H136540   1.504   2.699   5.400  0.4303 -0.8739 -1.2190
 8955WAT     H236541   1.519   2.795   5.303 -1.0329  0.8626  0.2073
 8955WAT    EPW36542   1.481   2.733   5.333 -0.3806  0.1239 -0.4797
 8956WAT      O36543   0.044   4.976   0.251  0.2019  0.0234 -0.7187
 8956WAT     H136544   0.028   5.024   0.180  2.3958  0.3152 -1.1111
 8956WAT     H236545   0.110   5.019   0.289 -0.1005 -0.8187  0.8160
 8956WAT    EPW36546   0.052   4.989   0.246  0.4813 -0.0579 -0.5500
 8957WAT      O36547   5.479   1.871   6.155  0.0179 -0.5426  0.2238
 8957WAT     H136548   5.416   1.889   6.213 -1.8668 -1.8968 -1.2736
 8957WAT     H236549   5.514   1.797   6.185  0.4345 -0.1774  0.6634
 8957WAT    EPW36550   5.475   1.863   6.168 -0.1990 -0.6887  0.0676
 8958WAT      O36551   1.646   4.576   5.493  0.0772 -0.1652 -0.3572
 8958WAT     H136552   1.602   4.540   5.559  0.9816 -0.7968 -0.0750
 8958WAT     H236553   1.714   4.522   5.483  0.8767  0.8846 -0.6657
 8958WAT    EPW36554   1.649   4.563   5.501  0.3289 -0.1034 -0.3611
 8959WAT      O36555   1.323   1.923   2.834 -0.2529  0.1060  0.5136
 8959WAT     H136556   1.248   1.963   2.855 -0.2333 -0.5776  1.9759
 8959WAT     H236557   1.297   1.843   2.809 -0.2388  0.7680 -1.8370
 8959WAT    EPW36558   1.308   1.917   2.833 -0.2479  0.1028  0.3824
 8960WAT      O36559   5.803   0.205   6.668  0.3209  0.3756  0.0667
 8960WAT     H136560   5.764   0.168   6.600  2.4189 -0.5203 -0.7388
 8960WAT     H236561   5.787   0.150   6.734  2.5294 -1.5720 -0.8898
 8960WAT    EPW36562   5.795   0.192   6.668  0.9571 -0.0444 -0.1936
 8961WAT      O36563   0.154   6.172   5.338 -0.5187  0.1451  0.1625
 8961WAT     H136564   0.089   6.210   5.294 -0.5332  0.1709  0.2060
 8961WAT     H236565   0.133   6.087   5.337 -0.2509  0.0821 -0.3303
 8961WAT    EPW36566   0.142   6.165   5.332 -0.4813  0.1396  0.0961
 8962WAT      O36567   0.738   3.229   0.647 -0.4809 -0.4812 -0.7187
 8962WAT     H136568   0.729   3.233   0.734 -1.2805  3.3705 -0.8060
 8962WAT     H236569   0.824   3.239   0.635 -0.2582 -1.8145 -0.4282
 8962WAT    EPW36570   0.749   3.231   0.658 -0.5661 -0.1091 -0.6887
 8963WAT      O36571   6.765   0.860   7.088 -0.0815 -0.3326 -0.2699
 8963WAT     H136572   6.822   0.913   7.128 -0.2381 -1.4337  1.5376
 8963WAT     H236573   6.806   0.783   7.090 -1.7315 -1.2524  1.4822
 8963WAT    EPW36574   6.779   0.856   7.094 -0.3483 -0.6311  0.2559
 8964WAT      O36575   6.950   0.363   6.815 -0.0464  0.7339 -0.2726
 8964WAT     H136576   6.902   0.434   6.828  1.4394  1.8004 -0.3351
 8964WAT     H236577   6.991   0.379   6.740  1.7289  0.6773  0.6375
 8964WAT    EPW36578   6.949   0.376   6.806  0.4353  0.8831 -0.1474
 8965WAT      O36579   2.253   2.241   1.234  0.5496  0.3144 -0.3637
 8965WAT     H136580   2.332   2.211   1.255  0.7110  1.1161  0.2029
 8965WAT     H236581   2.270   2.304   1.176  0.3841  1.0578  0.3912
 8965WAT    EPW36582   2.267   2.246   1.228  0.5490  0.5427 -0.1685
 8966WAT      O36583   2.096   1.797   0.975  0.2126  0.4967 -0.0346
 8966WAT     H136584   2.158   1.744   1.005  0.0394  0.2105 -0.1776
 8966WAT     H236585   2.092   1.860   1.035 -0.7150 -0.4931  1.0119
 8966WAT    EPW36586   2.105   1.798   0.988  0.0500  0.3082  0.0989
 8967WAT      O36587   1.282   5.544   7.274  0.3015 -0.0021  0.0115
 8967WAT     H136588   1.271   5.508   7.195  0.1509  0.0797 -0.0052
 8967WAT     H236589   1.200   5.561   7.299  0.4273  1.7286 -0.6224
 8967WAT    EPW36590   1.268   5.541   7.266  0.2978  0.2656 -0.0846
 8968WAT      O36591   2.727   7.074   3.243 -0.0348 -0.2629 -0.1950
 8968WAT     H136592   2.653   7.090   3.200  1.1508  0.1087 -2.2088
 8968WAT     H236593   2.777   7.033   3.184  2.0095  1.0441  0.5113
 8968WAT    EPW36594   2.724   7.070   3.228  0.4424 -0.0150 -0.3882
 8969WAT      O36595   2.625   3.871   0.394  0.1124  0.4367  0.4989
 8969WAT     H136596   2.544   3.852   0.420 -0.8426 -0.1296 -2.5210
 8969WAT     H236597   2.626   3.958   0.392 -0.7453  0.4497 -0.2009
 8969WAT    EPW36598   2.613   3.881   0.398 -0.1554  0.3549 -0.0506
 8970WAT      O36599   6.544   1.139   3.453  0.2251 -0.0766  0.5399
 8970WAT     H136600   6.472   1.149   3.404  1.9564  0.4190 -2.0859
 8970WAT     H236601   6.582   1.217   3.451  1.2124 -0.5077  1.2813
 8970WAT    EPW36602   6.539   1.152   3.446  0.6267 -0.0670  0.2615
 8971WAT      O36603   6.362   1.816   6.362 -0.1145 -0.2467 -0.0947
 8971WAT     H136604   6.394   1.875   6.307  0.1169  0.9277  1.2490
 8971WAT     H236605   6.369   1.741   6.318 -0.1242  0.6615 -1.7227
 8971WAT    EPW36606   6.368   1.813   6.348 -0.0817  0.0609 -0.1367
 8972WAT      O36607   5.708   5.842   5.777 -0.1947 -0.2413 -0.2413
 8972WAT     H136608   5.782   5.854   5.731 -0.9853  0.8028 -1.3263
 8972WAT     H236609   5.674   5.923   5.781 -1.4020 -0.7437  0.0061
 8972WAT    EPW36610   5.714   5.856   5.771 -0.4898 -0.1613 -0.3650
 8973WAT      O36611   0.890   2.991   3.661 -0.3322  0.3084  0.0570
 8973WAT     H136612   0.813   2.952   3.679  0.5722 -0.0936  3.8949
 8973WAT     H236613   0.919   3.015   3.739  2.7607  1.9064 -1.4361
 8973WAT    EPW36614   0.883   2.989   3.675  0.2583  0.4851  0.4034
 8974WAT      O36615   0.323   3.685   2.704  0.3643  0.0006 -0.1156
 8974WAT     H136616   0.282   3.669   2.779  0.4792 -3.1109 -0.5958
 8974WAT     H236617   0.263   3.669   2.643  1.4990 -2.2102 -0.7575
 8974WAT    EPW36618   0.308   3.680   2.706  0.5489 -0.7856 -0.2814
 8975WAT      O36619   4.793   5.749   3.541  0.1091  0.4984 -0.1453
 8975WAT     H136620   4.866   5.782   3.575 -0.0623  1.0862 -0.3382
 8975WAT     H236621   4.780   5.798   3.469  0.4611 -0.7012 -1.0556
 8975WAT    EPW36622   4.802   5.761   3.535  0.1358  0.4081 -0.3083
 8976WAT      O36623   2.919   1.687   7.061 -0.1516  0.0284 -0.2721
 8976WAT     H136624   2.877   1.731   7.124 -0.1698  1.1017 -0.9929
 8976WAT     H236625   2.878   1.611   7.058 -1.2352  0.5826 -0.0893
 8976WAT    EPW36626   2.906   1.682   7.070 -0.3143  0.2688 -0.3516
 8977WAT      O36627   3.226   1.329   6.005  0.4106  0.0225  0.2090
 8977WAT     H136628   3.187   1.300   6.078 -1.4759  0.5065 -0.5536
 8977WAT     H236629   3.269   1.401   6.032  3.3794 -2.0844  1.6678
 8977WAT    EPW36630   3.227   1.336   6.020  0.5705 -0.2172  0.3118
 8978WAT      O36631   4.850   3.368   2.584  0.0636 -0.5143 -0.3818
 8978WAT     H136632   4.854   3.303   2.643 -0.2597  0.2771  0.5470
 8978WAT     H236633   4.830   3.438   2.633 -3.5446 -0.3372 -1.7966
 8978WAT    EPW36634   4.848   3.369   2.600 -0.5172 -0.3712 -0.4536
 8979WAT      O36635   5.900   1.501   3.731 -0.6597 -0.9405  0.4170
 8979WAT     H136636   5.824   1.457   3.733  0.2584 -2.5970  0.9187
 8979WAT     H236637   5.915   1.519   3.814 -0.6239 -0.3767  0.2883
 8979WAT    EPW36638   5.891   1.497   3.744 -0.5188 -1.1019  0.4721
 8980WAT      O36639   5.718   5.366   6.364  0.2744  0.5352  0.4885
 8980WAT     H136640   5.632   5.364   6.380  0.1911  0.2419  0.0281
 8980WAT     H236641   5.727   5.428   6.303 -0.2602 -2.3882 -2.9329
 8980WAT    EPW36642   5.706   5.375   6.357  0.1831  0.0600 -0.0849
 8981WAT      O36643   5.749   7.042   3.757  0.3061  0.5085 -0.0891
 8981WAT     H136644   5.711   6.980   3.806  0.0913  0.3544 -0.4489
 8981WAT     H236645   5.770   7.103   3.815 -0.3021  0.5023  0.1501
 8981WAT    EPW36646   5.746   7.042   3.773  0.1846  0.4848 -0.1069
 8982WAT      O36647   2.811   5.898   0.089  0.1971  0.3222 -0.3267
 8982WAT     H136648   2.889   5.864   0.110  0.1827 -0.1493 -0.9935
 8982WAT     H236649   2.809   5.893   0.002 -0.4644  0.5850 -0.3346
 8982WAT    EPW36650   2.822   5.892   0.079  0.0973  0.2914 -0.4264
 8983WAT      O36651   5.434   1.690   2.166 -0.0564  0.4677 -0.7145
 8983WAT     H136652   5.361   1.653   2.135  0.5678 -1.3168 -0.1792
 8983WAT     H236653   5.490   1.684   2.100  0.2088 -0.0826 -0.4486
 8983WAT    EPW36654   5.431   1.684   2.152  0.0750  0.1228 -0.5962
 8984WAT      O36655   6.087   4.683   5.682  0.2314 -0.2075  0.2307
 8984WAT     H136656   6.017   4.717   5.720  0.5289 -1.0534  1.5782
 8984WAT     H236657   6.067   4.687   5.597 -1.6595 -0.8808  0.5908
 8984WAT    EPW36658   6.074   4.689   5.675 -0.0040 -0.4320  0.4829
 8985WAT      O36659   1.087   1.184   3.744  0.5077 -0.3099  0.4079
 8985WAT     H136660   1.059   1.189   3.662 -0.1370  0.6231  0.6764
 8985WAT     H236661   1.077   1.100   3.764  0.3526 -0.4773 -0.3564
 8985WAT    EPW36662   1.082   1.172   3.735  0.3896 -0.1968  0.3347
 8986WAT      O36663   1.876   6.566   1.379  0.2504  0.3942  0.5162
 8986WAT     H136664   1.886   6.491   1.423  1.3422  0.7590  0.9336
 8986WAT     H236665   1.958   6.593   1.365 -0.1067  0.9397 -0.6293
 8986WAT    EPW36666   1.889   6.559   1.384  0.3589  0.5287  0.4087
 8987WAT      O36667   6.321   1.984   4.403  0.0009 -0.1543  0.3928
 8987WAT     H136668   6.238   1.994   4.380 -0.0229 -0.0860  0.5067
 8987WAT     H236669   6.354   1.932   4.341  0.4893  1.7541 -1.0450
 8987WAT    EPW36670   6.314   1.978   4.391  0.0695  0.1377  0.1972
 8988WAT      O36671   6.935   1.429   6.286 -0.0250 -0.0665 -0.3403
 8988WAT     H136672   6.979   1.357   6.307  2.5698  1.3601 -0.3697
 8988WAT     H236673   6.907   1.460   6.362 -0.2325 -0.5486 -0.2201
 8988WAT    EPW36674   6.937   1.423   6.300  0.3277  0.0730 -0.3269
 8989WAT      O36675   1.104   6.719   0.437 -0.1379 -0.0931  0.0622
 8989WAT     H136676   1.037   6.746   0.388  0.6603  3.9969  0.8645
 8989WAT     H236677   1.085   6.749   0.517  1.5761 -0.9177  0.8280
 8989WAT    EPW36678   1.091   6.727   0.442  0.2332  0.3893  0.2939
 8990WAT      O36679   4.589   0.956   5.347 -0.5220 -0.4144  0.2921
 8990WAT     H136680   4.652   1.014   5.332 -1.4007  0.8832  1.3879
 8990WAT     H236681   4.554   0.943   5.268 -0.0182  0.2009 -0.0447
 8990WAT    EPW36682   4.593   0.963   5.333 -0.5774 -0.1318  0.4042
 8991WAT      O36683   2.027   2.870   5.414 -0.3898 -0.1725 -0.2367
 8991WAT     H136684   2.050   2.816   5.349 -2.7834 -2.3147  0.5378
 8991WAT     H236685   2.103   2.890   5.452  0.9215 -0.1174 -2.6411
 8991WAT    EPW36686   2.042   2.865   5.410 -0.5497 -0.4808 -0.4774
 8992WAT      O36687   6.928   2.809   2.719 -0.0155  0.4875 -0.1169
 8992WAT     H136688   6.933   2.837   2.802 -0.8296 -0.1665  0.1605
 8992WAT     H236689   7.011   2.813   2.691  0.6940 -1.5213  1.4782
 8992WAT    EPW36690   6.941   2.814   2.727 -0.0309  0.0941  0.1597
 8993WAT      O36691   1.036   0.182   5.634 -0.3483 -0.3549  0.2159
 8993WAT     H136692   1.040   0.156   5.717 -0.1442 -1.2778 -0.0746
 8993WAT     H236693   1.012   0.110   5.590  2.4426 -0.7497 -0.8977
 8993WAT    EPW36694   1.033   0.167   5.640  0.0941 -0.5495  0.0085
 8994WAT      O36695   6.417   3.097   5.620  0.1366 -0.4686 -0.1560
 8994WAT     H136696   6.347   3.096   5.569  0.3429 -3.1370 -0.5000
 8994WAT     H236697   6.425   3.181   5.641 -1.9782  0.2070 -1.6921
 8994WAT    EPW36698   6.408   3.109   5.616 -0.1453 -0.7629 -0.4337
 8995WAT      O36699   3.531   5.582   0.707 -0.0762  0.2797  0.1179
 8995WAT     H136700   3.531   5.590   0.794  1.3393  3.7058 -0.0647
 8995WAT     H236701   3.613   5.602   0.684 -0.3562 -0.7350 -2.0567
 8995WAT    EPW36702   3.543   5.586   0.717  0.0915  0.6359 -0.2303
 8996WAT      O36703   5.163   2.303   7.050  0.4424 -0.3288  0.5996
 8996WAT     H136704   5.147   2.290   6.965 -0.9339 -0.1789  0.8227
 8996WAT     H236705   5.130   2.383   7.065  0.3372 -0.5096  1.3608
 8996WAT    EPW36706   5.156   2.313   7.040  0.2235 -0.3334  0.7450
 8997WAT      O36707   0.171   4.207   5.310 -0.5060  0.1153  0.3219
 8997WAT     H136708   0.162   4.227   5.225  0.2002  2.6027  0.7486
 8997WAT     H236709   0.204   4.126   5.308  1.2894  0.7726 -1.9001
 8997WAT    EPW36710   0.175   4.198   5.297 -0.1365  0.5798  0.0567
 8998WAT      O36711   7.132   2.085   0.699 -0.5217  0.0191 -0.1700
 8998WAT     H136712   7.101   2.032   0.762  0.2360 -1.3208 -0.8795
 8998WAT     H236713   7.157   2.156   0.743  1.0828 -1.3277  1.2653
 8998WAT    EPW36714   7.131   2.088   0.715 -0.1728 -0.3778 -0.0628
 8999WAT      O36715   6.963   2.021   5.803  0.3908 -0.0435 -0.3243
 8999WAT     H136716   6.888   2.017   5.758  0.4935  0.9734 -0.6041
 8999WAT     H236717   6.936   2.032   5.885  0.2361  0.5972 -0.4583
 8999WAT    EPW36718   6.948   2.022   5.808  0.3831  0.2013 -0.3854
 9000WAT      O36719   4.909   2.608   6.183  0.1389 -0.2248 -0.2185
 9000WAT     H136720   4.931   2.534   6.144 -0.9557 -0.6771  0.0155
 9000WAT     H236721   4.833   2.630   6.146  0.5864  0.9417 -0.4998
 9000WAT    EPW36722   4.901   2.601   6.172  0.0433 -0.1193 -0.2255
 9001WAT      O36723   3.952   0.858   3.501  0.3225  0.5284 -0.4807
 9001WAT     H136724   3.931   0.875   3.418 -0.3018  1.2147 -0.1932
 9001WAT     H236725   3.946   0.935   3.540  3.3790  0.8089 -0.3267
 9001WAT    EPW36726   3.948   0.872   3.494  0.6818  0.6712 -0.4154
 9002WAT      O36727   2.509   1.471   1.063  0.5444 -0.1337 -0.2782
 9002WAT     H136728   2.531   1.394   1.028  3.3651  0.3633  0.1443
 9002WAT     H236729   2.538   1.529   1.005 -1.6114  0.6762 -0.6282
 9002WAT    EPW36730   2.516   1.468   1.049  0.6426  0.0594 -0.2675
 9003WAT      O36731   0.678   3.404   3.197  0.2421 -0.2314  0.3070
 9003WAT     H136732   0.682   3.317   3.187 -1.1623 -0.1514 -1.5115
 9003WAT     H236733   0.755   3.424   3.232  2.6055 -1.7881 -3.3252
 9003WAT    EPW36734   0.690   3.394   3.200  0.3837 -0.4496 -0.4982
 9004WAT      O36735   4.348   4.281   0.310 -0.0639  0.0078  0.6220
 9004WAT     H136736   4.275   4.309   0.271 -0.2635  0.0780  1.0437
 9004WAT     H236737   4.344   4.194   0.302  0.7506  0.0787 -1.0402
 9004WAT    EPW36738   4.337   4.272   0.303  0.0270  0.0287  0.4388
 9005WAT      O36739   1.152   2.809   6.329  0.1712  0.1149  0.3190
 9005WAT     H136740   1.164   2.896   6.335  0.5808  0.2095 -1.2982
 9005WAT     H236741   1.227   2.777   6.360  0.5236  0.4006 -0.2032
 9005WAT    EPW36742   1.165   2.817   6.335  0.2838  0.1711  0.0030
 9006WAT      O36743   2.789   0.241   5.921 -0.1526  0.1007 -0.0084
 9006WAT     H136744   2.810   0.307   5.868 -0.7174  0.5707  0.3368
 9006WAT     H236745   2.709   0.219   5.895 -0.7597  0.8628  1.1505
 9006WAT    EPW36746   2.780   0.247   5.910 -0.3257  0.2827  0.2138
 9007WAT      O36747   7.230   6.137   6.779  0.2043  0.2144  0.4306
 9007WAT     H136748   7.248   6.080   6.715  0.0817  2.2623 -1.5762
 9007WAT     H236749   7.177   6.093   6.832  1.4885 -2.0619 -0.0388
 9007WAT    EPW36750   7.225   6.122   6.777  0.3759  0.1807  0.0648
 9008WAT      O36751   5.101   6.250   0.357  1.1197  0.3790 -0.4524
 9008WAT     H136752   5.094   6.333   0.381 -0.4342 -0.3980  2.2351
 9008WAT     H236753   5.181   6.245   0.321  1.3472  2.9210 -0.4810
 9008WAT    EPW36754   5.112   6.262   0.355  0.9238  0.6398 -0.0596
 9009WAT      O36755   3.526   1.071   0.947 -0.3206  0.3762  0.1322
 9009WAT     H136756   3.479   1.114   0.889  0.0298  0.0906 -0.3715
 9009WAT     H236757   3.596   1.121   0.959  0.8953 -0.7484 -1.6786
 9009WAT    EPW36758   3.529   1.085   0.940 -0.0892  0.1679 -0.2097
 9010WAT      O36759   2.147   4.771   7.026  0.1308 -0.3912  0.0502
 9010WAT     H136760   2.208   4.824   7.060 -1.2135  1.5101 -0.3066
 9010WAT     H236761   2.144   4.794   6.942  0.2591 -1.8214 -0.3597
 9010WAT    EPW36762   2.155   4.783   7.018 -0.0488 -0.3216 -0.0630
 9011WAT      O36763   1.797   1.425   5.106 -0.0244 -0.2097 -0.4565
 9011WAT     H136764   1.782   1.505   5.137 -0.0206 -0.6169  0.6267
 9011WAT     H236765   1.719   1.400   5.075 -0.0879  0.0978 -0.5530
 9011WAT    EPW36766   1.783   1.433   5.106 -0.0332 -0.2244 -0.3108
 9012WAT      O36767   0.578   7.046   3.033  0.0652 -0.0634 -0.3059
 9012WAT     H136768   0.500   7.084   3.035  0.2980  0.7941 -3.0052
 9012WAT     H236769   0.560   6.961   3.034 -0.6757  0.0674  2.0751
 9012WAT    EPW36770   0.564   7.039   3.033 -0.0099  0.0826 -0.3529
 9013WAT      O36771   1.307   6.577   0.326 -0.2414 -0.1086  0.2154
 9013WAT     H136772   1.384   6.570   0.367 -0.7582 -3.4696  0.9283
 9013WAT     H236773   1.253   6.606   0.388  0.0504  0.3417  0.2661
 9013WAT    EPW36774   1.310   6.580   0.341 -0.2746 -0.5386  0.3282
 9014WAT      O36775   0.135   2.073   6.069 -0.0559  0.0972  0.1801
 9014WAT     H136776   0.219   2.075   6.093  0.3298 -1.6921 -0.8455
 9014WAT     H236777   0.094   2.116   6.133  1.5736  0.5031  0.9867
 9014WAT    EPW36778   0.141   2.079   6.082  0.2418 -0.1072  0.1477
 9015WAT      O36779   5.146   4.329   6.712  0.2291  0.0984 -0.1390
 9015WAT     H136780   5.112   4.323   6.792  1.2839  0.2873  0.3511
 9015WAT     H236781   5.077   4.340   6.661 -0.6709 -2.1577  0.4709
 9015WAT    EPW36782   5.131   4.330   6.717  0.2520 -0.2070  0.0235
 9016WAT      O36783   1.961   6.778   4.482  0.0438 -0.0404 -0.3736
 9016WAT     H136784   1.964   6.854   4.524 -0.0538  0.0163 -0.4703
 9016WAT     H236785   1.876   6.762   4.473  0.0601  0.0735 -0.7742
 9016WAT    EPW36786   1.949   6.787   4.487  0.0318 -0.0152 -0.4470
 9017WAT      O36787   5.404   6.144   6.649  0.4056 -0.3654  0.4781
 9017WAT     H136788   5.343   6.133   6.588  0.2287 -1.3478  0.8221
 9017WAT     H236789   5.376   6.095   6.716  2.8473 -3.0580 -0.2820
 9017WAT    EPW36790   5.391   6.136   6.650  0.7402 -0.9083  0.4166
 9018WAT      O36791   4.404   1.010   5.571  0.0794 -0.0838 -0.4555
 9018WAT     H136792   4.475   1.014   5.521  0.4660  0.9498  0.1193
 9018WAT     H236793   4.338   1.010   5.515  0.5157  0.6220 -0.9889
 9018WAT    EPW36794   4.404   1.011   5.556  0.2009  0.1732 -0.4494
 9019WAT      O36795   5.846   2.886   5.629  0.0072 -0.2546  0.0738
 9019WAT     H136796   5.867   2.925   5.554 -0.5724 -0.2381 -0.0825
 9019WAT     H236797   5.918   2.896   5.678 -0.2395  1.2844  0.1531
 9019WAT    EPW36798   5.860   2.893   5.625 -0.1149 -0.0248  0.0624
 9020WAT      O36799   5.411   3.890   6.473  0.0893  0.2125  0.2273
 9020WAT     H136800   5.372   3.945   6.528 -2.6161 -2.2395  1.0478
 9020WAT     H236801   5.388   3.811   6.503  1.6237 -1.3554 -2.2993
 9020WAT    EPW36802   5.402   3.886   6.486 -0.0837 -0.3813 -0.0248
 9021WAT      O36803   5.013   6.106   3.430  0.4688 -0.5180 -0.0021
 9021WAT     H136804   4.972   6.128   3.356  0.9485 -1.7427 -0.6563
 9021WAT     H236805   5.064   6.040   3.406 -0.2481 -1.7535  1.6589
 9021WAT    EPW36806   5.014   6.100   3.415  0.4337 -0.8814  0.1466
 9022WAT      O36807   0.565   1.715   2.396 -0.3164  0.3133  0.4162
 9022WAT     H136808   0.640   1.713   2.350  0.2522  0.3809  1.3165
 9022WAT     H236809   0.510   1.667   2.347  0.2504  0.4382 -0.3634
 9022WAT    EPW36810   0.568   1.707   2.382 -0.1487  0.3417  0.4340
 9023WAT      O36811   4.911   3.445   0.629  0.3705  0.1635  0.3663
 9023WAT     H136812   4.837   3.469   0.668 -0.6621  0.6230 -1.7451
 9023WAT     H236813   4.915   3.496   0.559  2.1246 -0.6343 -0.1702
 9023WAT    EPW36814   4.901   3.456   0.624  0.4771  0.1135 -0.0248
 9024WAT      O36815   0.304   3.512   4.520  0.2718  0.6461 -0.6365
 9024WAT     H136816   0.311   3.572   4.583 -0.0337  0.8360 -0.7816
 9024WAT     H236817   0.379   3.519   4.477 -0.0328  1.4012 -1.0680
 9024WAT    EPW36818   0.316   3.522   4.523  0.1817  0.7857 -0.7217
 9025WAT      O36819   6.887   6.000   4.543  0.0355  0.4954  0.2764
 9025WAT     H136820   6.874   5.961   4.466  0.1493  0.2260  0.3929
 9025WAT     H236821   6.932   5.941   4.589  0.8579  1.0365  0.2030
 9025WAT    EPW36822   6.892   5.986   4.538  0.1738  0.5355  0.2828
 9026WAT      O36823   4.613   6.132   3.942 -0.2279 -0.0789 -0.1033
 9026WAT     H136824   4.562   6.193   3.978  0.2230 -0.1772  0.7363
 9026WAT     H236825   4.594   6.060   3.987 -0.6171 -0.5308 -0.9583
 9026WAT    EPW36826   4.603   6.130   3.954 -0.2188 -0.1601 -0.1056
 9027WAT      O36827   2.078   5.796   2.681 -0.4451  0.0304  0.6993
 9027WAT     H136828   2.143   5.853   2.675  0.7330 -1.3107  0.3263
 9027WAT     H236829   2.057   5.798   2.765  0.7933 -0.2480  1.0391
 9027WAT    EPW36830   2.084   5.804   2.692 -0.0882 -0.2088  0.6944
 9028WAT      O36831   0.142   2.503   6.086 -0.4932 -0.8737 -0.0649
 9028WAT     H136832   0.093   2.573   6.069 -1.2028 -1.5203 -0.7426
 9028WAT     H236833   0.124   2.449   6.021  0.7786 -1.3218 -0.0601
 9028WAT    EPW36834   0.132   2.506   6.074 -0.4101 -1.0354 -0.1643
 9029WAT      O36835   6.222   6.841   2.643  0.4451 -0.1459 -0.2514
 9029WAT     H136836   6.213   6.927   2.645 -0.1008 -0.2123  0.8879
 9029WAT     H236837   6.306   6.828   2.660  0.4555  0.1521 -0.0798
 9029WAT    EPW36838   6.233   6.852   2.646  0.3660 -0.1117 -0.0577
 9030WAT      O36839   4.606   0.151   6.558 -0.5370 -0.0089 -0.5412
 9030WAT     H136840   4.633   0.088   6.504 -1.2462 -0.1312 -0.7751
 9030WAT     H236841   4.541   0.112   6.603  0.3352 -0.0525  0.7383
 9030WAT    EPW36842   4.600   0.136   6.557 -0.5129 -0.0334 -0.3868
 9031WAT      O36843   4.498   6.218   0.525  0.7545  0.4002 -0.3026
 9031WAT     H136844   4.419   6.248   0.546  1.5216  0.9000  2.2437
 9031WAT     H236845   4.486   6.132   0.515 -0.0789  0.4328  0.3042
 9031WAT    EPW36846   4.485   6.210   0.527  0.7447  0.4789  0.1632
 9032WAT      O36847   2.306   0.970   1.319  0.8173 -0.4395 -0.0138
 9032WAT     H136848   2.295   1.051   1.351  1.6664 -0.5351  0.5643
 9032WAT     H236849   2.307   0.920   1.391 -1.4224 -1.2012 -0.4529
 9032WAT    EPW36850   2.305   0.975   1.335  0.6119 -0.5661  0.0068
 9033WAT      O36851   6.695   6.682   1.519 -0.2086 -0.0988 -0.2658
 9033WAT     H136852   6.633   6.741   1.540 -2.4375 -2.0107 -0.9957
 9033WAT     H236853   6.652   6.625   1.469  2.0515 -1.9016 -0.2956
 9033WAT    EPW36854   6.679   6.683   1.515 -0.2040 -0.6476 -0.3781
 9034WAT      O36855   5.832   1.720   1.474  0.1558 -0.8122  0.3103
 9034WAT     H136856   5.905   1.676   1.494  0.2213 -1.1142 -0.5723
 9034WAT     H236857   5.860   1.780   1.417 -0.0182  0.0771  1.1311
 9034WAT    EPW36858   5.847   1.723   1.469  0.1398 -0.7255  0.3012
 9035WAT      O36859   6.770   6.638   4.199  0.2379 -0.1890  0.1543
 9035WAT     H136860   6.733   6.717   4.193  0.5299 -0.0544  0.0974
 9035WAT     H236861   6.851   6.652   4.170  0.2033 -0.5732 -0.1267
 9035WAT    EPW36862   6.776   6.652   4.194  0.2759 -0.2259  0.1044
 9036WAT      O36863   4.591   1.554   0.423  0.0158 -0.5815  0.0511
 9036WAT     H136864   4.557   1.486   0.464  1.4355 -1.5240 -0.2538
 9036WAT     H236865   4.639   1.593   0.485  0.7171 -0.9704 -0.2348
 9036WAT    EPW36866   4.593   1.550   0.438  0.3291 -0.7781 -0.0361
 9037WAT      O36867   2.916   5.143   1.576 -0.8193 -0.0743  0.1031
 9037WAT     H136868   2.918   5.134   1.663 -0.7121  1.1365  0.2434
 9037WAT     H236869   2.852   5.202   1.564  0.8954  1.7631 -0.4233
 9037WAT    EPW36870   2.907   5.150   1.587 -0.5501  0.3760  0.0461
 9038WAT      O36871   1.330   5.837   5.105 -0.1093 -0.3730 -0.0431
 9038WAT     H136872   1.409   5.859   5.075  0.1040 -1.0518 -0.0040
 9038WAT     H236873   1.284   5.911   5.100  0.7338  0.2206  0.5996
 9038WAT    EPW36874   1.335   5.851   5.100  0.0467 -0.3856  0.0576
 9039WAT      O36875   3.176   3.117   2.037  0.3715  0.7617  0.4107
 9039WAT     H136876   3.147   3.116   2.119 -0.9283 -0.3708 -0.0189
 9039WAT     H236877   3.231   3.049   2.035 -0.5690 -0.0113  0.0490
 9039WAT    EPW36878   3.180   3.107   2.049  0.0406  0.4802  0.2938
 9040WAT      O36879   6.966   2.372   5.562  0.1234  0.4311 -0.1345
 9040WAT     H136880   7.021   2.307   5.542  1.5228  0.4457  2.9921
 9040WAT     H236881   6.888   2.333   5.566  0.7690 -0.8746  0.6003
 9040WAT    EPW36882   6.963   2.357   5.560  0.4255  0.2403  0.4359
 9041WAT      O36883   5.948   3.409   3.535 -0.2845 -0.7535 -0.2275
 9041WAT     H136884   5.939   3.371   3.613  1.9124  1.1970  1.0897
 9041WAT     H236885   5.868   3.441   3.519 -0.9083 -1.6495  0.9463
 9041WAT    EPW36886   5.935   3.408   3.544 -0.0521 -0.5977  0.1404
 9042WAT      O36887   6.346   1.508   5.378  0.0370 -0.3168  0.0416
 9042WAT     H136888   6.338   1.423   5.397 -0.0224 -0.1376  0.8321
 9042WAT     H236889   6.432   1.522   5.387 -0.0393 -0.1520  0.5379
 9042WAT    EPW36890   6.358   1.497   5.382  0.0169 -0.2660  0.2317
 9043WAT      O36891   3.164   5.581   0.822  0.7795 -0.4804 -0.2572
 9043WAT     H136892   3.154   5.514   0.767 -0.5537  0.1357 -0.7971
 9043WAT     H236893   3.177   5.543   0.899 -1.8038 -1.4003 -0.2047
 9043WAT    EPW36894   3.165   5.566   0.825  0.2010 -0.5253 -0.3292
 9044WAT      O36895   3.308   0.786   7.353  0.1790 -0.1156 -0.2280
 9044WAT     H136896   3.363   0.815   7.292 -0.8198 -1.4102 -1.8043
 9044WAT     H236897   3.356   0.730   7.400  0.4507 -0.5668 -1.0355
 9044WAT    EPW36898   3.323   0.782   7.351  0.0715 -0.3735 -0.5801
 9045WAT      O36899   5.227   0.624   7.183 -0.1180  0.5393  0.1973
 9045WAT     H136900   5.192   0.616   7.262  1.5665  0.2176  0.9461
 9045WAT     H236901   5.308   0.653   7.199  1.2960 -2.2811 -1.1910
 9045WAT    EPW36902   5.234   0.627   7.197  0.3397  0.0751  0.1029
 9046WAT      O36903   2.152   0.620   4.165 -0.0145 -0.0116  0.4503
 9046WAT     H136904   2.071   0.594   4.185 -0.6917 -0.0085 -1.9302
 9046WAT     H236905   2.189   0.548   4.132  0.0410  0.5614 -0.8283
 9046WAT    EPW36906   2.146   0.606   4.163 -0.1064  0.0735 -0.0902
 9047WAT      O36907   0.620   0.887   0.617 -0.0989  0.9330 -0.1711
 9047WAT     H136908   0.687   0.844   0.582 -1.4788 -0.4344 -1.2551
 9047WAT     H236909   0.658   0.940   0.675  1.6949 -2.3272  1.9492
 9047WAT    EPW36910   0.635   0.889   0.621 -0.0378  0.2494 -0.0180
 9048WAT      O36911   2.065   6.122   5.522 -0.0498 -0.3237 -0.2215
 9048WAT     H136912   2.040   6.039   5.521 -1.2564  0.0266 -0.6309
 9048WAT     H236913   2.000   6.164   5.561 -0.0599  0.6005 -1.1638
 9048WAT    EPW36914   2.052   6.116   5.528 -0.2295 -0.1354 -0.4212
 9049WAT      O36915   6.889   1.985   6.759 -0.6287  0.3324 -0.0509
 9049WAT     H136916   6.892   1.905   6.792  0.8504  0.4309  0.0843
 9049WAT     H236917   6.870   2.035   6.828 -1.4360  0.1338 -0.1148
 9049WAT    EPW36918   6.886   1.981   6.774 -0.5295  0.3176 -0.0404
 9050WAT      O36919   6.440   4.863   4.224 -0.0952 -0.4928  0.3965
 9050WAT     H136920   6.409   4.816   4.291 -0.4081 -0.6071  0.1731
 9050WAT     H236921   6.372   4.910   4.198  0.0603 -0.3545  0.2349
 9050WAT    EPW36922   6.426   4.863   4.230 -0.1185 -0.4893  0.3396
 9051WAT      O36923   3.620   2.312   3.956 -0.1908 -0.5601 -0.1326
 9051WAT     H136924   3.622   2.296   3.870 -1.3777 -1.9271  0.0471
 9051WAT     H236925   3.611   2.232   3.991 -0.6829  0.0549  1.2008
 9051WAT    EPW36926   3.619   2.298   3.948 -0.4388 -0.6712  0.0909
 9052WAT      O36927   2.360   3.268   0.490  0.1866 -0.5521 -0.2832
 9052WAT     H136928   2.282   3.307   0.493  0.4894  0.0654  2.2677
 9052WAT     H236929   2.404   3.314   0.431 -0.3806  1.2311  0.6174
 9052WAT    EPW36930   2.355   3.281   0.482  0.1475 -0.1975  0.2267
 9053WAT      O36931   6.142   1.684   6.498  0.0847  0.2937  0.5200
 9053WAT     H136932   6.209   1.733   6.471 -1.3292  0.4056 -3.3712
 9053WAT     H236933   6.170   1.603   6.484 -0.2600  0.3100 -0.2947
 9053WAT    EPW36934   6.156   1.680   6.492 -0.1751  0.3126 -0.1752
 9054WAT      O36935   1.060   6.784   3.299 -0.0710  0.2350 -0.2190
 9054WAT     H136936   1.061   6.819   3.379 -0.6668  1.7914 -0.8495
 9054WAT     H236937   1.028   6.704   3.311  2.4006 -0.6111  1.4551
 9054WAT    EPW36938   1.056   6.777   3.312  0.2061  0.3399 -0.0648
 9055WAT      O36939   7.029   6.465   6.132  0.2427 -0.1681 -0.1683
 9055WAT     H136940   7.076   6.453   6.060  1.1766 -0.7700  0.5103
 9055WAT     H236941   7.003   6.385   6.154 -2.0537  0.2465 -1.0940
 9055WAT    EPW36942   7.032   6.452   6.125  0.0414 -0.1958 -0.2048
 9056WAT      O36943   3.092   2.794   3.038  0.0870 -0.3355  0.5443
 9056WAT     H136944   3.030   2.819   2.982  1.3938  0.3035 -0.6663
 9056WAT     H236945   3.126   2.870   3.065  1.5911 -0.6872 -0.2725
 9056WAT    EPW36946   3.088   2.809   3.034  0.5022 -0.2930  0.2448
 9057WAT      O36947   3.867   6.616   7.265  0.1793 -0.3590 -0.2416
 9057WAT     H136948   3.940   6.601   7.220  1.7167  1.1214  1.5720
 9057WAT     H236949   3.813   6.651   7.207  1.4257 -0.1747 -1.3279
 9057WAT    EPW36950   3.870   6.619   7.250  0.5905 -0.1131 -0.1342
 9058WAT      O36951   0.207   0.316   3.090 -0.0706 -0.0535 -0.5589
 9058WAT     H136952   0.280   0.362   3.101  1.3634 -2.2196 -0.6015
 9058WAT     H236953   0.184   0.293   3.171  0.4066 -0.9696 -0.6684
 9058WAT    EPW36954   0.214   0.320   3.103  0.2117 -0.5088 -0.5814
 9059WAT      O36955   5.410   4.619   6.103  0.1886  0.5780 -0.3617
 9059WAT     H136956   5.488   4.585   6.084  0.4060  0.3312  0.8730
 9059WAT     H236957   5.390   4.666   6.032  1.3114  0.3919 -0.8223
 9059WAT    EPW36958   5.418   4.621   6.089  0.3866  0.5140 -0.2474
 9060WAT      O36959   3.517   6.811   0.619 -0.5814 -0.4686  0.3738
 9060WAT     H136960   3.581   6.777   0.667  0.9530  1.4786 -0.1466
 9060WAT     H236961   3.530   6.777   0.539  0.5413  0.7177  0.0115
 9060WAT    EPW36962   3.528   6.801   0.614 -0.1889 -0.0057  0.2434
 9061WAT      O36963   6.099   6.282   6.041 -0.0118  0.2830  0.2437
 9061WAT     H136964   6.123   6.354   5.998 -0.7673 -0.5612 -1.7075
 9061WAT     H236965   6.051   6.313   6.108  0.3925  1.6027 -0.0493
 9061WAT    EPW36966   6.095   6.297   6.045 -0.0637  0.3532 -0.0878
 9062WAT      O36967   5.867   3.147   7.195 -0.0614 -0.7277  0.2675
 9062WAT     H136968   5.912   3.132   7.122 -0.5183 -1.9537  0.1973
 9062WAT     H236969   5.911   3.102   7.255  0.9341  1.1469  1.0135
 9062WAT    EPW36970   5.880   3.138   7.193  0.0181 -0.6319  0.3673
 9063WAT      O36971   3.486   1.609   4.935 -0.3003  0.1184  0.1834
 9063WAT     H136972   3.488   1.617   4.848 -2.4358 -0.7509 -0.0316
 9063WAT     H236973   3.549   1.551   4.952 -0.1216 -0.0117 -0.8441
 9063WAT    EPW36974   3.495   1.602   4.924 -0.5894 -0.0293 -0.0001
 9064WAT      O36975   6.096   3.524   4.837 -0.5760 -0.5293 -0.3176
 9064WAT     H136976   6.084   3.502   4.753 -1.6493 -0.3956 -0.2093
 9064WAT     H236977   6.022   3.564   4.859  0.9836  2.6282 -0.2838
 9064WAT    EPW36978   6.083   3.527   4.828 -0.5042 -0.0431 -0.2966
 9065WAT      O36979   4.925   1.709   0.229  0.2521  0.3163 -0.6674
 9065WAT     H136980   4.929   1.718   0.315  1.4551  0.2331 -0.7001
 9065WAT     H236981   5.001   1.740   0.201 -0.5569  1.4109 -1.8110
 9065WAT    EPW36982   4.936   1.715   0.237  0.3103  0.4657 -0.8412
 9066WAT      O36983   0.136   5.985   6.074  0.4740  0.1851 -0.5890
 9066WAT     H136984   0.064   5.977   6.025  1.2407 -0.6308 -1.6298
 9066WAT     H236985   0.159   6.068   6.063 -1.4149  1.0940  1.4300
 9066WAT    EPW36986   0.129   5.996   6.065  0.3082  0.1989 -0.4445
 9067WAT      O36987   4.683   0.579   4.356 -0.1845 -0.1394 -0.0967
 9067WAT     H136988   4.671   0.506   4.403 -1.1835  0.3920  0.5183
 9067WAT     H236989   4.741   0.556   4.296  0.2447 -1.1787  0.6880
 9067WAT    EPW36990   4.689   0.565   4.354 -0.2687 -0.2144  0.1100
 9068WAT      O36991   0.872   5.183   2.119 -0.1825  0.1720  0.1129
 9068WAT     H136992   0.864   5.211   2.036  3.9960 -0.2383 -0.6717
 9068WAT     H236993   0.833   5.105   2.118  0.0158  0.0426 -1.5948
 9068WAT    EPW36994   0.865   5.176   2.106  0.4640  0.0923 -0.2553
 9069WAT      O36995   6.897   1.712   6.847  0.5666  0.1043 -0.4295
 9069WAT     H136996   6.946   1.719   6.919 -0.0350 -1.3593  0.1510
 9069WAT     H236997   6.940   1.654   6.798  0.0806 -0.2327 -0.4669
 9069WAT    EPW36998   6.910   1.705   6.851  0.4060 -0.1617 -0.3493
 9070WAT      O36999   2.828   3.128   6.195 -0.1643  0.1108  0.2298
 9070WAT     H137000   2.871   3.053   6.180  0.3256  0.2138  1.0466
 9070WAT     H237001   2.849   3.177   6.126 -0.8860 -0.6633 -0.5663
 9070WAT    EPW37002   2.838   3.124   6.183 -0.1986  0.0116  0.2328
 9071WAT      O37003   3.250   1.680   6.489  0.0795 -0.2464 -0.4880
 9071WAT     H137004   3.277   1.655   6.410  0.1147  1.0427 -0.8989
 9071WAT     H237005   3.291   1.624   6.543  0.8709 -0.4827 -1.3111
 9071WAT    EPW37006   3.260   1.668   6.485  0.2016 -0.0909 -0.6703
 9072WAT      O37007   7.174   0.757   0.319  0.0377  0.6115 -0.3948
 9072WAT     H137008   7.149   0.792   0.395  1.4585  0.9931 -0.0874
 9072WAT     H237009   7.164   0.671   0.332 -2.2993  0.7650 -0.7384
 9072WAT    EPW37010   7.169   0.749   0.332 -0.0976  0.6906 -0.4002
 9073WAT      O37011   5.536   6.253   5.512 -0.1877  0.6812 -0.5628
 9073WAT     H137012   5.563   6.306   5.448 -2.2741  2.7221  0.1147
 9073WAT     H237013   5.449   6.257   5.507 -0.4041 -0.9892  0.9177
 9073WAT    EPW37014   5.527   6.261   5.502 -0.5279  0.7359 -0.2440
 9074WAT      O37015   2.930   6.195   4.015 -0.1627 -0.5951  0.1559
 9074WAT     H137016   2.935   6.113   3.985 -1.9799  0.1252 -2.4078
 9074WAT     H237017   2.934   6.244   3.943 -0.8328  1.4988  1.4575
 9074WAT    EPW37018   2.932   6.190   4.000 -0.5301 -0.1794 -0.0305
 9075WAT      O37019   3.505   0.649   2.490 -0.1812 -0.1909  0.6451
 9075WAT     H137020   3.539   0.709   2.436  1.1720 -0.0030  1.6385
 9075WAT     H237021   3.512   0.687   2.569 -0.6090 -1.0933  1.1282
 9075WAT    EPW37022   3.511   0.664   2.494 -0.0445 -0.2965  0.8632
 9076WAT      O37023   0.960   6.787   0.657 -0.1221 -0.4556 -0.2301
 9076WAT     H137024   0.929   6.711   0.689 -0.2189 -0.4400 -0.2877
 9076WAT     H237025   0.987   6.829   0.729  0.2848 -0.7031 -0.2303
 9076WAT    EPW37026   0.959   6.782   0.672 -0.0763 -0.4899 -0.2386
 9077WAT      O37027   1.627   0.565   7.108 -0.3625  0.3782  0.0715
 9077WAT     H137028   1.628   0.534   7.027  0.4817  1.8680 -0.5195
 9077WAT     H237029   1.599   0.497   7.155  0.4083 -0.9501 -1.2860
 9077WAT    EPW37030   1.623   0.550   7.103 -0.1239  0.4021 -0.2163
 9078WAT      O37031   0.966   4.722   5.081  0.2252  0.7476 -0.2678
 9078WAT     H137032   0.968   4.806   5.061  1.5750  0.9463  0.5773
 9078WAT     H237033   1.041   4.709   5.125  0.4196 -1.0483 -1.0307
 9078WAT    EPW37034   0.977   4.732   5.085  0.4533  0.5116 -0.2556
 9079WAT      O37035   3.438   0.143   5.529 -0.5269 -0.0497  0.0462
 9079WAT     H137036   3.513   0.122   5.569 -1.3687 -1.4721  0.9646
 9079WAT     H237037   3.463   0.168   5.450  0.8240 -2.0927 -0.2404
 9079WAT    EPW37038   3.453   0.143   5.523 -0.4517 -0.5616  0.1395
 9080WAT      O37039   2.647   5.156   1.248 -0.1458  0.0649  0.1533
 9080WAT     H137040   2.622   5.109   1.179 -1.3034 -0.3642  0.8293
 9080WAT     H237041   2.645   5.098   1.314  2.4685  0.0740  0.3224
 9080WAT    EPW37042   2.643   5.140   1.247  0.0694  0.0028  0.2781
 9081WAT      O37043   5.444   0.731   1.093 -0.2061  0.4970  0.2271
 9081WAT     H137044   5.477   0.711   1.015 -3.3611  0.0677 -1.1454
 9081WAT     H237045   5.501   0.695   1.149  1.1081 -0.9644 -1.8911
 9081WAT    EPW37046   5.457   0.723   1.090 -0.4780  0.2177 -0.2886
 9082WAT      O37047   2.107   1.681   4.203 -0.2295 -0.4828 -0.9811
 9082WAT     H137048   2.034   1.723   4.226  0.0515 -0.2704 -0.4580
 9082WAT     H237049   2.164   1.745   4.188 -0.3109 -0.6276 -1.9925
 9082WAT    EPW37050   2.105   1.696   4.204 -0.2000 -0.4728 -1.0533
 9083WAT      O37051   2.851   1.459   1.337  0.0174  0.1324 -0.3333
 9083WAT     H137052   2.830   1.432   1.257  1.5819 -1.6596 -0.2108
 9083WAT     H237053   2.938   1.460   1.336  0.0572  0.4040  1.2348
 9083WAT    EPW37054   2.861   1.455   1.325  0.2544 -0.0922 -0.0835
 9084WAT      O37055   0.134   1.392   2.903 -0.7536 -0.0958  0.3117
 9084WAT     H137056   0.153   1.388   2.818  0.1011 -1.8423  0.5388
 9084WAT     H237057   0.119   1.477   2.917  0.0099  0.3611 -1.3902
 9084WAT    EPW37058   0.135   1.404   2.893 -0.5145 -0.2863  0.0938
 9085WAT      O37059   0.991   5.588   4.647 -0.2052 -0.0175  0.1931
 9085WAT     H137060   1.068   5.551   4.631 -0.3445 -1.2047  2.0244
 9085WAT     H237061   0.967   5.555   4.724 -1.5998  1.8920  0.6609
 9085WAT    EPW37062   0.999   5.578   4.656 -0.4318  0.0892  0.5327
 9086WAT      O37063   0.156   7.038   2.931 -0.1351  0.1429  0.5591
 9086WAT     H137064   0.230   7.076   2.905 -0.3692  0.1918 -0.0529
 9086WAT     H237065   0.116   7.101   2.977  0.9954 -0.4350  2.4510
 9086WAT    EPW37066   0.161   7.053   2.934 -0.0027  0.0648  0.7482
 9087WAT      O37067   1.235   5.019   6.617 -0.1467  0.0697  0.3655
 9087WAT     H137068   1.206   4.953   6.667 -0.4784  0.0033  0.0882
 9087WAT     H237069   1.319   5.024   6.637  0.2434 -1.4291 -0.7046
 9087WAT    EPW37070   1.243   5.010   6.628 -0.1381 -0.1615  0.1665
 9088WAT      O37071   5.815   0.953   6.454 -0.1782 -0.5635  0.1902
 9088WAT     H137072   5.748   0.925   6.407 -0.5306  0.1816  0.2229
 9088WAT     H237073   5.885   0.924   6.411 -0.5113 -0.9385 -0.1035
 9088WAT    EPW37074   5.815   0.945   6.441 -0.2795 -0.5088  0.1517
 9089WAT      O37075   2.723   3.664   5.300  0.4844  0.5131 -0.1562
 9089WAT     H137076   2.692   3.727   5.248 -1.6923 -0.9112 -0.7100
 9089WAT     H237077   2.799   3.696   5.328  0.0136  2.8634 -1.3402
 9089WAT    EPW37078   2.730   3.678   5.296  0.0933  0.6499 -0.4129
 9090WAT      O37079   5.431   4.801   4.824 -0.2666  0.6046 -0.0231
 9090WAT     H137080   5.414   4.723   4.790  1.4386  0.2410 -0.1004
 9090WAT     H237081   5.497   4.831   4.775 -0.3256  1.7208  0.5527
 9090WAT    EPW37082   5.438   4.794   4.812 -0.0234  0.7158  0.0505
 9091WAT      O37083   3.172   5.460   1.832 -0.0567 -0.3114 -0.1236
 9091WAT     H137084   3.171   5.477   1.746 -1.0012  0.8591  0.0792
 9091WAT     H237085   3.254   5.434   1.847  0.6739  1.2232 -1.0881
 9091WAT    EPW37086   3.184   5.459   1.821 -0.0883  0.0882 -0.2361
 9092WAT      O37087   3.846   4.647   3.783  0.0218 -0.4756  0.4610
 9092WAT     H137088   3.925   4.621   3.810  0.1645 -1.2452 -0.6448
 9092WAT     H237089   3.793   4.619   3.847  0.6251 -0.0454  1.1621
 9092WAT    EPW37090   3.849   4.639   3.796  0.1320 -0.5258  0.4012
 9093WAT      O37091   4.346   2.463   3.956  0.0606  0.7115 -0.1820
 9093WAT     H137092   4.335   2.547   3.973 -1.9110  0.7531 -1.2743
 9093WAT     H237093   4.401   2.462   3.888  0.9033  1.0305  0.4810
 9093WAT    EPW37094   4.352   2.475   3.948 -0.1062  0.7648 -0.2454
 9094WAT      O37095   5.884   0.454   4.741 -0.2181  0.2529  0.1791
 9094WAT     H137096   5.908   0.373   4.761  1.8092  0.8108  0.2145
 9094WAT     H237097   5.882   0.494   4.819  1.5930  0.9003 -0.0681
 9094WAT    EPW37098   5.887   0.448   4.756  0.3489  0.4309  0.1478
 9095WAT      O37099   6.213   3.092   3.619 -0.2438 -0.3357  0.0246
 9095WAT     H137100   6.217   3.179   3.623  0.2507 -0.3943  1.0160
 9095WAT     H237101   6.278   3.066   3.670 -0.6138 -1.2995  0.0244
 9095WAT    EPW37102   6.223   3.101   3.627 -0.2254 -0.4867  0.1710
 9096WAT      O37103   6.653   5.502   4.750 -0.5409  0.0304  0.1801
 9096WAT     H137104   6.634   5.477   4.832 -0.2775  0.9496  0.5314
 9096WAT     H237105   6.730   5.463   4.735 -2.4007 -3.6726 -1.2378
 9096WAT    EPW37106   6.662   5.492   4.760 -0.7767 -0.3808  0.0226
 9097WAT      O37107   0.887   0.037   0.986 -0.3078  0.0055  0.1121
 9097WAT     H137108   0.905   0.048   1.071  1.3742 -2.4970  0.1929
 9097WAT     H237109   0.963   0.056   0.947  0.6260 -3.6803 -0.2456
 9097WAT    EPW37110   0.901   0.041   0.993  0.0786 -0.9086  0.0712
 9098WAT      O37111   5.210   4.450   2.612 -0.4100 -0.4583 -0.0916
 9098WAT     H137112   5.213   4.438   2.698 -1.3741  0.5380  0.1061
 9098WAT     H237113   5.161   4.522   2.603 -1.1533 -1.1001 -1.5111
 9098WAT    EPW37114   5.203   4.459   2.623 -0.6622 -0.4059 -0.2721
 9099WAT      O37115   0.573   4.997   5.497 -0.3498  0.2270  0.1161
 9099WAT     H137116   0.487   5.005   5.508 -0.4394 -0.2763 -0.1473
 9099WAT     H237117   0.587   4.911   5.508  0.0936  0.2847  0.0267
 9099WAT    EPW37118   0.563   4.985   5.500 -0.2975  0.1612  0.0640
 9100WAT      O37119   6.853   0.678   3.250 -0.4257 -0.2070 -0.2693
 9100WAT     H137120   6.804   0.750   3.243  0.7679  0.5899 -0.6565
 9100WAT     H237121   6.794   0.614   3.263 -1.4459  0.9847  1.3021
 9100WAT    EPW37122   6.837   0.679   3.251 -0.4001  0.0867 -0.0943
 9101WAT      O37123   5.052   5.916   6.963 -0.1787  0.1788 -0.2997
 9101WAT     H137124   4.993   5.852   6.966 -0.6974  0.6751  0.3664
 9101WAT     H237125   5.064   5.938   7.046  1.6682 -0.5440 -0.3311
 9101WAT    EPW37126   5.045   5.910   6.976  0.0175  0.1453 -0.2060
 9102WAT      O37127   0.605   2.416   6.518  0.4081  0.3432  0.2782
 9102WAT     H137128   0.547   2.482   6.517  0.0854  0.0772  0.7226
 9102WAT     H237129   0.591   2.378   6.596  0.6711 -0.1753  0.0771
 9102WAT    EPW37130   0.594   2.420   6.529  0.3993  0.2273  0.3141
 9103WAT      O37131   3.972   0.131   1.641 -0.0327  0.3626  0.6698
 9103WAT     H137132   3.989   0.202   1.690 -1.0779  1.3978 -0.3911
 9103WAT     H237133   4.024   0.141   1.572 -0.1036  0.0301  0.5690
 9103WAT    EPW37134   3.982   0.143   1.638 -0.1976  0.4664  0.4982
 9104WAT      O37135   0.147   7.168   0.730  0.6192  1.1380 -0.5115
 9104WAT     H137136   0.134   7.171   0.644 -1.4106 -0.5919 -0.3231
 9104WAT     H237137   0.092   7.107   0.758  1.2899  1.5693  2.0340
 9104WAT    EPW37138   0.137   7.160   0.721  0.4184  0.9462 -0.1076
 9105WAT      O37139   3.767   2.594   0.414  0.0446 -0.0148  0.3015
 9105WAT     H137140   3.749   2.513   0.438  0.8329 -0.2091  0.2807
 9105WAT     H237141   3.754   2.593   0.327  0.6630 -0.3053  0.2029
 9105WAT    EPW37142   3.762   2.582   0.405  0.2524 -0.0864  0.2839
 9106WAT      O37143   3.982   6.998   3.208  0.5404 -0.4848 -0.7207
 9106WAT     H137144   4.068   7.009   3.201  0.4782  1.1077  0.3802
 9106WAT     H237145   3.974   6.930   3.261  1.1485 -0.0863 -0.1013
 9106WAT    EPW37146   3.993   6.990   3.215  0.6210 -0.1907 -0.4665
 9107WAT      O37147   6.680   6.374   0.649 -0.3219 -0.2161 -0.4943
 9107WAT     H137148   6.699   6.449   0.689 -0.5574 -0.9741  1.1152
 9107WAT     H237149   6.689   6.393   0.565 -0.8043  1.7291 -0.1555
 9107WAT    EPW37150   6.684   6.388   0.643 -0.4280 -0.0407 -0.2065
 9108WAT      O37151   5.309   2.990   4.149  0.3260 -0.4892 -0.4918
 9108WAT     H137152   5.365   2.929   4.178  0.7216  0.1830  0.1790
 9108WAT     H237153   5.338   3.007   4.069  0.1277 -1.2770 -0.7444
 9108WAT    EPW37154   5.322   2.983   4.142  0.3552 -0.5063 -0.4300
 9109WAT      O37155   3.485   0.065   0.506  0.2086  0.1713  0.5913
 9109WAT     H137156   3.406   0.096   0.487  0.9846  0.9594 -1.6424
 9109WAT     H237157   3.524   0.131   0.548 -0.4171 -0.3902  2.1370
 9109WAT    EPW37158   3.479   0.079   0.510  0.2308  0.2048  0.4897
 9110WAT      O37159   5.865   2.138   5.401 -0.2016  0.5128 -0.1044
 9110WAT     H137160   5.847   2.143   5.487 -1.3613  0.2145 -0.3092
 9110WAT     H237161   5.809   2.078   5.372  0.2145  0.5763 -1.0720
 9110WAT    EPW37162   5.854   2.130   5.409 -0.3114  0.4781 -0.2776
 9111WAT      O37163   2.319   0.551   7.333  0.4694 -0.2753 -0.1824
 9111WAT     H137164   2.266   0.606   7.290  0.3298  1.6527  2.1837
 9111WAT     H237165   2.267   0.485   7.355 -0.9117  1.2520  1.4955
 9111WAT    EPW37166   2.304   0.550   7.330  0.2448  0.2351  0.4150
 9112WAT      O37167   7.110   4.165   3.806  0.0037  0.5118  0.0640
 9112WAT     H137168   7.052   4.105   3.829  0.9475  0.0404  1.3328
 9112WAT     H237169   7.079   4.239   3.841 -0.3744  0.4747 -0.1939
 9112WAT    EPW37170   7.097   4.167   3.814  0.0873  0.4367  0.2133
 9113WAT      O37171   5.899   4.100   0.018  0.0859  0.7655 -0.4513
 9113WAT     H137172   5.934   4.048   0.079  1.2753  1.2858 -0.6447
 9113WAT     H237173   5.826   4.130   0.055  0.1430  0.1031  0.2223
 9113WAT    EPW37174   5.894   4.096   0.032  0.2701  0.7445 -0.3804
 9114WAT      O37175   5.628   4.862   5.994  0.6048 -0.0377 -0.2415
 9114WAT     H137176   5.710   4.843   5.972 -0.1029 -1.3709 -1.9699
 9114WAT     H237177   5.584   4.854   5.919 -1.2141 -0.0422  0.7595
 9114WAT    EPW37178   5.634   4.858   5.980  0.2316 -0.2353 -0.3490
 9115WAT      O37179   3.157   6.992   1.797  0.0039 -0.2370 -0.1176
 9115WAT     H137180   3.226   6.987   1.744  0.4029 -0.4130  0.4190
 9115WAT     H237181   3.115   7.064   1.769  0.7338  0.2252 -0.0355
 9115WAT    EPW37182   3.161   7.002   1.785  0.1707 -0.1947 -0.0262
 9116WAT      O37183   2.219   1.021   6.167  0.5128 -0.3176 -0.1890
 9116WAT     H137184   2.203   1.104   6.189  2.7860  0.4058 -0.9944
 9116WAT     H237185   2.166   1.008   6.099 -0.4731  0.1776  0.4571
 9116WAT    EPW37186   2.209   1.032   6.160  0.7030 -0.1376 -0.2125
 9117WAT      O37187   0.057   0.160   5.373 -0.4361 -0.0889  0.4079
 9117WAT     H137188   0.063   0.158   5.286  0.1817 -0.9495  0.4569
 9117WAT     H237189   0.140   0.155   5.399 -0.5920  0.4735  1.0579
 9117WAT    EPW37190   0.070   0.159   5.364 -0.3679 -0.1330  0.5111
 9118WAT      O37191   2.228   7.050   2.504  0.2497  0.1695 -0.1265
 9118WAT     H137192   2.309   7.020   2.514  0.1516 -0.1705 -0.3587
 9118WAT     H237193   2.183   7.008   2.566  0.2975  0.5584  0.1822
 9118WAT    EPW37194   2.233   7.040   2.515  0.2422  0.1767 -0.1152
 9119WAT      O37195   0.233   1.972   2.398  0.3607 -0.1556 -0.1721
 9119WAT     H137196   0.320   1.972   2.406  0.4990 -1.2731 -1.4134
 9119WAT     H237197   0.218   2.027   2.332  0.0403  0.6719  0.5687
 9119WAT    EPW37198   0.244   1.980   2.390  0.3338 -0.1985 -0.2460
 9120WAT      O37199   7.174   3.785   6.489  0.0888 -0.4022 -0.0008
 9120WAT     H137200   7.233   3.849   6.483  0.5779 -0.8324  0.1968
 9120WAT     H237201   7.100   3.828   6.508  0.4146  0.1033  0.1558
 9120WAT    EPW37202   7.172   3.801   6.491  0.2092 -0.3911  0.0515
 9121WAT      O37203   4.580   0.080   4.358 -0.1347 -0.3914 -0.1827
 9121WAT     H137204   4.567   0.004   4.317 -1.3161  0.1377 -0.8252
 9121WAT     H237205   4.626   0.057   4.428 -0.0337 -1.6323 -0.6238
 9121WAT    EPW37206   4.585   0.066   4.362 -0.2943 -0.4966 -0.3428
 9122WAT      O37207   0.802   4.246   1.082 -0.0211  0.2508 -0.9960
 9122WAT     H137208   0.754   4.282   1.145  1.2196 -0.6389  0.5465
 9122WAT     H237209   0.884   4.271   1.101  0.7110 -2.0902 -0.6733
 9122WAT    EPW37210   0.807   4.255   1.094  0.2703 -0.2265 -0.7204
 9123WAT      O37211   1.563   5.053   5.547  0.1383 -0.0572 -0.4129
 9123WAT     H137212   1.514   5.118   5.578  1.0502  0.2459  0.4540
 9123WAT     H237213   1.507   4.987   5.538 -0.8312  0.8637 -1.4425
 9123WAT    EPW37214   1.548   5.053   5.550  0.1298  0.1236 -0.4369
 9124WAT      O37215   7.276   4.766   1.544  0.1145  0.0405 -0.1372
 9124WAT     H137216   7.293   4.834   1.595  0.8845 -0.2854  0.0504
 9124WAT     H237217   7.262   4.801   1.466  0.3345  0.4242 -0.0035
 9124WAT    EPW37218   7.276   4.781   1.540  0.2607  0.0491 -0.0897
 9125WAT      O37219   3.561   5.769   0.115  0.3717 -0.1170 -0.0526
 9125WAT     H137220   3.507   5.768   0.184  0.0604 -0.6305 -0.2960
 9125WAT     H237221   3.515   5.808   0.053  0.2447 -0.6130 -0.2791
 9125WAT    EPW37222   3.546   5.774   0.116  0.3070 -0.2661 -0.1220
 9126WAT      O37223   3.464   7.164   1.553 -0.1847  0.0337  0.4373
 9126WAT     H137224   3.551   7.172   1.550 -0.2763  2.0668  1.4508
 9126WAT     H237225   3.443   7.199   1.630 -1.9563  0.3840 -0.1631
 9126WAT    EPW37226   3.474   7.170   1.564 -0.4599  0.3858  0.4983
 9127WAT      O37227   5.810   3.269   2.734  0.1164  0.6793 -0.1047
 9127WAT     H137228   5.896   3.281   2.739  0.0483  2.0561 -1.5485
 9127WAT     H237229   5.803   3.200   2.680  0.3105 -0.6577  1.4978
 9127WAT    EPW37230   5.822   3.260   2.727  0.1350  0.6852 -0.0812
 9128WAT      O37231   6.649   1.454   6.662 -0.0479  0.0640 -0.8344
 9128WAT     H137232   6.628   1.393   6.604 -0.4682 -0.1692 -0.4434
 9128WAT     H237233   6.574   1.497   6.674  0.6543  1.9169 -2.5592
 9128WAT    EPW37234   6.635   1.452   6.655 -0.0063  0.3033 -1.0314
 9129WAT      O37235   0.959   5.477   5.915 -0.5086 -0.2759  0.2507
 9129WAT     H137236   0.959   5.519   5.991 -1.1856  1.6748 -0.7698
 9129WAT     H237237   0.942   5.394   5.937  2.5794 -0.4961  2.5201
 9129WAT    EPW37238   0.957   5.471   5.929 -0.1525 -0.0203  0.4352
 9130WAT      O37239   6.229   3.407   4.279 -0.8773 -0.1961  0.3414
 9130WAT     H137240   6.285   3.473   4.270 -0.6264 -0.5382 -0.7277
 9130WAT     H237241   6.278   3.336   4.267 -1.3743 -0.5300  0.2449
 9130WAT    EPW37242   6.244   3.407   4.276 -0.9137 -0.2959  0.1692
 9131WAT      O37243   1.279   1.998   1.281 -0.2824  0.2597 -0.5623
 9131WAT     H137244   1.315   1.922   1.304 -0.0698  0.5116 -0.0521
 9131WAT     H237245   1.346   2.045   1.251 -0.3638  0.3429 -0.6156
 9131WAT    EPW37246   1.294   1.994   1.280 -0.2630  0.3092 -0.4948
 9132WAT      O37247   4.882   2.818   6.397  0.1046 -0.3021  0.0028
 9132WAT     H137248   4.812   2.855   6.359  1.3457 -0.3452 -2.5671
 9132WAT     H237249   4.900   2.750   6.345  3.5355  1.1874 -1.0480
 9132WAT    EPW37250   4.875   2.813   6.384  0.7948 -0.0884 -0.5320
 9133WAT      O37251   4.764   3.194   3.777 -0.2431 -0.8729 -0.0826
 9133WAT     H137252   4.717   3.216   3.847 -0.1199 -1.5515  0.2165
 9133WAT     H237253   4.704   3.172   3.718 -0.3968  0.6685 -0.5524
 9133WAT    EPW37254   4.748   3.194   3.779 -0.2476 -0.7454 -0.1078
 9134WAT      O37255   5.568   1.117   3.681 -0.1050 -0.2678  0.7281
 9134WAT     H137256   5.584   1.202   3.691  0.4032 -0.0642 -1.3510
 9134WAT     H237257   5.484   1.115   3.657  0.1066 -0.2647 -0.0308
 9134WAT    EPW37258   5.558   1.129   3.679  0.0013 -0.2373  0.3088
 9135WAT      O37259   2.845   0.268   1.222  0.2813 -0.6406  0.1052
 9135WAT     H137260   2.781   0.309   1.266  0.6718 -1.3235  1.3730
 9135WAT     H237261   2.832   0.291   1.139  1.2942  3.1820  0.8413
 9135WAT    EPW37262   2.833   0.277   1.217  0.4886 -0.1768  0.4012
 9136WAT      O37263   5.471   0.886   5.616  0.9985 -0.0581  0.6022
 9136WAT     H137264   5.558   0.882   5.610  0.9857  0.5417 -0.0385
 9136WAT     H237265   5.454   0.972   5.620  0.4942 -0.1880  1.8070
 9136WAT    EPW37266   5.481   0.898   5.616  0.9221  0.0113  0.6855
 9137WAT      O37267   2.259   5.828   3.043 -0.0421  0.7566 -0.2954
 9137WAT     H137268   2.174   5.832   3.021 -0.2583 -2.0739 -0.3123
 9137WAT     H237269   2.259   5.838   3.129 -0.1779  2.3598 -0.4512
 9137WAT    EPW37270   2.246   5.830   3.052 -0.0941  0.5753 -0.3209
 9138WAT      O37271   4.512   1.586   7.137 -0.3427 -0.3989  0.1957
 9138WAT     H137272   4.523   1.661   7.179  1.7393 -0.2988 -0.4406
 9138WAT     H237273   4.466   1.609   7.066 -0.9646 -0.0028  0.7169
 9138WAT    EPW37274   4.507   1.600   7.132 -0.1270 -0.3256  0.1787
 9139WAT      O37275   7.136   6.115   6.125 -0.3414  0.0646  0.0283
 9139WAT     H137276   7.123   6.140   6.043 -0.6233  0.0688  0.0723
 9139WAT     H237277   7.076   6.053   6.137 -1.0512  0.8347  0.5748
 9139WAT    EPW37278   7.125   6.110   6.115 -0.4879  0.1790  0.1155
 9140WAT      O37279   5.391   1.916   5.903  0.0366 -0.5334  0.0374
 9140WAT     H137280   5.462   1.947   5.861  0.0932 -0.4289  0.2110
 9140WAT     H237281   5.421   1.899   5.983 -0.2054 -0.2273  0.1903
 9140WAT    EPW37282   5.406   1.918   5.908  0.0092 -0.4727  0.0856
 9141WAT      O37283   7.112   3.902   4.576  0.6398 -0.0032 -0.3528
 9141WAT     H137284   7.029   3.889   4.597  0.9299  1.7721  2.3261
 9141WAT     H237285   7.126   3.845   4.511 -1.9419 -2.1560  0.7853
 9141WAT    EPW37286   7.102   3.891   4.569  0.3013 -0.0590  0.2111
 9142WAT      O37287   3.372   6.989   6.598  0.0438  0.0111 -0.1887
 9142WAT     H137288   3.356   7.069   6.628  0.4015 -1.2093  3.7905
 9142WAT     H237289   3.412   7.003   6.522 -2.0615  3.4859 -0.8523
 9142WAT    EPW37290   3.375   7.003   6.591 -0.2144  0.3441  0.3011
 9143WAT      O37291   0.839   3.907   0.472 -0.0039 -0.2441 -0.4036
 9143WAT     H137292   0.851   3.862   0.546  0.7460 -1.2723 -1.1292
 9143WAT     H237293   0.835   3.989   0.499  1.0212 -0.5303  0.7150
 9143WAT    EPW37294   0.840   3.912   0.487  0.2583 -0.4382 -0.3455
 9144WAT      O37295   5.467   3.554   6.191 -0.4421 -0.1217 -0.0540
 9144WAT     H137296   5.460   3.532   6.107  1.4306 -0.4210 -0.1892
 9144WAT     H237297   5.386   3.576   6.214 -0.6794  1.9515 -2.4736
 9144WAT    EPW37298   5.454   3.554   6.182 -0.2005  0.1403 -0.4314
 9145WAT      O37299   0.402   1.894   0.542 -0.0015  0.2244  0.7128
 9145WAT     H137300   0.360   1.947   0.598  0.8257 -0.3383  1.9120
 9145WAT     H237301   0.342   1.879   0.480 -0.7672  1.3085  1.1546
 9145WAT    EPW37302   0.387   1.900   0.541  0.0076  0.3014  0.9552
 9146WAT      O37303   0.589   1.408   5.302 -0.3531 -0.1345  0.4009
 9146WAT     H137304   0.580   1.477   5.249  0.2847 -0.9842 -0.9004
 9146WAT     H237305   0.599   1.443   5.381 -2.3425  1.1622  0.1416
 9146WAT    EPW37306   0.589   1.423   5.306 -0.5527 -0.0684  0.1703
 9147WAT      O37307   2.545   1.027   7.106  0.4967  0.2864 -0.6272
 9147WAT     H137308   2.578   0.947   7.094  0.5667  0.3555 -0.9050
 9147WAT     H237309   2.603   1.066   7.158 -0.0660 -0.1872  0.3904
 9147WAT    EPW37310   2.558   1.021   7.112  0.4239  0.2266 -0.5179
 9148WAT      O37311   1.378   6.989   0.154  0.0665  0.2724 -0.1619
 9148WAT     H137312   1.398   6.933   0.091 -4.8914 -2.4953  0.2126
 9148WAT     H237313   1.326   7.048   0.115 -0.3727  0.4877  0.7104
 9148WAT    EPW37314   1.373   6.990   0.139 -0.7308 -0.1047  0.0223
 9149WAT      O37315   2.334   6.604   3.829  0.6692 -0.4736 -0.2917
 9149WAT     H137316   2.251   6.630   3.822  1.3156  2.4666  1.2698
 9149WAT     H237317   2.337   6.562   3.905  0.8624  0.7826  0.4154
 9149WAT    EPW37318   2.322   6.602   3.839  0.7932  0.1463  0.0434
 9150WAT      O37319   3.746   0.212   4.341 -0.5375  0.2832  0.1905
 9150WAT     H137320   3.673   0.198   4.386  0.0831 -0.5783  0.9650
 9150WAT     H237321   3.758   0.299   4.347 -1.7464  0.5085 -0.3817
 9150WAT    EPW37322   3.737   0.223   4.349 -0.6244  0.1892  0.2204
 9151WAT      O37323   3.004   0.914   1.739 -0.0139  0.4593  0.2115
 9151WAT     H137324   3.057   0.906   1.808  0.4900 -0.3586 -0.2445
 9151WAT     H237325   2.930   0.876   1.765 -0.6592  2.2502  1.1047
 9151WAT    EPW37326   3.001   0.907   1.753 -0.0348  0.6031  0.2761
 9152WAT      O37327   3.982   6.358   4.728  0.4040  0.1048  0.4042
 9152WAT     H137328   3.998   6.303   4.662 -0.6305  1.0396 -0.6750
 9152WAT     H237329   3.915   6.405   4.700  0.1390  0.7679  2.0126
 9152WAT    EPW37330   3.975   6.357   4.714  0.2120  0.3409  0.4823
 9153WAT      O37331   0.663   5.557   4.518  0.0739 -0.0400  0.5433
 9153WAT     H137332   0.747   5.572   4.532  0.1413  0.2373 -0.1071
 9153WAT     H237333   0.643   5.611   4.452 -1.1733  1.6016  2.1410
 9153WAT    EPW37334   0.672   5.567   4.510 -0.1003  0.2434  0.6833
 9154WAT      O37335   5.849   0.620   5.769 -0.4863 -0.1276  0.1780
 9154WAT     H137336   5.785   0.562   5.781 -0.9402  0.2506 -0.3404
 9154WAT     H237337   5.826   0.687   5.820 -0.4029 -0.0662  0.1347
 9154WAT    EPW37338   5.836   0.621   5.778 -0.5411 -0.0627  0.0951
 9155WAT      O37339   6.371   0.856   0.842  0.3382  0.0214  0.0552
 9155WAT     H137340   6.314   0.910   0.880  0.4193 -0.9589  1.6888
 9155WAT     H237341   6.444   0.903   0.840 -0.0461  0.6174 -0.2640
 9155WAT    EPW37342   6.373   0.871   0.848  0.2934 -0.0354  0.2494
 9156WAT      O37343   6.774   5.358   0.599 -0.1506 -0.4913 -0.1514
 9156WAT     H137344   6.798   5.440   0.583 -0.5441 -0.6195 -1.4725
 9156WAT     H237345   6.837   5.310   0.562  1.5387 -0.8588  2.8646
 9156WAT    EPW37346   6.787   5.363   0.592  0.0408 -0.5645  0.0990
 9157WAT      O37347   4.728   2.292   5.981 -0.1368  0.4352 -0.6247
 9157WAT     H137348   4.708   2.215   6.016 -1.8228  1.5460  1.0451
 9157WAT     H237349   4.664   2.344   6.009  1.4493  2.6659 -0.9019
 9157WAT    EPW37350   4.715   2.288   5.990 -0.1516  0.9288 -0.4190
 9158WAT      O37351   2.062   6.589   5.874 -0.2222 -0.4554  0.0773
 9158WAT     H137352   2.130   6.535   5.878  0.9441  0.9984  1.6972
 9158WAT     H237353   2.068   6.635   5.948 -1.6292  1.2874 -0.7992
 9158WAT    EPW37354   2.073   6.588   5.885 -0.2577  0.0168  0.1871
 9159WAT      O37355   6.665   0.267   7.391  0.6468  0.0720 -0.6255
 9159WAT     H137356   6.687   0.259   7.307 -1.3497  1.7813 -1.3955
 9159WAT     H237357   6.581   0.243   7.393  0.4667  0.7015  0.7512
 9159WAT    EPW37358   6.656   0.262   7.379  0.3253  0.4175 -0.5359
 9160WAT      O37359   0.311   6.307   4.700 -0.2512  0.2831  0.5338
 9160WAT     H137360   0.250   6.370   4.694 -1.2106 -0.7187 -0.7551
 9160WAT     H237361   0.386   6.350   4.685 -0.9068  1.0946 -0.5919
 9160WAT    EPW37362   0.313   6.323   4.697 -0.4898  0.2550  0.1771
 9161WAT      O37363   7.101   2.305   3.278 -0.1638 -0.5063 -0.1827
 9161WAT     H137364   7.142   2.247   3.329  2.6943  1.1215 -0.4242
 9161WAT     H237365   7.025   2.319   3.318  0.1445 -2.5117  1.2064
 9161WAT    EPW37366   7.096   2.298   3.291  0.3040 -0.5621 -0.0132
 9162WAT      O37367   6.901   5.205   7.076 -0.5266 -0.0649  0.9045
 9162WAT     H137368   6.954   5.152   7.032 -1.6710 -0.8253  0.3657
 9162WAT     H237369   6.951   5.238   7.139  0.1996 -1.9076  1.3454
 9162WAT    EPW37370   6.916   5.202   7.079 -0.5884 -0.4494  0.8900
 9163WAT      O37371   4.557   6.012   3.129 -0.1780  0.0082  0.4177
 9163WAT     H137372   4.560   5.934   3.089  1.6640  0.3052 -0.1201
 9163WAT     H237373   4.593   6.066   3.071  1.3065  0.7129  1.9247
 9163WAT    EPW37374   4.563   6.009   3.114  0.3134  0.1561  0.5609
 9164WAT      O37375   2.072   6.327   4.970  0.1091 -0.9235 -0.1665
 9164WAT     H137376   2.059   6.364   4.892  0.8511 -1.8074 -0.7216
 9164WAT     H237377   2.105   6.392   5.018  0.9851 -0.7391 -0.9988
 9164WAT    EPW37378   2.075   6.342   4.966  0.3481 -1.0268 -0.3715
 9165WAT      O37379   6.000   6.757   6.065  0.2489 -0.0377 -0.3073
 9165WAT     H137380   6.078   6.719   6.061  0.5607  0.6731 -1.3987
 9165WAT     H237381   6.011   6.822   6.121 -0.2852 -1.4586  1.5661
 9165WAT    EPW37382   6.013   6.761   6.073  0.2160 -0.1426 -0.1918
 9166WAT      O37383   7.272   4.347   2.787 -0.3714  0.3588 -0.1590
 9166WAT     H137384   7.276   4.434   2.790 -0.3942  0.3285  0.8026
 9166WAT     H237385   7.204   4.327   2.837  0.0503 -0.2426  0.1942
 9166WAT    EPW37386   7.263   4.357   2.795 -0.3125  0.2655  0.0352
 9167WAT      O37387   5.624   5.688   6.472  0.3914  0.1132  0.2974
 9167WAT     H137388   5.653   5.660   6.395  0.3657  0.1377  0.2790
 9167WAT     H237389   5.579   5.760   6.452  0.1719 -0.0208  0.3056
 9167WAT    EPW37390   5.622   5.694   6.458  0.3552  0.0970  0.2959
 9168WAT      O37391   6.729   4.377   0.979 -0.2170 -0.3335 -0.1907
 9168WAT     H137392   6.690   4.300   0.963  0.2280 -0.3677 -1.2032
 9168WAT     H237393   6.716   4.422   0.906  0.3708  0.1904  0.0180
 9168WAT    EPW37394   6.722   4.372   0.966 -0.0644 -0.2612 -0.3094
 9169WAT      O37395   5.180   2.863   4.682 -0.5601  0.0526 -0.7042
 9169WAT     H137396   5.260   2.868   4.717 -0.3393  0.1104 -1.2125
 9169WAT     H237397   5.186   2.911   4.610 -1.0179 -0.0544 -0.8182
 9169WAT    EPW37398   5.193   2.871   4.677 -0.5951  0.0453 -0.7961
 9170WAT      O37399   0.988   4.326   1.945 -0.3820 -0.6031  0.5197
 9170WAT     H137400   0.901   4.313   1.939 -0.8256  1.3605  1.8360
 9170WAT     H237401   1.009   4.364   1.870 -0.8653 -0.1349  0.6183
 9170WAT    EPW37402   0.978   4.330   1.933 -0.5190 -0.2439  0.7287
 9171WAT      O37403   1.040   2.326   5.080  0.3708  0.4027 -0.2908
 9171WAT     H137404   1.033   2.265   5.018 -0.4975 -0.1135  0.2925
 9171WAT     H237405   0.974   2.308   5.134  1.0999  0.8628  0.7807
 9171WAT    EPW37406   1.029   2.314   5.078  0.3502  0.3944 -0.0464
 9172WAT      O37407   1.833   2.953   5.214 -0.0113 -0.2742 -0.0222
 9172WAT     H137408   1.873   3.008   5.160  0.1776 -1.8583 -1.5987
 9172WAT     H237409   1.890   2.944   5.280  0.5057  0.4164 -0.3581
 9172WAT    EPW37410   1.848   2.960   5.216  0.0930 -0.4062 -0.3047
 9173WAT      O37411   0.460   2.981   0.764 -1.0441  0.7946 -0.1751
 9173WAT     H137412   0.526   2.972   0.707 -0.5391 -0.7404  0.5687
 9173WAT     H237413   0.463   3.065   0.786 -1.0325  1.3493 -2.1108
 9173WAT    EPW37414   0.470   2.992   0.759 -0.9677  0.6498 -0.3512
 9174WAT      O37415   4.693   6.113   0.723  0.8659  0.4134  0.4827
 9174WAT     H137416   4.649   6.102   0.798 -3.6187 -1.8252 -2.0912
 9174WAT     H237417   4.652   6.180   0.685  1.4376 -0.0632 -1.0210
 9174WAT    EPW37418   4.681   6.122   0.729  0.2879  0.0123 -0.1197
 9175WAT      O37419   2.332   0.845   1.571  0.3928 -0.5640 -0.1762
 9175WAT     H137420   2.267   0.853   1.628  0.2789  1.8692 -0.5182
 9175WAT     H237421   2.403   0.838   1.621  0.2193  0.7607  0.2882
 9175WAT    EPW37422   2.333   0.845   1.587  0.3503 -0.0089 -0.1582
 9176WAT      O37423   6.005   1.905   3.853 -0.6376 -1.1821  0.2897
 9176WAT     H137424   5.958   1.834   3.832  0.5514 -2.8823  2.8696
 9176WAT     H237425   5.955   1.946   3.912 -1.0345 -0.1348 -0.7233
 9176WAT    EPW37426   5.991   1.901   3.859 -0.5206 -1.2786  0.5212
 9177WAT      O37427   0.340   2.285   0.747 -0.4593  0.0896  0.1291
 9177WAT     H137428   0.337   2.353   0.802 -1.0703  0.5359 -0.4355
 9177WAT     H237429   0.416   2.295   0.705 -0.6363  0.5543 -0.0928
 9177WAT    EPW37430   0.350   2.297   0.749 -0.5757  0.2242  0.0129
 9178WAT      O37431   5.816   4.534   5.313 -0.4224  0.1506 -0.3685
 9178WAT     H137432   5.783   4.568   5.240  0.6925  0.5054 -0.7324
 9178WAT     H237433   5.770   4.574   5.376 -0.7573  0.5493 -0.8548
 9178WAT    EPW37434   5.804   4.545   5.312 -0.3072  0.2619 -0.4941
 9179WAT      O37435   0.394   6.440   5.600 -0.1958  0.2899  0.0388
 9179WAT     H137436   0.470   6.451   5.643 -0.6763  1.5503  0.6039
 9179WAT     H237437   0.418   6.400   5.526  0.5759 -2.9531  1.8185
 9179WAT    EPW37438   0.409   6.435   5.596 -0.1528 -0.0030  0.3852
 9180WAT      O37439   4.192   4.491   4.075 -0.4972 -0.4471 -0.1976
 9180WAT     H137440   4.249   4.430   4.098 -3.0561 -2.6546  0.8266
 9180WAT     H237441   4.175   4.473   3.992 -1.6148 -1.5840  0.2328
 9180WAT    EPW37442   4.198   4.479   4.066 -1.0403 -0.9411  0.0172
 9181WAT      O37443   6.605   5.972   0.025 -0.0043 -0.2164  0.1815
 9181WAT     H137444   6.572   5.906   0.073 -0.2546  0.7399  1.3722
 9181WAT     H237445   6.647   5.931  -0.039  0.4971 -1.5680  1.3268
 9181WAT    EPW37446   6.606   5.956   0.023  0.0328 -0.2748  0.5266
 9182WAT      O37447   3.364   0.914   5.612 -0.2789  0.4054  0.4042
 9182WAT     H137448   3.404   0.983   5.647  2.4662 -0.8508 -0.0364
 9182WAT     H237449   3.320   0.949   5.545  1.8526  1.6770 -0.4517
 9182WAT    EPW37450   3.363   0.930   5.607  0.4415  0.4077  0.2127
 9183WAT      O37451   6.400   3.200   6.365 -0.0565  0.4069 -0.3227
 9183WAT     H137452   6.376   3.272   6.322  1.9795  0.8667 -0.8122
 9183WAT     H237453   6.431   3.148   6.302  0.0568 -0.1989  0.2212
 9183WAT    EPW37454   6.401   3.203   6.350  0.2610  0.3853 -0.3147
 9184WAT      O37455   6.279   3.190   6.045  0.3953 -0.3972  0.5032
 9184WAT     H137456   6.300   3.270   6.018  0.9807 -0.1547  1.6332
 9184WAT     H237457   6.195   3.182   6.022  0.4826  0.3216 -0.0922
 9184WAT    EPW37458   6.270   3.200   6.038  0.4947 -0.2552  0.5822
 9185WAT      O37459   6.440   5.902   0.703  0.1900 -0.1375 -0.7724
 9185WAT     H137460   6.470   5.851   0.767  1.2032 -0.3879 -1.4285
 9185WAT     H237461   6.461   5.982   0.729 -0.4799 -0.1312 -0.2277
 9185WAT    EPW37462   6.447   5.906   0.716  0.2407 -0.1736 -0.7888
 9186WAT      O37463   2.747   0.477   5.386 -0.4579 -0.5599  0.0331
 9186WAT     H137464   2.818   0.437   5.417  0.8377 -0.1990 -2.2903
 9186WAT     H237465   2.725   0.428   5.318 -1.1636  0.5345 -0.5487
 9186WAT    EPW37466   2.754   0.464   5.381 -0.3707 -0.3449 -0.3960
 9187WAT      O37467   3.258   3.577   7.329  0.8568  0.1027  0.1682
 9187WAT     H137468   3.281   3.559   7.246  0.1593  1.6302 -0.3829
 9187WAT     H237469   3.320   3.537   7.376  0.9530 -1.2743 -1.0460
 9187WAT    EPW37470   3.271   3.568   7.324  0.7680  0.1249 -0.0926
 9188WAT      O37471   2.869   1.015   7.016 -0.0970 -0.2783 -0.2049
 9188WAT     H137472   2.849   1.068   6.949  1.8161 -0.9300 -1.3609
 9188WAT     H237473   2.934   0.966   6.985  0.1213 -1.3548  1.7996
 9188WAT    EPW37474   2.875   1.016   7.001  0.2179 -0.5336 -0.0796
 9189WAT      O37475   2.992   7.047   3.064 -0.0703  0.0290 -0.1774
 9189WAT     H137476   2.993   6.987   3.128  1.1743  0.7662  0.5313
 9189WAT     H237477   2.960   7.003   2.996  0.4053 -1.3272  0.4284
 9189WAT    EPW37478   2.987   7.032   3.063  0.1838 -0.0625  0.0168
 9190WAT      O37479   1.510   7.026   0.851  0.4781 -0.2218 -0.0186
 9190WAT     H137480   1.498   6.988   0.773  0.5928  0.3549 -0.3175
 9190WAT     H237481   1.554   7.098   0.833 -0.1678  0.3145  0.4939
 9190WAT    EPW37482   1.515   7.031   0.837  0.3996 -0.0574  0.0129
 9191WAT      O37483   5.006   5.607   4.615  0.5315 -0.1690  0.5647
 9191WAT     H137484   5.015   5.602   4.702  0.6183 -1.1307  0.5171
 9191WAT     H237485   4.971   5.686   4.602  1.2100  0.2800  1.4118
 9191WAT    EPW37486   5.002   5.618   4.626  0.6446 -0.2447  0.6828
 9192WAT      O37487   2.174   4.549   4.358  0.4201 -0.5763 -0.2514
 9192WAT     H137488   2.212   4.472   4.372  1.3417 -0.6022 -2.5502
 9192WAT     H237489   2.090   4.530   4.346  0.4752 -1.0929  0.1675
 9192WAT    EPW37490   2.167   4.535   4.358  0.5644 -0.6564 -0.5291
 9193WAT      O37491   4.645   2.504   0.328  0.1464  0.4540  0.0745
 9193WAT     H137492   4.693   2.504   0.256 -1.0140 -3.1306 -0.8857
 9193WAT     H237493   4.569   2.539   0.303 -0.2396 -0.7488 -0.5087
 9193WAT    EPW37494   4.641   2.509   0.314 -0.0820 -0.2532 -0.1535
 9194WAT      O37495   1.103   5.506   2.019  0.2111 -0.1459 -0.1170
 9194WAT     H137496   1.139   5.491   2.097  1.7859  0.6872 -0.6415
 9194WAT     H237497   1.023   5.534   2.039  0.0671 -1.3028  1.1270
 9194WAT    EPW37498   1.096   5.508   2.034  0.4225 -0.1937 -0.0107
 9195WAT      O37499   0.750   0.182   0.163  0.1840  0.1113 -0.3187
 9195WAT     H137500   0.745   0.109   0.209 -1.3829  0.7298  0.5874
 9195WAT     H237501   0.833   0.207   0.172  0.4599 -0.9781  0.2581
 9195WAT    EPW37502   0.761   0.175   0.171 -0.0067  0.0418 -0.0997
 9196WAT      O37503   5.012   3.036   2.537 -0.0581  0.1775 -1.0184
 9196WAT     H137504   5.022   3.112   2.496  1.0184  1.4333  1.3955
 9196WAT     H237505   4.990   3.059   2.618  1.1291 -2.0429  0.0153
 9196WAT    EPW37506   5.010   3.051   2.543  0.2763  0.0350 -0.5091
 9197WAT      O37507   5.264   2.456   0.485  0.1221 -0.2989  0.0936
 9197WAT     H137508   5.180   2.473   0.471 -0.1852 -1.1584  0.8129
 9197WAT     H237509   5.301   2.467   0.406 -0.8923 -1.2197 -0.5396
 9197WAT    EPW37510   5.257   2.460   0.471 -0.0731 -0.5619  0.1063
 9198WAT      O37511   2.871   0.653   4.559  0.5832 -0.0382 -0.4139
 9198WAT     H137512   2.812   0.589   4.551  1.7359 -1.0196 -1.7043
 9198WAT     H237513   2.826   0.725   4.540  0.0572 -0.9174 -2.9234
 9198WAT    EPW37514   2.855   0.654   4.555  0.6758 -0.3130 -0.9752
 9199WAT      O37515   0.157   6.358   7.077 -0.4372 -0.0907  0.6658
 9199WAT     H137516   0.222   6.316   7.038  0.4867  0.8197  1.1754
 9199WAT     H237517   0.107   6.294   7.108 -0.3743 -0.8154 -0.6546
 9199WAT    EPW37518   0.159   6.343   7.076 -0.2914 -0.0633  0.5460
 9200WAT      O37519   6.908   3.401   5.195 -0.3106  0.0504  0.0342
 9200WAT     H137520   6.986   3.429   5.220  0.1551 -0.6392 -0.6126
 9200WAT     H237521   6.902   3.428   5.113  0.1921 -1.7653 -0.6414
 9200WAT    EPW37522   6.918   3.409   5.187 -0.1676 -0.3197 -0.1612
 9201WAT      O37523   5.840   4.432   3.983  0.0060  0.3752 -0.0297
 9201WAT     H137524   5.919   4.437   3.947  0.7769 -0.7213  1.4231
 9201WAT     H237525   5.848   4.477   4.057 -0.3960 -0.6304  0.6482
 9201WAT    EPW37526   5.853   4.440   3.988  0.0605  0.0647  0.2850
 9202WAT      O37527   4.585   6.428   1.572 -0.2301  0.2597 -0.2050
 9202WAT     H137528   4.606   6.511   1.558  0.7836 -0.0019 -0.3065
 9202WAT     H237529   4.633   6.406   1.642 -0.9897 -0.0488  0.2272
 9202WAT    EPW37530   4.595   6.437   1.580 -0.1926  0.1755 -0.1562
 9203WAT      O37531   7.123   5.876   6.898 -0.4001  0.4145 -0.0925
 9203WAT     H137532   7.195   5.835   6.924  1.2588  2.3070 -1.3886
 9203WAT     H237533   7.100   5.833   6.826 -1.0748 -0.6851  0.7528
 9203WAT    EPW37534   7.130   5.864   6.891 -0.2547  0.5316 -0.1591
 9204WAT      O37535   0.620   3.160   4.122 -0.8048  0.0707  0.2988
 9204WAT     H137536   0.630   3.209   4.194 -0.1135  1.2763 -0.5714
 9204WAT     H237537   0.546   3.117   4.137 -0.9248  0.6528  1.5345
 9204WAT    EPW37538   0.611   3.161   4.135 -0.7204  0.3348  0.3528
 9205WAT      O37539   3.389   5.132   4.282  0.9740 -0.1539  0.6707
 9205WAT     H137540   3.347   5.059   4.259 -0.1564  1.0682 -1.6255
 9205WAT     H237541   3.471   5.107   4.294  0.9782 -1.6019 -1.7281
 9205WAT    EPW37542   3.395   5.118   4.280  0.8076 -0.1873 -0.0228
 9206WAT      O37543   7.145   2.585   5.828 -0.0443  0.1688  0.2114
 9206WAT     H137544   7.144   2.499   5.843  1.2439  0.1541  0.3107
 9206WAT     H237545   7.079   2.597   5.772 -0.8451 -0.7328  0.9341
 9206WAT    EPW37546   7.135   2.574   5.822  0.0277  0.0334  0.3328
 9207WAT      O37547   2.475   4.192   7.038  0.0290  0.2095 -0.3359
 9207WAT     H137548   2.460   4.109   7.061 -0.1975  0.3391 -0.0121
 9207WAT     H237549   2.444   4.196   6.956  0.6839 -0.2088 -0.6125
 9207WAT    EPW37550   2.468   4.180   7.029  0.0923  0.1668 -0.3289
 9208WAT      O37551   0.443   0.009   5.864  0.3456 -0.5370  0.1937
 9208WAT     H137552   0.513  -0.025   5.902  1.8372  1.6220 -0.3998
 9208WAT     H237553   0.461   0.095   5.860 -1.3684 -0.1669 -1.9282
 9208WAT    EPW37554   0.456   0.017   5.869  0.3127 -0.1634 -0.2074
 9209WAT      O37555   6.551   6.994   4.755  0.1205 -0.0327 -0.1422
 9209WAT     H137556   6.539   6.916   4.792 -1.8360  0.2096 -0.1747
 9209WAT     H237557   6.486   7.043   4.786  1.2186  1.5892 -0.2116
 9209WAT    EPW37558   6.540   6.990   4.765 -0.0063  0.2427 -0.1572
 9210WAT      O37559   6.401   7.215   2.878 -0.0617  0.7876  0.5487
 9210WAT     H137560   6.472   7.210   2.829 -1.0583  0.4514 -0.9355
 9210WAT     H237561   6.385   7.300   2.883  0.7758  0.9124  1.4395
 9210WAT    EPW37562   6.409   7.227   2.871 -0.0852  0.7563  0.4610
 9211WAT      O37563   1.950   3.232   1.900  0.5829 -0.3985  0.1605
 9211WAT     H137564   1.882   3.184   1.924  0.9012 -0.5844  0.7073
 9211WAT     H237565   2.019   3.186   1.927  0.9568 -0.6011 -1.0997
 9211WAT    EPW37566   1.950   3.218   1.908  0.6851 -0.4559  0.0551
 9212WAT      O37567   2.450   3.376   5.421  0.2593  0.3660  0.2140
 9212WAT     H137568   2.435   3.306   5.472  1.3026  1.2265  1.7857
 9212WAT     H237569   2.462   3.441   5.478 -0.0164  1.7081 -1.1940
 9212WAT    EPW37570   2.450   3.375   5.437  0.3727  0.6914  0.2382
 9213WAT      O37571   4.242   2.012   3.662  0.4595  0.5395 -0.0479
 9213WAT     H137572   4.301   1.963   3.620 -0.8793 -0.5988 -0.6999
 9213WAT     H237573   4.170   1.963   3.660 -0.7677  2.2590 -0.0944
 9213WAT    EPW37574   4.240   1.998   3.656  0.0805  0.6254 -0.1511
 9214WAT      O37575   7.161   5.160   5.989 -0.4338 -0.2958 -0.1849
 9214WAT     H137576   7.117   5.233   5.972  0.4085 -0.0717 -1.4839
 9214WAT     H237577   7.127   5.102   5.933  1.5111  0.1216 -1.8911
 9214WAT    EPW37578   7.149   5.162   5.978 -0.0221 -0.2011 -0.6289
 9215WAT      O37579   6.118   1.034   2.486  0.0618 -0.6614 -0.0579
 9215WAT     H137580   6.187   1.049   2.434  1.5350  0.1309  2.0028
 9215WAT     H237581   6.099   0.950   2.471 -0.3350 -0.1881 -2.6706
 9215WAT    EPW37582   6.126   1.024   2.476  0.2208 -0.4744 -0.1395
 9216WAT      O37583   2.696   3.135   1.411 -0.8328  0.0166  0.7928
 9216WAT     H137584   2.628   3.118   1.359 -1.6954  1.7824  1.2531
 9216WAT     H237585   2.681   3.217   1.437  2.3145  1.0974 -0.3448
 9216WAT    EPW37586   2.684   3.145   1.407 -0.4953  0.4371  0.6928
 9217WAT      O37587   2.427   7.029   6.305  0.1638 -0.4304  0.0706
 9217WAT     H137588   2.493   6.971   6.297  1.0423  0.4666  0.5836
 9217WAT     H237589   2.443   7.087   6.242  1.5813  1.3637  1.9227
 9217WAT    EPW37590   2.439   7.029   6.295  0.5030 -0.0329  0.4200
 9218WAT      O37591   0.229   1.093   1.072  0.2374 -0.7354  0.2091
 9218WAT     H137592   0.314   1.082   1.088  0.5735 -0.7224 -1.3867
 9218WAT     H237593   0.211   1.030   1.014 -0.6237 -0.1543 -0.1638
 9218WAT    EPW37594   0.239   1.082   1.066  0.1599 -0.6477 -0.0817
 9219WAT      O37595   2.102   2.789   4.877  0.1656 -0.0544  0.3662
 9219WAT     H137596   2.143   2.747   4.812 -1.8937 -1.4504 -0.1714
 9219WAT     H237597   2.162   2.794   4.940  1.3972 -1.2341 -0.6414
 9219WAT    EPW37598   2.117   2.783   4.877  0.0433 -0.4349  0.1380
 9220WAT      O37599   0.960   0.134   1.272 -0.3633 -0.4587 -0.4812
 9220WAT     H137600   0.967   0.209   1.315 -2.8484  0.2266 -1.1040
 9220WAT     H237601   0.938   0.077   1.334  2.4880 -0.9799  0.1651
 9220WAT    EPW37602   0.958   0.137   1.288 -0.3092 -0.4344 -0.4777
 9221WAT      O37603   2.497   4.451   6.872 -0.0738  0.0872  0.0365
 9221WAT     H137604   2.447   4.462   6.942  0.2656 -0.4801  0.3831
 9221WAT     H237605   2.530   4.530   6.857  0.7915 -0.0058  1.2561
 9221WAT    EPW37606   2.495   4.464   6.880  0.1041 -0.0103  0.2678
 9222WAT      O37607   5.108   0.651   4.163  0.1640 -0.7423  0.0169
 9222WAT     H137608   5.165   0.677   4.224 -0.6532 -0.3417  0.6339
 9222WAT     H237609   5.067   0.725   4.141 -1.3600 -1.2521  0.9165
 9222WAT    EPW37610   5.110   0.666   4.169 -0.1818 -0.7584  0.2409
 9223WAT      O37611   5.551   4.197   6.760  0.4498  0.6440  0.6268
 9223WAT     H137612   5.588   4.210   6.682  0.5593  0.1014  0.5815
 9223WAT     H237613   5.503   4.268   6.772 -0.6841  0.1269 -0.5721
 9223WAT    EPW37614   5.549   4.210   6.750  0.2985  0.4875  0.4430
 9224WAT      O37615   3.982   6.180   1.201 -0.1853 -0.5721  0.0155
 9224WAT     H137616   4.063   6.186   1.169 -0.3822 -0.0576 -0.4011
 9224WAT     H237617   3.946   6.257   1.182 -0.8199 -0.8428  0.0692
 9224WAT    EPW37618   3.989   6.192   1.194 -0.3081 -0.5361 -0.0381
 9225WAT      O37619   5.743   1.893   1.677 -0.1322 -0.5532  0.4710
 9225WAT     H137620   5.674   1.842   1.695  0.7038 -2.0279 -0.2859
 9225WAT     H237621   5.777   1.856   1.606 -0.0563  1.7034 -0.7429
 9225WAT    EPW37622   5.738   1.880   1.669  0.0025 -0.4377  0.1799
 9226WAT      O37623   0.034   3.141   3.883  0.2346 -0.0344  0.2511
 9226WAT     H137624   0.003   3.215   3.917  0.2571  0.3944 -0.6477
 9226WAT     H237625  -0.039   3.096   3.865  0.2278 -0.4348  1.2011
 9226WAT    EPW37626   0.018   3.145   3.885  0.2369 -0.0302  0.2587
 9227WAT      O37627   0.994   2.021   5.480 -0.4041 -0.2514 -0.0990
 9227WAT     H137628   0.995   1.958   5.419 -1.1755 -0.4427  0.0812
 9227WAT     H237629   0.930   2.074   5.453  0.8730  1.0072 -0.7886
 9227WAT    EPW37630   0.985   2.019   5.467 -0.3294 -0.0937 -0.1743
 9228WAT      O37631   0.955   6.839   6.827  0.1073  0.0261 -0.4092
 9228WAT     H137632   0.921   6.811   6.751 -2.6559 -1.4988  1.1959
 9228WAT     H237633   1.022   6.785   6.840  0.2485 -0.0868 -1.4890
 9228WAT    EPW37634   0.960   6.827   6.818 -0.2801 -0.2159 -0.3316
 9229WAT      O37635   0.424   0.686   2.027 -0.1134  0.7145 -0.0370
 9229WAT     H137636   0.466   0.694   2.103 -1.2244  0.0798  0.6812
 9229WAT     H237637   0.467   0.739   1.973  0.4864  1.4422  1.1323
 9229WAT    EPW37638   0.437   0.695   2.030 -0.1889  0.7282  0.2418
 9230WAT      O37639   3.648   0.982   4.882 -0.4131  0.0542 -0.1262
 9230WAT     H137640   3.706   1.043   4.904 -1.2734  0.2765  1.7491
 9230WAT     H237641   3.657   0.975   4.796  1.3876  1.0871 -0.0650
 9230WAT    EPW37642   3.658   0.990   4.873 -0.2742  0.2396  0.1599
 9231WAT      O37643   6.399   6.436   1.541  0.4452 -0.3772  0.2002
 9231WAT     H137644   6.315   6.456   1.530  0.1505 -0.6427  1.8105
 9231WAT     H237645   6.439   6.481   1.478 -0.8978 -0.2664 -0.6063
 9231WAT    EPW37646   6.393   6.446   1.530  0.2033 -0.4001  0.3189
 9232WAT      O37647   3.765   1.616   0.683  0.1235 -0.4953 -0.2654
 9232WAT     H137648   3.704   1.678   0.682 -0.4231 -0.9328  1.6587
 9232WAT     H237649   3.816   1.638   0.750  0.2728 -1.7633  0.0763
 9232WAT    EPW37650   3.763   1.628   0.693  0.0648 -0.7472  0.0693
 9233WAT      O37651   3.052   3.239   4.004  0.0157  0.4244  0.3249
 9233WAT     H137652   3.080   3.313   3.967 -1.8687  0.8785 -0.3058
 9233WAT     H237653   3.126   3.195   4.021  1.1347  2.1335  0.0739
 9233WAT    EPW37654   3.067   3.243   4.001 -0.0974  0.7439  0.1947
 9234WAT      O37655   0.859   1.300   5.267  0.1138  0.0415  0.4433
 9234WAT     H137656   0.881   1.271   5.347 -0.4266 -0.5577  0.3825
 9234WAT     H237657   0.779   1.334   5.279  0.2495  0.4320  0.2610
 9234WAT    EPW37658   0.850   1.301   5.281  0.0540  0.0107  0.4074
 9235WAT      O37659   5.381   1.311   0.036 -0.2068 -0.1901  0.0883
 9235WAT     H137660   5.343   1.355  -0.029  1.8211  0.7674 -0.5583
 9235WAT     H237661   5.387   1.230   0.005 -0.9442 -0.1736 -0.1179
 9235WAT    EPW37662   5.377   1.306   0.022 -0.0161 -0.0462 -0.0377
 9236WAT      O37663   6.393   5.360   6.953 -0.4457  0.1918 -0.3240
 9236WAT     H137664   6.461   5.312   6.981 -2.1962 -2.6390 -0.5104
 9236WAT     H237665   6.379   5.416   7.019 -1.6136 -3.2588  2.7015
 9236WAT    EPW37666   6.401   5.361   6.967 -0.8768 -0.7361  0.0954
 9237WAT      O37667   7.210   1.644   4.041 -0.0654  0.4234 -0.0991
 9237WAT     H137668   7.140   1.638   3.989 -1.8868  2.3978  1.8663
 9237WAT     H237669   7.190   1.590   4.107  0.3922  0.7551  0.3169
 9237WAT    EPW37670   7.197   1.635   4.043 -0.2669  0.7641  0.2527
 9238WAT      O37671   2.282   6.885   5.961 -0.3851  0.2025  0.0987
 9238WAT     H137672   2.227   6.845   6.015  0.4767 -1.1405  0.0188
 9238WAT     H237673   2.234   6.897   5.889 -1.1694  0.9145  0.7102
 9238WAT    EPW37674   2.267   6.881   5.958 -0.3736  0.1093  0.1772
 9239WAT      O37675   4.096   2.109   1.103 -0.2704  0.2660 -0.3522
 9239WAT     H137676   4.133   2.139   1.029 -0.5433  0.0950 -0.5588
 9239WAT     H237677   4.086   2.024   1.087  0.9538 -0.0540  0.4204
 9239WAT    EPW37678   4.100   2.101   1.089 -0.1299  0.1935 -0.2686
 9240WAT      O37679   1.364   5.669   0.125 -0.1269 -0.7549  0.2864
 9240WAT     H137680   1.353   5.635   0.045 -2.0272  0.7854 -0.2013
 9240WAT     H237681   1.412   5.609   0.167  1.4741 -1.3368 -2.1584
 9240WAT    EPW37682   1.369   5.655   0.119 -0.1711 -0.6134 -0.1468
 9241WAT      O37683   0.796   6.846   3.215  0.2156  0.0565 -0.4012
 9241WAT     H137684   0.778   6.928   3.241 -0.3836 -0.3627  0.5569
 9241WAT     H237685   0.883   6.846   3.207  0.3411  0.4768  0.7392
 9241WAT    EPW37686   0.806   6.858   3.218  0.1456  0.0567 -0.0912
 9242WAT      O37687   2.239   4.582   1.862  0.1167  0.4787 -0.5460
 9242WAT     H137688   2.177   4.582   1.923  2.1582  0.4371  1.6319
 9242WAT     H237689   2.296   4.522   1.889 -0.9112 -2.9617 -4.8243
 9242WAT    EPW37690   2.238   4.573   1.875  0.2664 -0.0356 -0.8562
 9243WAT      O37691   0.893   5.944   0.447 -0.0731  0.0543  0.5131
 9243WAT     H137692   0.971   5.906   0.448 -0.2823 -0.4831 -0.9434
 9243WAT     H237693   0.899   6.004   0.383 -0.8262  0.0403  0.4138
 9243WAT    EPW37694   0.905   5.947   0.438 -0.2153 -0.0271  0.2833
 9244WAT      O37695   5.916   7.183   5.394  0.0626 -0.2507  0.2954
 9244WAT     H137696   5.927   7.186   5.308  0.0831 -1.5544  0.2344
 9244WAT     H237697   5.838   7.220   5.406  0.3594  0.5657 -0.1947
 9244WAT    EPW37698   5.906   7.189   5.383  0.1095 -0.3227  0.2140
 9245WAT      O37699   2.746   3.420   1.412 -0.2215 -0.0482  0.3426
 9245WAT     H137700   2.787   3.425   1.335 -0.0807 -1.2097  0.3269
 9245WAT     H237701   2.810   3.398   1.468 -0.7019 -1.4099  0.3961
 9245WAT    EPW37702   2.762   3.418   1.409 -0.2717 -0.4210  0.3482
 9246WAT      O37703   7.168   3.703   1.781  0.5621 -0.3070  0.0744
 9246WAT     H137704   7.244   3.681   1.744  0.6699 -0.1977  0.2302
 9246WAT     H237705   7.177   3.789   1.795  0.9717 -0.5429  1.3907
 9246WAT    EPW37706   7.181   3.712   1.778  0.6385 -0.3257  0.2918
 9247WAT      O37707   4.866   3.520   2.320  0.2229  0.1079  0.1867
 9247WAT     H137708   4.870   3.457   2.380  0.5141  0.5967  0.6836
 9247WAT     H237709   4.867   3.476   2.244  0.9698 -0.4605  0.5178
 9247WAT    EPW37710   4.867   3.504   2.317  0.3763  0.0962  0.3090
 9248WAT      O37711   2.597   4.832   0.140  0.0889 -0.0217  0.3217
 9248WAT     H137712   2.593   4.915   0.114  0.1720 -0.4669 -1.1960
 9248WAT     H237713   2.530   4.795   0.098  0.6105 -0.9047  0.2518
 9248WAT    EPW37714   2.586   4.839   0.130  0.1783 -0.2179  0.0871
 9249WAT      O37715   1.383   0.009   4.526 -0.0805 -0.6577  0.0378
 9249WAT     H137716   1.303   0.018   4.561 -0.3431 -1.9327 -0.1925
 9249WAT     H237717   1.414   0.091   4.525 -2.2040  0.2088 -1.8673
 9249WAT    EPW37718   1.376   0.022   4.531 -0.4329 -0.7180 -0.2776
 9250WAT      O37719   4.776   4.854   0.799 -0.7186  0.9907  0.1427
 9250WAT     H137720   4.693   4.878   0.810 -0.3812  2.1418  0.3721
 9250WAT     H237721   4.820   4.906   0.854 -0.0853 -1.7517  2.4476
 9250WAT    EPW37722   4.771   4.865   0.809 -0.5752  0.7556  0.5171
 9251WAT      O37723   3.071   2.620   2.248  0.2982  0.1390  0.3322
 9251WAT     H137724   3.072   2.643   2.333 -2.1261  1.1541  0.1843
 9251WAT     H237725   3.004   2.667   2.216 -0.2097 -1.8186 -1.6808
 9251WAT    EPW37726   3.061   2.631   2.256 -0.1349 -0.0002  0.0130
 9252WAT      O37727   4.916   1.876   6.684  0.0286  0.2688 -0.0205
 9252WAT     H137728   4.956   1.929   6.627 -0.6918  0.5656 -0.2591
 9252WAT     H237729   4.832   1.891   6.670 -0.1704 -0.3556  0.4763
 9252WAT    EPW37730   4.910   1.886   6.674 -0.1072  0.2204  0.0176
 9253WAT      O37731   4.169   6.101   5.075  0.1095 -0.2251 -0.4729
 9253WAT     H137732   4.172   6.035   5.018 -0.6231 -0.3687 -0.3556
 9253WAT     H237733   4.144   6.062   5.149  0.6833  0.0243 -0.1437
 9253WAT    EPW37734   4.166   6.085   5.078  0.0861 -0.2095 -0.4070
 9254WAT      O37735   3.381   0.519   1.573  0.2871 -0.8048  0.4936
 9254WAT     H137736   3.437   0.543   1.510 -0.0072 -0.6959  0.2704
 9254WAT     H237737   3.413   0.557   1.644  0.5743 -0.8547  0.3940
 9254WAT    EPW37738   3.394   0.528   1.574  0.2860 -0.7960  0.4459
 9255WAT      O37739   3.124   0.185   5.467 -0.3928  0.0878 -0.0290
 9255WAT     H137740   3.086   0.109   5.488 -0.1648 -0.4564 -1.4255
 9255WAT     H237741   3.207   0.173   5.491 -0.3518 -0.1212 -0.2674
 9255WAT    EPW37742   3.131   0.172   5.473 -0.3531 -0.0235 -0.2705
 9256WAT      O37743   4.301   2.069   2.181  0.6670 -0.3057 -0.2698
 9256WAT     H137744   4.299   2.106   2.260  1.0773 -0.4956 -0.1663
 9256WAT     H237745   4.332   2.131   2.129  0.5492 -0.2329 -0.2536
 9256WAT    EPW37746   4.305   2.083   2.185  0.7102 -0.3230 -0.2521
 9257WAT      O37747   5.942   0.778   2.826  0.4646 -0.1907 -0.3329
 9257WAT     H137748   5.956   0.693   2.817  0.6124  0.0142 -2.7370
 9257WAT     H237749   5.891   0.798   2.758 -0.2099  1.5187  0.5994
 9257WAT    EPW37750   5.936   0.769   2.814  0.3868  0.0921 -0.5504
 9258WAT      O37751   6.869   1.270   0.907  0.0873  0.6400 -0.5342
 9258WAT     H137752   6.902   1.259   0.827  0.1086 -1.8326 -0.2600
 9258WAT     H237753   6.804   1.327   0.895 -0.7161 -0.6087 -2.5736
 9258WAT    EPW37754   6.864   1.277   0.894 -0.0283  0.0903 -0.7950
 9259WAT      O37755   0.078   1.236   6.841 -0.3871 -0.2209  0.1993
 9259WAT     H137756   0.134   1.295   6.872  0.2850 -0.3726 -0.6658
 9259WAT     H237757   0.042   1.276   6.772 -0.3840 -0.5865 -0.0206
 9259WAT    EPW37758   0.081   1.250   6.835 -0.2873 -0.2973  0.0390
 9260WAT      O37759   2.178   0.965   2.037  0.4540 -0.5867  0.4231
 9260WAT     H137760   2.238   0.953   2.098  1.8060  0.7528 -0.5698
 9260WAT     H237761   2.224   0.986   1.966 -1.0995 -1.1726 -0.8433
 9260WAT    EPW37762   2.194   0.966   2.035  0.4242 -0.4754  0.0894
 9261WAT      O37763   2.084   5.927   6.585  0.1041 -0.1974 -0.5867
 9261WAT     H137764   2.165   5.906   6.610 -0.1372 -0.3595  0.0880
 9261WAT     H237765   2.041   5.851   6.587 -0.2915  0.0323 -0.0378
 9261WAT    EPW37766   2.090   5.913   6.589  0.0100 -0.1874 -0.4059
 9262WAT      O37767   2.867   4.023   5.141  0.0754  0.0100 -0.3765
 9262WAT     H137768   2.925   3.965   5.111 -0.4983 -1.6882  1.6045
 9262WAT     H237769   2.905   4.056   5.212 -1.1809 -0.8477  0.7256
 9262WAT    EPW37770   2.881   4.019   5.147 -0.1949 -0.3675  0.0790
 9263WAT      O37771   5.194   0.664   0.743  0.5093  0.1918 -0.2836
 9263WAT     H137772   5.175   0.738   0.785  2.3826 -0.4882  2.0294
 9263WAT     H237773   5.157   0.603   0.793 -2.2672 -0.5126 -2.9339
 9263WAT    EPW37774   5.186   0.666   0.757  0.3759 -0.0127 -0.3334
 9264WAT      O37775   3.703   0.745   3.101 -0.0443  0.2024 -0.0142
 9264WAT     H137776   3.620   0.770   3.088  0.0078 -0.3050 -1.5428
 9264WAT     H237777   3.701   0.705   3.178 -0.8459  1.7528  0.8272
 9264WAT    EPW37778   3.690   0.743   3.110 -0.1550  0.3565 -0.1157
 9265WAT      O37779   5.902   7.049   0.037  0.0591  0.4910  0.2473
 9265WAT     H137780   5.888   6.970   0.073  1.6721 -0.6390 -1.3929
 9265WAT     H237781   5.925   7.030  -0.045  1.5599  2.6084  0.1015
 9265WAT    EPW37782   5.903   7.034   0.030  0.5191  0.6369 -0.0165
 9266WAT      O37783   4.916   2.586   2.031 -1.0159  0.3554  0.3591
 9266WAT     H137784   4.876   2.658   2.002 -1.0348  0.1320 -0.1808
 9266WAT     H237785   5.000   2.608   2.029 -0.8484 -0.2839 -1.7249
 9266WAT    EPW37786   4.922   2.600   2.026 -0.9939  0.2280 -0.0285
 9267WAT      O37787   2.343   3.911   1.063 -0.3220  0.7271  0.4944
 9267WAT     H137788   2.337   3.848   1.003 -1.5667 -1.6648  2.8834
 9267WAT     H237789   2.267   3.953   1.058 -0.5042  0.4007  0.5101
 9267WAT    EPW37790   2.331   3.908   1.054 -0.5328  0.3255  0.8496
 9268WAT      O37791   6.841   0.340   1.742 -0.0403 -0.3178 -0.3171
 9268WAT     H137792   6.810   0.393   1.680  0.0856 -0.9350 -0.9270
 9268WAT     H237793   6.818   0.379   1.816  2.6600  2.2237 -0.6378
 9268WAT    EPW37794   6.833   0.353   1.744  0.3772 -0.0335 -0.4546
 9269WAT      O37795   7.014   1.372   5.652  0.1336 -0.6519 -0.5469
 9269WAT     H137796   6.987   1.455   5.658 -0.7538 -1.0195  1.5679
 9269WAT     H237797   7.092   1.373   5.690  0.5493 -0.6120 -1.4050
 9269WAT    EPW37798   7.021   1.385   5.659  0.0639 -0.7003 -0.3613
 9270WAT      O37799   1.301   1.901   2.467 -0.1404  0.0853 -0.1604
 9270WAT     H137800   1.381   1.868   2.479 -0.5923 -0.6288  1.0267
 9270WAT     H237801   1.300   1.971   2.519 -0.3162  0.0380 -0.0991
 9270WAT    EPW37802   1.312   1.907   2.477 -0.2332 -0.0272  0.0240
 9271WAT      O37803   3.318   5.019   2.604  0.0304  0.1068 -0.5479
 9271WAT     H137804   3.294   4.972   2.673 -2.4242  0.5033 -1.0272
 9271WAT     H237805   3.404   5.005   2.599 -0.1335 -2.0708  0.9648
 9271WAT    EPW37806   3.327   5.010   2.613 -0.3564 -0.1563 -0.3952
 9272WAT      O37807   2.406   7.213   5.996 -0.3516 -0.1582 -0.2674
 9272WAT     H137808   2.361   7.272   6.041  0.8742  1.7092 -1.3705
 9272WAT     H237809   2.353   7.192   5.930  0.7847  3.1976 -2.4638
 9272WAT    EPW37810   2.392   7.219   5.993 -0.0027  0.6134 -0.7548
 9273WAT      O37811   1.921   0.555   4.279 -0.0550  0.1655 -0.0265
 9273WAT     H137812   1.926   0.476   4.243  0.4985  1.1644 -2.3037
 9273WAT     H237813   1.933   0.540   4.364 -0.3378 -2.2148 -0.3549
 9273WAT    EPW37814   1.924   0.541   4.287 -0.0150 -0.0386 -0.4114
 9274WAT      O37815   4.819   3.248   0.371  0.3742  0.4030 -0.2074
 9274WAT     H137816   4.856   3.286   0.302  0.1587  1.5246  0.2705
 9274WAT     H237817   4.733   3.259   0.357  0.3464  1.5007  0.6799
 9274WAT    EPW37818   4.812   3.256   0.359  0.3383  0.7308 -0.0058
 9275WAT      O37819   1.148   4.628   2.995 -0.4344 -0.4037  0.3114
 9275WAT     H137820   1.123   4.706   3.023 -1.6748 -0.2424 -1.1051
 9275WAT     H237821   1.082   4.576   3.017 -0.0135 -0.8891  0.4581
 9275WAT    EPW37822   1.135   4.632   3.002 -0.5554 -0.4516  0.1238
 9276WAT      O37823   5.072   2.473   4.216 -0.7609 -0.1771  0.5117
 9276WAT     H137824   5.147   2.516   4.223 -0.1976 -0.8054 -1.2555
 9276WAT     H237825   5.082   2.406   4.271  0.3424 -0.7244 -0.3202
 9276WAT    EPW37826   5.084   2.469   4.226 -0.5147 -0.3507  0.1278
 9277WAT      O37827   3.471   1.005   2.617  0.2578  0.4241  0.3870
 9277WAT     H137828   3.510   1.077   2.590 -0.2822  0.5893  0.0279
 9277WAT     H237829   3.401   0.998   2.565  0.6260 -0.6814  0.0139
 9277WAT    EPW37830   3.466   1.014   2.606  0.2324  0.2852  0.2788
 9278WAT      O37831   4.312   0.521   6.043 -0.3555 -0.2814  0.5485
 9278WAT     H137832   4.255   0.538   5.980  0.3131 -0.1826 -0.0435
 9278WAT     H237833   4.263   0.515   6.115 -1.1940 -0.9528 -0.0646
 9278WAT    EPW37834   4.296   0.523   6.044 -0.3806 -0.3660  0.3705
 9279WAT      O37835   0.595   4.590   6.290 -0.1418  0.3569 -0.1579
 9279WAT     H137836   0.547   4.646   6.336  0.5709 -0.9841  2.4082
 9279WAT     H237837   0.555   4.514   6.301 -0.3276  0.0370 -2.4378
 9279WAT    EPW37838   0.582   4.587   6.298 -0.0640  0.1116 -0.1156
 9280WAT      O37839   0.205   0.010   6.262  0.1796 -0.0202  0.0912
 9280WAT     H137840   0.234  -0.058   6.215 -3.5535 -0.7794 -1.4834
 9280WAT     H237841   0.214   0.078   6.207  0.3999  0.0668  0.2303
 9280WAT    EPW37842   0.211   0.010   6.247 -0.3393 -0.1195 -0.1209
 9281WAT      O37843   1.551   1.743   2.414 -0.6685  0.1955 -0.5305
 9281WAT     H137844   1.541   1.693   2.344  0.5938  0.8784 -1.2412
 9281WAT     H237845   1.606   1.806   2.387 -0.8437  0.9747  0.8164
 9281WAT    EPW37846   1.558   1.745   2.400 -0.5079  0.4115 -0.4365
 9282WAT      O37847   6.371   0.702   2.267  0.5644  0.5816 -0.1239
 9282WAT     H137848   6.410   0.754   2.325  0.0437  0.8396  0.0023
 9282WAT     H237849   6.352   0.755   2.200 -2.4645  1.2788  1.1044
 9282WAT    EPW37850   6.374   0.718   2.266  0.0401  0.7227  0.0762
 9283WAT      O37851   1.088   0.574   4.233 -0.6361 -0.5281 -0.4359
 9283WAT     H137852   1.018   0.619   4.260 -0.8629 -2.2346  2.0800
 9283WAT     H237853   1.054   0.519   4.174 -1.2337 -0.6755  0.0355
 9283WAT    EPW37854   1.072   0.573   4.228 -0.7579 -0.8020  0.0054
 9284WAT      O37855   4.445   3.914   0.756  0.0351 -0.0805 -0.8978
 9284WAT     H137856   4.527   3.944   0.744 -0.2231  0.1031 -2.5197
 9284WAT     H237857   4.415   3.905   0.674 -1.4344 -0.5301 -0.3376
 9284WAT    EPW37858   4.453   3.917   0.742 -0.2201 -0.1198 -1.0546
 9285WAT      O37859   6.825   5.020   5.122  0.6815 -0.0140  0.1229
 9285WAT     H137860   6.854   5.093   5.084  1.0195 -0.5094 -0.5966
 9285WAT     H237861   6.884   5.004   5.184  0.4972  0.4378  0.4107
 9285WAT    EPW37862   6.838   5.028   5.125  0.7042 -0.0204  0.0592
 9286WAT      O37863   6.641   4.863   1.116  0.2993  0.2276  0.1010
 9286WAT     H137864   6.579   4.883   1.058 -0.0574  0.5377  0.5803
 9286WAT     H237865   6.634   4.776   1.124  0.3863  0.1789 -0.3569
 9286WAT    EPW37866   6.631   4.853   1.109  0.2595  0.2662  0.1041
 9287WAT      O37867   4.114   0.431   1.077  0.1715  0.7345 -0.2404
 9287WAT     H137868   4.135   0.463   1.155  1.0791 -1.3358  0.4411
 9287WAT     H237869   4.036   0.393   1.090 -0.7948  2.3666 -0.9804
 9287WAT    EPW37870   4.105   0.430   1.091  0.1628  0.6698 -0.2490
 9288WAT      O37871   0.944   1.159   1.197  0.0487  0.4319  0.3153
 9288WAT     H137872   0.864   1.182   1.223 -0.1785  0.0511 -0.0395
 9288WAT     H237873   0.991   1.164   1.270 -0.6877 -1.1196  0.9329
 9288WAT    EPW37874   0.939   1.163   1.212 -0.0937  0.1465  0.3541
 9289WAT      O37875   2.212   0.856   2.462 -0.6636  0.0327  0.0541
 9289WAT     H137876   2.143   0.869   2.514 -0.1172 -0.0772  0.8321
 9289WAT     H237877   2.265   0.807   2.511 -0.3800 -0.5769 -0.8304
 9289WAT    EPW37878   2.210   0.850   2.477 -0.5410 -0.0736  0.0384
 9290WAT      O37879   3.702   3.366   2.952 -0.6949 -0.1165 -0.2549
 9290WAT     H137880   3.681   3.281   2.953 -1.6200  0.0959  1.2113
 9290WAT     H237881   3.659   3.397   2.882 -2.0988 -0.4559  0.4376
 9290WAT    EPW37882   3.692   3.358   2.941 -1.0390 -0.1352  0.0640
 9291WAT      O37883   4.951   7.126   4.413 -0.3447 -0.0505  0.2548
 9291WAT     H137884   5.011   7.188   4.399 -0.3736  1.1506  4.2251
 9291WAT     H237885   4.976   7.091   4.489 -2.7417 -1.9624  0.2561
 9291WAT    EPW37886   4.964   7.130   4.422 -0.7030 -0.1555  0.8415
 9292WAT      O37887   2.575   1.067   6.612 -0.4667  0.6412 -0.6607
 9292WAT     H137888   2.533   0.997   6.643  1.2655 -0.5703 -0.9353
 9292WAT     H237889   2.651   1.035   6.585 -0.3792  2.3126 -2.6114
 9292WAT    EPW37890   2.580   1.052   6.612 -0.1979  0.7091 -0.9895
 9293WAT      O37891   6.773   3.047   4.579 -0.0894 -0.0026  0.3567
 9293WAT     H137892   6.714   2.997   4.619  0.3502 -1.3004 -0.5790
 9293WAT     H237893   6.847   3.032   4.624 -0.4494  1.8785  1.7460
 9293WAT    EPW37894   6.775   3.038   4.592 -0.0776  0.0836  0.4237
 9294WAT      O37895   4.772   5.927   6.558  0.8101  0.1298 -1.1489
 9294WAT     H137896   4.790   5.852   6.516  0.1364 -0.9534  0.4198
 9294WAT     H237897   4.717   5.903   6.621  0.7600  1.9249 -0.4531
 9294WAT    EPW37898   4.767   5.912   6.561  0.7032  0.2350 -0.8144
 9295WAT      O37899   1.330   6.519   4.359  0.2396  0.1418  0.3520
 9295WAT     H137900   1.408   6.496   4.328 -0.4414 -0.7029 -0.8731
 9295WAT     H237901   1.277   6.506   4.290 -0.8399  1.5198  0.8853
 9295WAT    EPW37902   1.333   6.514   4.344 -0.0205  0.2206  0.2498
 9296WAT      O37903   6.658   0.738   5.743 -0.1568 -0.1316  0.2850
 9296WAT     H137904   6.579   0.774   5.732  0.0813  1.1422  2.2841
 9296WAT     H237905   6.641   0.656   5.764 -0.9256 -0.0062  0.1914
 9296WAT    EPW37906   6.644   0.731   5.744 -0.2352  0.0751  0.5665
 9297WAT      O37907   5.504   1.643   2.564 -0.1658  0.3695  0.2213
 9297WAT     H137908   5.490   1.562   2.594 -1.7048  0.2082 -0.8093
 9297WAT     H237909   5.429   1.663   2.525  1.4144  0.8098 -2.9034
 9297WAT    EPW37910   5.491   1.634   2.563 -0.1597  0.4107 -0.3925
 9298WAT      O37911   1.024   1.545   2.995 -0.1869  0.1467  0.1290
 9298WAT     H137912   1.005   1.466   2.962 -1.8165  0.2725  0.6418
 9298WAT     H237913   1.045   1.527   3.078 -1.2780  0.2808  0.4559
 9298WAT    EPW37914   1.024   1.531   3.002 -0.5888  0.1851  0.2530
 9299WAT      O37915   1.081   1.990   3.132  0.5282  0.0682 -0.4704
 9299WAT     H137916   1.053   1.990   3.050 -0.7596 -0.4560 -0.0567
 9299WAT     H237917   1.055   1.913   3.163  2.7463 -0.6000 -0.1134
 9299WAT    EPW37918   1.073   1.978   3.125  0.6656 -0.1080 -0.3566
 9300WAT      O37919   1.542   1.514   4.835  0.8472  0.5099  0.4277
 9300WAT     H137920   1.504   1.551   4.905  0.5006  1.5328 -0.2747
 9300WAT     H237921   1.607   1.568   4.817  0.9252  0.2559 -0.0556
 9300WAT    EPW37922   1.546   1.527   4.843  0.8075  0.6235  0.2525
 9301WAT      O37923   5.758   0.069   3.242 -0.0527  0.3914  0.2433
 9301WAT     H137924   5.697   0.033   3.294 -0.0943 -0.5541 -0.4429
 9301WAT     H237925   5.733   0.153   3.236  0.3218  0.6987  2.2748
 9301WAT    EPW37926   5.745   0.076   3.249 -0.0035  0.2971  0.4420
 9302WAT      O37927   2.671   2.049   0.129  0.7923 -0.0076  0.1116
 9302WAT     H137928   2.629   1.972   0.126  0.2402  0.3180 -1.5674
 9302WAT     H237929   2.638   2.087   0.200 -0.9045 -0.2666 -0.4910
 9302WAT    EPW37930   2.660   2.043   0.139  0.4601  0.0022 -0.2254
 9303WAT      O37931   4.504   4.065   0.100 -0.7392  0.6899  0.6823
 9303WAT     H137932   4.437   4.023   0.138 -0.4437 -0.0532  0.4055
 9303WAT     H237933   4.573   4.018   0.122 -0.7101 -0.7800 -2.0242
 9303WAT    EPW37934   4.504   4.052   0.109 -0.6912  0.3630  0.2416
 9304WAT      O37935   0.334   4.000   0.461 -0.2593 -0.5475 -0.0393
 9304WAT     H137936   0.407   3.983   0.506 -0.7298  0.3742  1.1242
 9304WAT     H237937   0.273   4.005   0.523 -1.2523 -0.9105 -0.9598
 9304WAT    EPW37938   0.336   3.998   0.477 -0.4755 -0.4650 -0.0034
 9305WAT      O37939   2.373   0.841   6.689  0.0720  0.6764  0.2098
 9305WAT     H137940   2.410   0.765   6.711 -2.2606 -0.7494 -0.3481
 9305WAT     H237941   2.314   0.854   6.753  0.9400  2.4611  0.7017
 9305WAT    EPW37942   2.370   0.831   6.702 -0.1443  0.7294  0.2001
 9306WAT      O37943   1.129   5.692   0.270  0.0773 -0.3587 -0.2453
 9306WAT     H137944   1.073   5.627   0.251 -1.9722  1.7811 -2.1268
 9306WAT     H237945   1.202   5.669   0.226 -0.4809 -1.5141 -0.6197
 9306WAT    EPW37946   1.132   5.679   0.261 -0.3079 -0.2133 -0.5786
 9307WAT      O37947   6.066   0.923   0.066  0.2389  0.2211  0.2620
 9307WAT     H137948   6.052   1.008   0.054 -0.9391 -0.0335 -0.4367
 9307WAT     H237949   6.152   0.916   0.073  0.4226  1.3549 -0.6671
 9307WAT    EPW37950   6.076   0.934   0.065  0.0920  0.3510  0.0216
 9308WAT      O37951   4.974   2.726   2.699  0.5830  0.0243  0.3448
 9308WAT     H137952   5.036   2.721   2.638 -0.7753  0.0962 -1.1172
 9308WAT     H237953   4.931   2.651   2.690 -0.3329  0.5228  0.4188
 9308WAT    EPW37954   4.976   2.714   2.689  0.2470  0.1086  0.1397
 9309WAT      O37955   3.463   2.933   6.826 -0.2063 -0.5485 -0.2128
 9309WAT     H137956   3.547   2.914   6.811  0.2957  0.1217  1.4797
 9309WAT     H237957   3.463   2.960   6.909 -2.0608 -0.2484 -0.2724
 9309WAT    EPW37958   3.476   2.934   6.836 -0.4061 -0.4052  0.0284
 9310WAT      O37959   2.898   0.994   7.283  0.2533 -0.4556  0.3435
 9310WAT     H137960   2.979   1.019   7.304 -0.4747  2.1145  0.4823
 9310WAT     H237961   2.886   1.027   7.203 -1.2375  0.9915  1.0735
 9310WAT    EPW37962   2.908   1.003   7.274 -0.0745  0.1378  0.4718
 9311WAT      O37963   1.138   1.678   3.746  0.2933  0.6552  0.0641
 9311WAT     H137964   1.204   1.679   3.803  1.7100 -1.7100 -1.3588
 9311WAT     H237965   1.169   1.725   3.678  0.7225 -0.7556 -0.7513
 9311WAT    EPW37966   1.152   1.685   3.744  0.5660  0.0974 -0.2666
 9312WAT      O37967   2.271   4.091   4.367 -0.6309 -0.3346 -0.0329
 9312WAT     H137968   2.276   4.174   4.394 -0.3050 -0.8661  1.6222
 9312WAT     H237969   2.307   4.093   4.287  1.8156  0.6756  1.0036
 9312WAT    EPW37970   2.277   4.104   4.359 -0.2214 -0.2639  0.3647
 9313WAT      O37971   6.426   1.017   3.051  0.1432  0.2961  0.5882
 9313WAT     H137972   6.471   1.061   2.990  0.6809  1.0906  1.5392
 9313WAT     H237973   6.445   0.933   3.034 -0.4231  0.4344 -0.8768
 9313WAT    EPW37974   6.435   1.011   3.039  0.1390  0.4339  0.5123
 9314WAT      O37975   1.046   4.349   6.225 -0.6947 -0.4363 -0.5790
 9314WAT     H137976   1.116   4.301   6.244 -1.1291 -0.7655  0.2462
 9314WAT     H237977   0.990   4.292   6.190 -0.8155 -0.3199 -0.5800
 9314WAT    EPW37978   1.048   4.334   6.223 -0.7767 -0.4677 -0.4573
 9315WAT      O37979   3.916   5.717   0.095  0.1136 -0.0552  0.0634
 9315WAT     H137980   3.845   5.749   0.136 -0.5465  0.4759 -1.4359
 9315WAT     H237981   3.906   5.744   0.013  0.6581 -2.3401 -0.8131
 9315WAT    EPW37982   3.904   5.726   0.089  0.0965 -0.3143 -0.2875
 9316WAT      O37983   0.092   1.443   5.238 -0.0111 -0.3029 -0.1422
 9316WAT     H137984   0.137   1.409   5.305 -0.0342 -1.5340 -0.7314
 9316WAT     H237985   0.084   1.377   5.182 -4.1753 -0.7538  0.6791
 9316WAT    EPW37986   0.098   1.429   5.239 -0.6296 -0.5514 -0.1079
 9317WAT      O37987   1.486   5.231   1.031  0.1887 -0.0725 -0.0185
 9317WAT     H137988   1.499   5.316   1.016  0.5468 -0.4395 -2.1182
 9317WAT     H237989   1.567   5.200   1.045  0.2443 -0.3150 -0.8323
 9317WAT    EPW37990   1.500   5.239   1.031  0.2498 -0.1626 -0.4489
 9318WAT      O37991   4.547   4.735   0.429  0.1220 -0.3335  0.0156
 9318WAT     H137992   4.477   4.785   0.414  0.5274  0.4567  0.6502
 9318WAT     H237993   4.515   4.668   0.475  0.1246  1.4633  2.9417
 9318WAT    EPW37994   4.532   4.732   0.434  0.1823  0.0487  0.5416
 9319WAT      O37995   3.553   0.615   1.331  0.1674 -0.3863  0.2507
 9319WAT     H137996   3.498   0.645   1.270 -0.4142  0.4453  1.1714
 9319WAT     H237997   3.610   0.567   1.284 -0.8730 -0.6399 -0.8091
 9319WAT    EPW37998   3.553   0.612   1.315 -0.0722 -0.3010  0.2302
 9320WAT      O37999   2.146   4.003   3.462  0.1084 -0.3550 -0.0052
 9320WAT     H138000   2.129   3.973   3.382 -2.1737  0.5854  0.0556
 9320WAT     H238001   2.076   3.981   3.508  1.3492 -0.8233  1.7685
 9320WAT    EPW38002   2.133   3.995   3.457 -0.0454 -0.2853  0.2658
 9321WAT      O38003   5.415   4.300   1.145 -0.1752  0.2581 -0.1582
 9321WAT     H138004   5.328   4.289   1.138 -0.6204  2.8288  0.2361
 9321WAT     H238005   5.426   4.322   1.228  0.8580  0.0723 -0.2334
 9321WAT    EPW38006   5.404   4.302   1.156 -0.0883  0.6104 -0.1110
 9322WAT      O38007   1.766   6.245   0.210  0.1425  0.1637 -0.5849
 9322WAT     H138008   1.780   6.301   0.275 -0.0015  0.8474 -1.1305
 9322WAT     H238009   1.680   6.253   0.195  0.4700  1.3034 -1.9988
 9322WAT    EPW38010   1.755   6.254   0.217  0.1696  0.4330 -0.8743
 9323WAT      O38011   4.453   0.980   2.271  0.1631 -0.4217  0.4857
 9323WAT     H138012   4.429   0.964   2.353 -0.2088 -1.8395  0.1420
 9323WAT     H238013   4.377   0.990   2.229  0.3652  1.3446  0.4674
 9323WAT    EPW38014   4.438   0.979   2.277  0.1380 -0.3702  0.4322
 9324WAT      O38015   6.025   0.892   1.316 -0.3668  0.1556 -0.7568
 9324WAT     H138016   5.943   0.899   1.347  0.2995  0.4117  1.0805
 9324WAT     H238017   6.057   0.824   1.359  1.2142  1.6926  0.6564
 9324WAT    EPW38018   6.017   0.883   1.327 -0.0349  0.4205 -0.2766
 9325WAT      O38019   1.779   0.714   5.849  0.0387 -0.2236 -0.2341
 9325WAT     H138020   1.835   0.759   5.898  0.3081  0.4115 -1.0948
 9325WAT     H238021   1.756   0.771   5.787 -0.4963 -0.9131 -0.6861
 9325WAT    EPW38022   1.784   0.729   5.847 -0.0005 -0.2316 -0.4280
 9326WAT      O38023   5.091   3.289   2.472 -0.3011 -0.5015  0.2730
 9326WAT     H138024   5.150   3.320   2.529  1.0703  0.9761 -1.7725
 9326WAT     H238025   5.016   3.322   2.500 -0.0150 -1.3163  2.1950
 9326WAT    EPW38026   5.089   3.298   2.485 -0.0563 -0.4036  0.2548
 9327WAT      O38027   6.356   0.951   6.428 -0.6881 -0.1582  0.1014
 9327WAT     H138028   6.314   1.003   6.484 -2.5307 -0.7874 -0.6162
 9327WAT     H238029   6.300   0.885   6.415  0.8204 -1.4070 -0.4124
 9327WAT    EPW38030   6.341   0.949   6.434 -0.7375 -0.4356 -0.0805
 9328WAT      O38031   4.052   0.069   4.111  0.4022 -0.7666  0.0079
 9328WAT     H138032   3.972   0.072   4.078  0.6239 -1.6621 -0.6517
 9328WAT     H238033   4.104   0.077   4.041  0.8808 -1.8951  0.1997
 9328WAT    EPW38034   4.048   0.071   4.096  0.5057 -1.0656 -0.0612
 9329WAT      O38035   6.863   5.583   2.931  0.0734 -0.2975 -0.1395
 9329WAT     H138036   6.833   5.523   2.875  0.5117  1.1219 -1.9833
 9329WAT     H238037   6.801   5.586   2.992 -0.8239 -1.3143 -0.9586
 9329WAT    EPW38038   6.849   5.574   2.932  0.0056 -0.2380 -0.5329
 9330WAT      O38039   4.015   3.192   4.355  0.2866 -0.1564 -0.5622
 9330WAT     H138040   4.059   3.146   4.295  0.1048 -0.5911 -0.3685
 9330WAT     H238041   3.941   3.214   4.314  0.8026  0.8370 -0.9899
 9330WAT    EPW38042   4.011   3.188   4.340  0.3360 -0.0738 -0.5968
 9331WAT      O38043   0.313   5.904   0.898 -0.4332  0.1550 -0.6036
 9331WAT     H138044   0.319   5.976   0.946 -1.1584 -0.5090  0.5303
 9331WAT     H238045   0.362   5.921   0.828  0.9002  1.0420  0.4989
 9331WAT    EPW38046   0.321   5.917   0.894 -0.3434  0.1879 -0.2733
 9332WAT      O38047   2.493   2.811   6.162  0.0163  0.0133  0.0044
 9332WAT     H138048   2.420   2.766   6.147 -1.1306  2.0201 -0.6452
 9332WAT     H238049   2.493   2.822   6.248 -0.3374 -0.1728  0.0304
 9332WAT    EPW38050   2.483   2.806   6.172 -0.2054  0.2823 -0.0877
 9333WAT      O38051   4.676   3.727   2.327  0.1878  0.2789  0.0868
 9333WAT     H138052   4.737   3.665   2.324  0.8462  0.8725  0.9182
 9333WAT     H238053   4.715   3.797   2.293  0.1730  0.8170  1.1404
 9333WAT    EPW38054   4.691   3.728   2.321  0.2829  0.4461  0.3652
 9334WAT      O38055   2.071   6.664   3.878 -0.5639  0.1339  0.1917
 9334WAT     H138056   2.016   6.632   3.937  1.9476  0.3065  2.8722
 9334WAT     H238057   2.085   6.746   3.905  1.2429 -0.0249 -0.1490
 9334WAT    EPW38058   2.065   6.671   3.891  0.0740  0.1359  0.5373
 9335WAT      O38059   3.059   4.870   7.152 -0.4015 -0.7404  0.7646
 9335WAT     H138060   3.049   4.948   7.114  0.6070 -1.9932 -2.3746
 9335WAT     H238061   3.145   4.862   7.161 -0.2916 -2.3280 -1.0947
 9335WAT    EPW38062   3.070   4.880   7.148 -0.2363 -1.1600  0.0262
 9336WAT      O38063   3.628   6.056   3.674 -0.3555 -0.5172  0.5929
 9336WAT     H138064   3.570   6.061   3.739 -0.8774 -0.0955  0.1011
 9336WAT     H238065   3.693   6.108   3.700 -0.1269 -1.0994  1.2087
 9336WAT    EPW38066   3.629   6.064   3.688 -0.3988 -0.5409  0.6112
 9337WAT      O38067   4.644   6.736   5.610  0.1194  0.3804 -0.1494
 9337WAT     H138068   4.668   6.716   5.691  0.0053 -2.3181 -0.6823
 9337WAT     H238069   4.599   6.810   5.619  1.1104  0.7932  2.0514
 9337WAT    EPW38070   4.641   6.744   5.623  0.2489  0.0428  0.0970
 9338WAT      O38071   4.717   1.116   0.416 -0.2394 -1.1468  0.0048
 9338WAT     H138072   4.768   1.058   0.375  0.6099  0.0742 -0.7371
 9338WAT     H238073   4.721   1.186   0.364  0.3469  0.2584  1.8456
 9338WAT    EPW38074   4.725   1.118   0.402 -0.0273 -0.7589  0.1671
 9339WAT      O38075   0.575   6.097   1.521 -0.6822  0.1666  0.2471
 9339WAT     H138076   0.607   6.044   1.583  3.1030 -0.0371 -1.6006
 9339WAT     H238077   0.518   6.046   1.479  1.7847 -2.1586 -0.5851
 9339WAT    EPW38078   0.571   6.081   1.524  0.2414 -0.2070 -0.1488
 9340WAT      O38079   3.201   0.859   2.945  0.1506 -0.2037 -0.3324
 9340WAT     H138080   3.128   0.906   2.939  0.3192 -0.1005 -2.3136
 9340WAT     H238081   3.174   0.777   2.931  0.3161 -0.2477 -0.4050
 9340WAT    EPW38082   3.186   0.854   2.942  0.1999 -0.1950 -0.6358
 9341WAT      O38083   2.634   5.101   3.774  0.1543 -0.2257 -0.1560
 9341WAT     H138084   2.585   5.120   3.704  0.3785 -1.7946 -0.7961
 9341WAT     H238085   2.715   5.122   3.749  0.3132 -1.3169 -0.6165
 9341WAT    EPW38086   2.639   5.107   3.760  0.2109 -0.6187 -0.3186
 9342WAT      O38087   1.565   2.363   3.572  0.4580  0.0856  0.4395
 9342WAT     H138088   1.557   2.342   3.657 -0.1977  2.7146  1.1102
 9342WAT     H238089   1.649   2.387   3.565  0.5559 -0.2870  0.2636
 9342WAT    EPW38090   1.577   2.363   3.584  0.3756  0.4189  0.5126
 9343WAT      O38091   6.856   4.424   0.109  0.6440  0.2707 -0.0819
 9343WAT     H138092   6.794   4.382   0.065 -0.2365 -0.5980  1.8326
 9343WAT     H238093   6.874   4.493   0.059  0.7008 -1.3056 -2.3920
 9343WAT    EPW38094   6.849   4.428   0.095  0.5223 -0.0905 -0.1404
 9344WAT      O38095   3.969   0.004   0.340 -0.0482 -0.8870 -0.5031
 9344WAT     H138096   3.932   0.059   0.283  1.6853  0.5347 -0.3447
 9344WAT     H238097   3.901  -0.026   0.386 -1.0919  1.4723 -0.3176
 9344WAT    EPW38098   3.954   0.008   0.339  0.0537 -0.3285 -0.4523
 9345WAT      O38099   5.704   3.755   6.838  0.0348  0.1360  0.1609
 9345WAT     H138100   5.768   3.794   6.794 -2.0950  0.8757 -2.5289
 9345WAT     H238101   5.685   3.685   6.790 -1.8584  0.5375  0.2306
 9345WAT    EPW38102   5.711   3.751   6.825 -0.5595  0.3046 -0.2261
 9346WAT      O38103   1.221   5.200   4.330  0.2027  0.2863  0.4751
 9346WAT     H138104   1.173   5.272   4.344 -0.8276 -0.1117 -0.8508
 9346WAT     H238105   1.168   5.148   4.284  1.9678 -0.0963 -1.2627
 9346WAT    EPW38106   1.206   5.203   4.326  0.3112  0.1710  0.0225
 9347WAT      O38107   1.912   4.968   0.504 -0.4797  0.2117  0.8602
 9347WAT     H138108   1.828   4.944   0.499 -1.0172  2.1194 -0.7606
 9347WAT     H238109   1.931   4.992   0.422  0.9568  1.9491  1.6364
 9347WAT    EPW38110   1.902   4.968   0.491 -0.3469  0.7502  0.7355
 9348WAT      O38111   7.078   2.349   6.874  0.5362  0.1078  0.1997
 9348WAT     H138112   7.027   2.358   6.804  0.1646 -1.1363  0.2775
 9348WAT     H238113   7.070   2.426   6.915 -0.8109  0.1686 -0.1073
 9348WAT    EPW38114   7.069   2.362   6.870  0.2823 -0.0670  0.1659
 9349WAT      O38115   2.571   5.216   1.644  0.0532 -0.3784  0.1293
 9349WAT     H138116   2.553   5.245   1.724 -1.1750 -2.9642  0.8721
 9349WAT     H238117   2.570   5.130   1.652  0.7717 -0.7149 -2.5133
 9349WAT    EPW38118   2.568   5.208   1.657 -0.0221 -0.8101 -0.1513
 9350WAT      O38119   0.181   5.637   5.925  0.3289 -0.4155  0.5547
 9350WAT     H138120   0.254   5.684   5.922 -0.4000  0.7388  0.5294
 9350WAT     H238121   0.183   5.592   5.851 -0.0331  1.2415 -0.5029
 9350WAT    EPW38122   0.192   5.637   5.914  0.1678 -0.0002  0.3947
 9351WAT      O38123   2.469   2.335   6.810  0.0313 -0.3378  0.3415
 9351WAT     H138124   2.412   2.278   6.776  0.8573 -0.8610 -0.2062
 9351WAT     H238125   2.546   2.310   6.777  0.3667  1.4129 -0.3587
 9351WAT    EPW38126   2.472   2.323   6.800  0.2029 -0.1565  0.1572
 9352WAT      O38127   6.913   7.198   0.599 -0.5657  0.5226  0.0738
 9352WAT     H138128   6.914   7.286   0.601  1.0554  0.5541 -0.7510
 9352WAT     H238129   6.955   7.179   0.525 -1.4437 -0.9634 -0.0720
 9352WAT    EPW38130   6.919   7.208   0.589 -0.4559  0.3078 -0.0696
 9353WAT      O38131   3.644   4.698   3.269  0.3166 -0.5206  0.8855
 9353WAT     H138132   3.721   4.660   3.257  0.5777 -0.0677  1.1187
 9353WAT     H238133   3.603   4.645   3.325  0.2445 -1.0474  0.3392
 9353WAT    EPW38134   3.649   4.685   3.276  0.3445 -0.5315  0.8393
 9354WAT      O38135   6.354   6.226   3.349 -0.5819  0.3248 -0.1829
 9354WAT     H138136   6.398   6.282   3.299  0.8649  0.6710  1.3724
 9354WAT     H238137   6.393   6.150   3.335 -0.5801  0.3032 -0.0685
 9354WAT    EPW38138   6.366   6.223   3.340 -0.3679  0.3728  0.0638
 9355WAT      O38139   5.872   2.777   6.258 -0.0880  0.1842  0.1312
 9355WAT     H138140   5.793   2.788   6.223  0.2442  0.1191 -0.6424
 9355WAT     H238141   5.883   2.850   6.306 -1.5884 -0.8656  2.1859
 9355WAT    EPW38142   5.862   2.790   6.260 -0.2606  0.0195  0.3205
 9356WAT      O38143   5.018   6.463   2.552 -0.0401 -0.4044  0.3226
 9356WAT     H138144   4.954   6.483   2.497  0.5975  1.4193  0.2018
 9356WAT     H238145   4.985   6.481   2.631  0.1612  0.1065  0.2924
 9356WAT    EPW38146   5.004   6.468   2.555  0.0838 -0.0595  0.3003
 9357WAT      O38147   5.268   4.367   2.880  0.5012 -0.0565  0.5182
 9357WAT     H138148   5.258   4.286   2.849  1.4238  0.6595 -1.8519
 9357WAT     H238149   5.328   4.358   2.942  1.7362 -1.0246 -0.7571
 9357WAT    EPW38150   5.275   4.354   2.885  0.8199 -0.0937 -0.0203
 9358WAT      O38151   1.160   6.752   4.626  0.4576  0.0844  0.2149
 9358WAT     H138152   1.239   6.768   4.592  0.0940 -0.7624 -1.1256
 9358WAT     H238153   1.105   6.794   4.572 -0.2170 -2.1508 -0.9549
 9358WAT    EPW38154   1.163   6.760   4.613  0.3042 -0.3709 -0.1559
 9359WAT      O38155   7.017   6.623   3.250  0.1347  0.4396 -0.1920
 9359WAT     H138156   6.954   6.563   3.249  0.5068  0.0170  0.4246
 9359WAT     H238157   7.061   6.609   3.176 -1.1732  1.5097 -1.2182
 9359WAT    EPW38158   7.014   6.612   3.239 -0.0036  0.5352 -0.2525
 9360WAT      O38159   1.057   5.888   6.010 -0.5972 -0.2056 -0.2061
 9360WAT     H138160   1.139   5.895   6.040 -0.8047 -0.3188  0.3999
 9360WAT     H238161   1.067   5.887   5.923  0.2276 -2.1653 -0.1474
 9360WAT    EPW38162   1.071   5.889   6.001 -0.5060 -0.5118 -0.1079
 9361WAT      O38163   3.889   2.370   4.392 -0.4898  0.9777  0.6689
 9361WAT     H138164   3.882   2.283   4.387 -2.2371  0.9102  2.9363
 9361WAT     H238165   3.841   2.399   4.326  0.0509  0.2482 -0.0608
 9361WAT    EPW38166   3.881   2.361   4.382 -0.6680  0.8600  0.8960
 9362WAT      O38167   3.358   4.808   1.818 -0.2775 -0.2822 -0.7653
 9362WAT     H138168   3.423   4.809   1.759  0.2922 -2.6832 -0.2833
 9362WAT     H238169   3.287   4.822   1.770  0.3273 -0.5542 -1.7890
 9362WAT    EPW38170   3.357   4.810   1.802 -0.1040 -0.6771 -0.8453
 9363WAT      O38171   1.381   4.949   0.805  0.1888  0.0186 -0.0738
 9363WAT     H138172   1.400   4.881   0.754  0.5012 -0.5277  0.7459
 9363WAT     H238173   1.432   4.938   0.875  0.4830  1.2732 -0.0585
 9363WAT    EPW38174   1.391   4.938   0.808  0.2784  0.1232  0.0496
 9364WAT      O38175   2.430   7.051   4.298 -0.3884 -0.2174 -0.0136
 9364WAT     H138176   2.353   7.090   4.313 -0.6283 -1.1213  1.3422
 9364WAT     H238177   2.441   7.001   4.369  2.0158  0.7779  0.4118
 9364WAT    EPW38178   2.420   7.050   4.311 -0.0687 -0.2039  0.2496
 9365WAT      O38179   7.205   4.462   1.854 -0.4966 -0.0760 -0.5280
 9365WAT     H138180   7.195   4.376   1.846  0.5132 -0.0904 -2.1011
 9365WAT     H238181   7.208   4.490   1.772 -2.1444  1.6663 -0.0782
 9365WAT    EPW38182   7.204   4.454   1.841 -0.5908  0.1793 -0.6939
 9366WAT      O38183   2.252   2.691   0.751  0.2037 -0.0736  0.5391
 9366WAT     H138184   2.179   2.691   0.798 -0.9812  0.3294 -1.1916
 9366WAT     H238185   2.244   2.620   0.701 -0.4783  1.4366 -1.6764
 9366WAT    EPW38186   2.240   2.681   0.750 -0.0720  0.2090 -0.0439
 9367WAT      O38187   3.686   0.384   6.140 -0.2723  0.0914 -0.3270
 9367WAT     H138188   3.678   0.339   6.065 -4.6053 -0.3217  0.1227
 9367WAT     H238189   3.732   0.455   6.117  1.3228 -1.5289 -2.5237
 9367WAT    EPW38190   3.692   0.388   6.125 -0.6768 -0.2090 -0.5851
 9368WAT      O38191   4.598   0.691   0.482  0.1095  0.2195 -0.0785
 9368WAT     H138192   4.639   0.723   0.553  3.3878 -1.0413 -1.2075
 9368WAT     H238193   4.628   0.741   0.418 -2.3603  0.9576 -0.7793
 9368WAT    EPW38194   4.608   0.703   0.483  0.2289  0.1423 -0.3488
 9369WAT      O38195   1.753   0.662   0.033 -0.1875  0.3678  0.0406
 9369WAT     H138196   1.817   0.667   0.093 -0.8436  0.1888  0.7781
 9369WAT     H238197   1.774   0.725  -0.024  1.6359 -0.9009 -0.7508
 9369WAT    EPW38198   1.766   0.672   0.034 -0.0150  0.1539  0.0327
 9370WAT      O38199   3.964   5.820   6.714  0.2443  0.9907 -0.7192
 9370WAT     H138200   3.991   5.877   6.654 -0.4879 -1.3663 -3.5352
 9370WAT     H238201   4.037   5.777   6.736  0.1047 -0.4239 -2.6957
 9370WAT    EPW38202   3.979   5.822   6.709  0.1155  0.4336 -1.4271
 9371WAT      O38203   6.606   1.194   5.323 -0.1141  0.0644  0.3127
 9371WAT     H138204   6.692   1.186   5.314 -0.0556  0.0151  0.8499
 9371WAT     H238205   6.573   1.156   5.251  0.2700 -1.2795  0.8143
 9371WAT    EPW38206   6.614   1.187   5.311 -0.0487 -0.1414  0.4662
 9372WAT      O38207   5.493   0.971   3.928 -0.1288  0.6080 -0.0178
 9372WAT     H138208   5.479   1.009   3.851  0.9673  0.8227 -0.1215
 9372WAT     H238209   5.441   0.900   3.925 -3.1744  2.6027  0.6726
 9372WAT    EPW38210   5.483   0.966   3.916 -0.4168  0.9343  0.0688
 9373WAT      O38211   1.328   6.949   3.566 -0.0448  0.1591  0.0403
 9373WAT     H138212   1.243   6.934   3.554  0.1440  0.1222 -1.3887
 9373WAT     H238213   1.337   6.945   3.653 -0.9838 -2.8013  0.1240
 9373WAT    EPW38214   1.317   6.946   3.577 -0.1556 -0.2837 -0.1584
 9374WAT      O38215   3.238   5.816   6.201  0.0923  0.0583 -0.4024
 9374WAT     H138216   3.169   5.792   6.153  1.3658  0.5300 -2.6174
 9374WAT     H238217   3.206   5.879   6.252 -1.2180 -0.0564 -1.0268
 9374WAT    EPW38218   3.223   5.821   6.202  0.0869  0.1110 -0.8218
 9375WAT      O38219   5.619   2.391   5.507 -0.4216 -0.1110 -0.0183
 9375WAT     H138220   5.662   2.456   5.468 -0.8749 -0.4349 -1.0960
 9375WAT     H238221   5.598   2.424   5.585 -0.3336  0.9096 -0.4124
 9375WAT    EPW38222   5.622   2.406   5.512 -0.4756 -0.0081 -0.2357
 9376WAT      O38223   5.615   6.763   7.371  0.1455 -0.8305  0.0331
 9376WAT     H138224   5.611   6.816   7.440  0.3072  1.0677 -1.3027
 9376WAT     H238225   5.532   6.750   7.350  0.1053 -0.9883  0.2931
 9376WAT    EPW38226   5.602   6.769   7.378  0.1634 -0.5734 -0.1258
 9377WAT      O38227   6.304   0.821   3.845 -0.0067  0.0886 -0.1000
 9377WAT     H138228   6.333   0.773   3.779 -1.1825 -1.9387  0.7663
 9377WAT     H238229   6.242   0.871   3.809  1.6089  1.4738 -1.1220
 9377WAT    EPW38230   6.299   0.821   3.830  0.0583 -0.0063 -0.1230
 9378WAT      O38231   1.181   5.801   2.049  0.1103  0.3730  0.1661
 9378WAT     H138232   1.171   5.717   2.028 -1.4070  0.6911 -0.5106
 9378WAT     H238233   1.210   5.797   2.132  0.2845 -0.8093  0.0763
 9378WAT    EPW38234   1.184   5.788   2.058 -0.0881  0.2453  0.0529
 9379WAT      O38235   1.881   4.955   0.209 -0.1487 -0.2584  0.8308
 9379WAT     H138236   1.921   4.878   0.220  1.8025  0.5246 -0.2374
 9379WAT     H238237   1.801   4.933   0.183 -0.2497 -1.9046  2.3382
 9379WAT    EPW38238   1.875   4.940   0.207  0.1246 -0.3859  0.8957
 9380WAT      O38239   0.662   5.894   1.670 -0.3250  0.0434  0.2346
 9380WAT     H138240   0.734   5.893   1.720 -0.2321 -0.7260  0.0846
 9380WAT     H238241   0.632   5.813   1.674  0.6638 -0.5426 -2.3721
 9380WAT    EPW38242   0.668   5.882   1.678 -0.1652 -0.1568 -0.1726
 9381WAT      O38243   4.841   1.112   5.329 -0.6658 -0.0241  0.4939
 9381WAT     H138244   4.900   1.098   5.392  1.7275 -1.4897 -1.8734
 9381WAT     H238245   4.854   1.196   5.307  0.4973 -0.2981  0.0869
 9381WAT    EPW38246   4.852   1.123   5.335 -0.1405 -0.2811  0.0841
 9382WAT      O38247   6.431   4.929   6.397 -0.0777  1.1240 -0.2875
 9382WAT     H138248   6.498   4.914   6.452 -0.9563 -0.8564  0.3152
 9382WAT     H238249   6.462   4.905   6.319 -0.4766 -1.1837  0.2066
 9382WAT    EPW38250   6.446   4.923   6.394 -0.2664  0.4906 -0.1255
 9383WAT      O38251   5.211   2.652   2.068  0.5994  0.2661 -0.8912
 9383WAT     H138252   5.239   2.729   2.038 -0.0303  0.7001 -0.4036
 9383WAT     H238253   5.263   2.636   2.136  1.7920 -0.5453 -1.9305
 9383WAT    EPW38254   5.223   2.661   2.074  0.6825  0.2104 -0.9727
 9384WAT      O38255   6.087   3.577   2.698 -0.0810  0.2096  0.3302
 9384WAT     H138256   6.057   3.556   2.619  0.7006 -2.0280  0.5649
 9384WAT     H238257   6.164   3.615   2.681  0.9643 -1.8862 -0.0135
 9384WAT    EPW38258   6.094   3.580   2.684  0.1889 -0.4306  0.3141
 9385WAT      O38259   3.770   0.085   3.694  0.0896 -0.2142 -0.2735
 9385WAT     H138260   3.720   0.099   3.764  1.2436 -0.0646  0.5498
 9385WAT     H238261   3.800   0.004   3.706  0.5717 -0.0604 -0.3941
 9385WAT    EPW38262   3.767   0.075   3.706  0.3313 -0.1694 -0.1697
 9386WAT      O38263   2.738   4.541   6.003 -0.4402  0.2888  0.0549
 9386WAT     H138264   2.690   4.469   5.994 -1.6618  1.1713 -0.8210
 9386WAT     H238265   2.746   4.550   6.090  0.0909 -1.1044  0.1672
 9386WAT    EPW38266   2.733   4.532   6.015 -0.5422  0.2134 -0.0579
 9387WAT      O38267   1.645   0.056   5.343 -0.0899  0.1919  0.1325
 9387WAT     H138268   1.592   0.115   5.379 -1.3509 -0.7379 -0.1545
 9387WAT     H238269   1.711   0.105   5.312 -1.7544  1.6707 -1.3511
 9387WAT    EPW38270   1.647   0.072   5.344 -0.5221  0.2730 -0.1291
 9388WAT      O38271   6.460   0.531   3.465 -0.2318 -0.1858  0.3807
 9388WAT     H138272   6.431   0.603   3.425 -1.4582  0.0650  1.6461
 9388WAT     H238273   6.521   0.501   3.410 -0.5561  1.1263 -0.7748
 9388WAT    EPW38274   6.464   0.537   3.451 -0.4609  0.0451  0.3969
 9389WAT      O38275   0.854   5.889   5.468 -0.0219 -0.3857  0.7752
 9389WAT     H138276   0.855   5.880   5.381  1.1564  0.4372  0.6818
 9389WAT     H238277   0.863   5.807   5.496 -1.3255 -0.7835  0.1692
 9389WAT    EPW38278   0.855   5.876   5.459 -0.0404 -0.3229  0.6719
 9390WAT      O38279   7.060   6.206   5.335 -0.1426 -0.5746 -0.1825
 9390WAT     H138280   7.074   6.263   5.400 -0.2449 -0.1624 -0.5168
 9390WAT     H238281   6.986   6.234   5.300 -1.6209 -2.4336  1.2477
 9390WAT    EPW38282   7.051   6.219   5.340 -0.3761 -0.7883 -0.0206
 9391WAT      O38283   3.037   5.128   2.155  0.1279  0.3499 -0.1701
 9391WAT     H138284   3.026   5.194   2.099  0.0987 -1.3636 -2.3457
 9391WAT     H238285   3.090   5.074   2.112 -1.7773 -2.1783  0.3782
 9391WAT    EPW38286   3.043   5.130   2.140 -0.1578 -0.2767 -0.4105
 9392WAT      O38287   2.757   2.344   6.853  0.0500  0.4193 -0.0448
 9392WAT     H138288   2.796   2.289   6.798  1.2684  0.0257  1.1362
 9392WAT     H238289   2.773   2.308   6.931 -1.6509  0.9216  0.5829
 9392WAT    EPW38290   2.765   2.330   6.857 -0.0213  0.4353  0.2224
 9393WAT      O38291   5.503   0.574   4.644 -0.3887 -0.2158 -0.0389
 9393WAT     H138292   5.524   0.564   4.728 -2.4245 -1.5408  0.3890
 9393WAT     H238293   5.466   0.498   4.623 -0.1133  0.1627 -2.0990
 9393WAT    EPW38294   5.501   0.561   4.653 -0.6488 -0.3556 -0.2800
 9394WAT      O38295   3.960   5.350   4.517 -0.3266  1.0434 -0.5446
 9394WAT     H138296   3.916   5.373   4.588 -1.3723  1.3364 -1.2572
 9394WAT     H238297   4.017   5.290   4.546 -1.1430  0.7130  0.4222
 9394WAT    EPW38298   3.962   5.344   4.532 -0.6017  1.0378 -0.5070
 9395WAT      O38299   0.830   1.905   0.379  0.2633  0.0959  0.2257
 9395WAT     H138300   0.806   1.949   0.450 -1.7744  0.8639 -0.8494
 9395WAT     H238301   0.887   1.846   0.409 -0.7905  0.1584  2.5317
 9395WAT    EPW38302   0.835   1.903   0.394 -0.1934  0.2186  0.4076
 9396WAT      O38303   2.031   3.718   0.458 -0.1933 -0.2453 -0.0037
 9396WAT     H138304   2.064   3.799   0.468 -1.5499  0.2797  0.4975
 9396WAT     H238305   2.014   3.713   0.373 -1.6968  0.6928  0.1959
 9396WAT    EPW38306   2.034   3.729   0.447 -0.6158 -0.0292  0.0999
 9397WAT      O38307   2.448   2.399   3.168 -0.0230  0.0703 -0.1511
 9397WAT     H138308   2.474   2.341   3.228 -1.3200 -0.6027 -0.2095
 9397WAT     H238309   2.448   2.475   3.211 -2.0572 -0.5514  1.1095
 9397WAT    EPW38310   2.452   2.401   3.183 -0.5151 -0.1209  0.0265
 9398WAT      O38311   5.343   5.452   2.377 -0.4504  0.1913  0.0938
 9398WAT     H138312   5.389   5.505   2.326  1.0926  0.5605  1.7416
 9398WAT     H238313   5.369   5.372   2.352  0.5978  0.3781  0.5152
 9398WAT    EPW38314   5.354   5.448   2.366 -0.0676  0.2735  0.3995
 9399WAT      O38315   6.296   2.788   3.352  0.3952  0.6917  0.2742
 9399WAT     H138316   6.338   2.741   3.291  0.2646  1.1260 -0.1547
 9399WAT     H238317   6.350   2.855   3.367  0.0488  1.0249  0.0325
 9399WAT    EPW38318   6.310   2.791   3.345  0.3247  0.8051  0.1752
 9400WAT      O38319   0.964   3.510   4.441  0.0863 -0.7731 -0.5337
 9400WAT     H138320   1.046   3.491   4.464  0.5956  1.8264  0.0995
 9400WAT     H238321   0.956   3.470   4.364  1.9086 -1.2260 -0.5542
 9400WAT    EPW38322   0.975   3.501   4.433  0.4307 -0.4560 -0.4432
 9401WAT      O38323   4.273   6.039   2.486  0.2417  0.0844  0.0974
 9401WAT     H138324   4.266   6.122   2.459 -1.0138 -0.2786 -0.7896
 9401WAT     H238325   4.287   5.995   2.413 -1.0605 -0.6901  0.2806
 9401WAT    EPW38326   4.274   6.045   2.472 -0.1361 -0.0837 -0.0065
 9402WAT      O38327   5.940   0.623   3.494  0.5318 -0.3286  0.0043
 9402WAT     H138328   5.854   0.609   3.496  0.2940  0.4890 -2.2345
 9402WAT     H238329   5.952   0.669   3.421  2.9098 -0.6433  0.1183
 9402WAT    EPW38330   5.929   0.628   3.483  0.8480 -0.2543 -0.3096
 9403WAT      O38331   1.428   4.170   0.815  0.1215  0.1046 -0.0663
 9403WAT     H138332   1.417   4.132   0.737  0.7671 -2.8983  1.1609
 9403WAT     H238333   1.497   4.222   0.803  0.0863 -0.1342 -1.5379
 9403WAT    EPW38334   1.436   4.172   0.801  0.2116 -0.3743 -0.1024
 9404WAT      O38335   2.781   6.638   2.650 -0.1228  1.0884  0.0350
 9404WAT     H138336   2.730   6.705   2.675 -1.0382  0.4804 -0.1497
 9404WAT     H238337   2.733   6.598   2.589  0.0478 -0.2138  0.7241
 9404WAT    EPW38338   2.766   6.642   2.645 -0.2328  0.8062  0.1095
 9405WAT      O38339   0.718   3.508   0.575 -0.4907  0.3020  0.2430
 9405WAT     H138340   0.722   3.429   0.612 -0.7647  0.2465  0.1554
 9405WAT     H238341   0.736   3.493   0.491 -3.5163 -0.1573 -0.4579
 9405WAT    EPW38342   0.721   3.494   0.568 -0.9781  0.2259  0.1265
 9406WAT      O38343   4.773   0.657   2.746  0.0735  0.0381 -1.2404
 9406WAT     H138344   4.786   0.601   2.680  1.7074  0.2686 -1.1751
 9406WAT     H238345   4.848   0.654   2.791 -0.3670  1.1402 -0.3543
 9406WAT    EPW38346   4.786   0.649   2.743  0.2498  0.2349 -1.0999
 9407WAT      O38347   5.804   6.379   0.853  0.7363  0.6819 -0.7434
 9407WAT     H138348   5.856   6.366   0.784  0.9531  1.4077 -0.7302
 9407WAT     H238349   5.854   6.426   0.907  2.0651 -3.1299  1.7451
 9407WAT    EPW38350   5.819   6.384   0.851  0.9646  0.2260 -0.3739
 9408WAT      O38351   2.488   5.255   6.558  0.6662 -0.1044  0.0145
 9408WAT     H138352   2.565   5.260   6.599  0.2860  1.4658  0.6465
 9408WAT     H238353   2.434   5.227   6.621  0.5983 -0.5709 -0.2486
 9408WAT    EPW38354   2.491   5.252   6.573  0.6000  0.0586  0.0690
 9409WAT      O38355   5.652   4.703   5.553  0.3564 -0.4952  0.0280
 9409WAT     H138356   5.635   4.771   5.605  0.3711 -0.2966 -0.2270
 9409WAT     H238357   5.587   4.705   5.495  1.3187  0.3896 -1.0788
 9409WAT    EPW38358   5.640   4.713   5.552  0.5008 -0.3351 -0.1732
 9410WAT      O38359   4.890   5.655   1.766 -0.2534  0.0806 -0.1676
 9410WAT     H138360   4.925   5.693   1.836  2.4898 -0.8865 -0.8623
 9410WAT     H238361   4.844   5.719   1.728 -0.9188  0.8979  1.9212
 9410WAT    EPW38362   4.888   5.670   1.770  0.0535  0.0585  0.0383
 9411WAT      O38363   3.211   1.797   5.999 -0.5715 -0.4350  0.0395
 9411WAT     H138364   3.249   1.856   5.948  2.7549 -2.6012 -0.3543
 9411WAT     H238365   3.158   1.754   5.945  0.2804 -0.4992 -0.7710
 9411WAT    EPW38366   3.209   1.799   5.984  0.0457 -0.7645 -0.1384
 9412WAT      O38367   3.156   1.290   1.836  0.2695 -0.0102 -0.2615
 9412WAT     H138368   3.214   1.335   1.884  0.8418 -0.3476 -0.6142
 9412WAT     H238369   3.092   1.347   1.822 -0.2996 -0.1606  1.5725
 9412WAT    EPW38370   3.155   1.305   1.841  0.2700 -0.0823 -0.0427
 9413WAT      O38371   5.601   6.146   6.254 -0.4674  0.0491 -0.0849
 9413WAT     H138372   5.581   6.205   6.315  1.8777  0.2143  0.6087
 9413WAT     H238373   5.543   6.082   6.268 -0.8009  0.6488  1.4756
 9413WAT    EPW38374   5.590   6.145   6.265 -0.1702  0.1621  0.2481
 9414WAT      O38375   4.323   6.280   5.222  0.4478 -0.1093 -0.1525
 9414WAT     H138376   4.268   6.233   5.174 -0.6990  0.4121  0.6104
 9414WAT     H238377   4.312   6.248   5.302  2.2875 -0.9328 -0.1838
 9414WAT    EPW38378   4.313   6.268   5.227  0.5501 -0.1540 -0.0444
 9415WAT      O38379   4.011   3.083   2.947 -0.2132  0.2052 -0.7051
 9415WAT     H138380   4.092   3.067   2.974  0.3397  1.3683 -1.6049
 9415WAT     H238381   3.982   3.143   3.003 -0.8543 -0.9438  0.2424
 9415WAT    EPW38382   4.019   3.089   2.959 -0.2262  0.2073 -0.6981
 9416WAT      O38383   0.259   0.719   6.515 -0.3180  0.5353  0.0383
 9416WAT     H138384   0.222   0.671   6.453 -0.4987 -0.1737  0.6858
 9416WAT     H238385   0.253   0.801   6.484 -3.3211  0.6104  0.5030
 9416WAT    EPW38386   0.252   0.724   6.501 -0.7883  0.4417  0.2026
 9417WAT      O38387   6.389   4.699   4.434 -0.2981 -0.0634 -0.6674
 9417WAT     H138388   6.339   4.650   4.486 -0.8457 -0.3935 -1.4745
 9417WAT     H238389   6.457   4.721   4.485 -1.2290  0.3524  0.4378
 9417WAT    EPW38390   6.392   4.695   4.449 -0.5165 -0.0508 -0.6233
 9418WAT      O38391   5.579   6.981   4.441 -0.6866 -0.3059 -0.2453
 9418WAT     H138392   5.664   6.998   4.437 -0.6421 -0.6936 -1.5356
 9418WAT     H238393   5.542   7.058   4.423 -0.5583 -0.5047 -1.4635
 9418WAT    EPW38394   5.586   6.995   4.437 -0.6611 -0.3926 -0.6159
 9419WAT      O38395   5.213   0.967   1.365 -0.2092 -0.5451  0.1151
 9419WAT     H138396   5.165   0.924   1.305 -2.3161  0.5760  0.8977
 9419WAT     H238397   5.183   0.936   1.441  0.1301  0.3929  0.6392
 9419WAT    EPW38398   5.202   0.956   1.367 -0.4703 -0.2409  0.3081
 9420WAT      O38399   5.716   3.684   4.354  0.2584 -0.1437 -0.4315
 9420WAT     H138400   5.781   3.741   4.342 -0.7752  0.7703 -2.0399
 9420WAT     H238401   5.660   3.727   4.405 -1.0313  0.7878 -2.5253
 9420WAT    EPW38402   5.718   3.699   4.360 -0.0848  0.1290 -0.9784
 9421WAT      O38403   4.205   4.632   1.983 -0.3215  0.2707  0.1214
 9421WAT     H138404   4.121   4.619   1.965 -0.6707  1.4268  0.8338
 9421WAT     H238405   4.246   4.609   1.909 -1.3551  0.7843 -0.6328
 9421WAT    EPW38406   4.199   4.627   1.969 -0.5258  0.5173  0.1152
 9422WAT      O38407   5.604   3.697   2.471  0.1168 -0.1994  0.6044
 9422WAT     H138408   5.579   3.623   2.510  1.7067 -1.0925  0.0465
 9422WAT     H238409   5.601   3.756   2.535 -1.5653 -0.6233  0.9694
 9422WAT    EPW38410   5.600   3.694   2.486  0.1032 -0.3939  0.5759
 9423WAT      O38411   3.848   4.220   1.672 -0.4083  0.1895  0.5650
 9423WAT     H138412   3.846   4.133   1.663 -0.8450  0.0578  1.6847
 9423WAT     H238413   3.785   4.235   1.731 -1.4495  1.4427 -0.8074
 9423WAT    EPW38414   3.839   4.209   1.680 -0.6267  0.3552  0.5277
 9424WAT      O38415   3.634   5.420   7.150  0.2989  0.7463 -0.2364
 9424WAT     H138416   3.597   5.350   7.115  2.0687 -0.2997 -0.1422
 9424WAT     H238417   3.611   5.417   7.234  0.0463  0.5102 -0.3157
 9424WAT    EPW38418   3.625   5.409   7.157  0.5230  0.5569 -0.2342
 9425WAT      O38419   4.948   2.842   7.061  0.4517  0.2503  0.0871
 9425WAT     H138420   4.994   2.856   6.988  0.0414 -1.9557 -0.6971
 9425WAT     H238421   4.871   2.813   7.030  0.6439 -1.7918  1.3265
 9425WAT    EPW38422   4.943   2.840   7.045  0.4195 -0.3772  0.1543
 9426WAT      O38423   1.831   2.888   3.493 -0.0771 -0.0382  0.1166
 9426WAT     H138424   1.864   2.820   3.536 -2.0377 -1.3705 -0.3372
 9426WAT     H238425   1.746   2.869   3.487 -0.3581  1.5102 -1.7677
 9426WAT    EPW38426   1.823   2.876   3.499 -0.4082 -0.0063 -0.2288
 9427WAT      O38427   1.406   6.663   2.491  0.2325  0.0876 -0.3420
 9427WAT     H138428   1.460   6.596   2.476  0.8559  0.0154  1.8726
 9427WAT     H238429   1.374   6.647   2.570 -1.3336  1.3118 -0.6658
 9427WAT    EPW38430   1.409   6.651   2.500  0.0932  0.2578 -0.0627
 9428WAT      O38431   5.946   3.076   1.365  0.1730  0.0429  0.1823
 9428WAT     H138432   5.874   3.041   1.330 -0.5093  1.3995  0.1938
 9428WAT     H238433   5.917   3.112   1.439  1.3860 -1.7978  1.6347
 9428WAT    EPW38434   5.931   3.076   1.371  0.2514 -0.0286  0.3985
 9429WAT      O38435   4.869   4.281   1.570  0.7877 -0.3499 -0.3709
 9429WAT     H138436   4.820   4.213   1.544  0.3319 -0.3179  0.3769
 9429WAT     H238437   4.923   4.294   1.503 -1.4518  0.8088 -2.0996
 9429WAT    EPW38438   4.870   4.273   1.556  0.3895 -0.1740 -0.5158
 9430WAT      O38439   1.425   7.084   7.229 -0.5080  0.0809  0.5405
 9430WAT     H138440   1.432   7.001   7.255 -1.3476  0.2396  1.3375
 9430WAT     H238441   1.363   7.082   7.169  0.9976 -0.1860 -1.0786
 9430WAT    EPW38442   1.417   7.072   7.224 -0.4096  0.0649  0.4191
 9431WAT      O38443   2.729   1.210   4.197 -0.5124 -0.1246 -0.5093
 9431WAT     H138444   2.670   1.155   4.229 -0.8902 -1.2006 -2.8094
 9431WAT     H238445   2.691   1.289   4.205 -0.2777 -0.2111  2.1418
 9431WAT    EPW38446   2.715   1.214   4.203 -0.5335 -0.2964 -0.4575
 9432WAT      O38447   3.536   3.649   1.244  0.3070  0.2607  0.0094
 9432WAT     H138448   3.581   3.590   1.198 -0.0506 -1.0843  1.2965
 9432WAT     H238449   3.596   3.686   1.295  0.3293  0.1277  0.0796
 9432WAT    EPW38450   3.551   3.646   1.245  0.2574  0.0424  0.2099
 9433WAT      O38451   5.070   4.004   2.400  0.3563  0.3163 -0.3461
 9433WAT     H138452   5.027   3.945   2.447  0.7221 -0.9986 -1.5867
 9433WAT     H238453   5.050   4.080   2.438 -1.9859 -0.3508 -0.0726
 9433WAT    EPW38454   5.061   4.007   2.412  0.0644  0.0235 -0.4890
 9434WAT      O38455   2.986   0.453   0.828  0.0530 -0.6975 -0.3524
 9434WAT     H138456   2.983   0.528   0.784  0.2957 -0.1736  0.4863
 9434WAT     H238457   3.057   0.461   0.877 -0.4813 -1.0301  0.5043
 9434WAT    EPW38458   2.996   0.465   0.829  0.0099 -0.6692 -0.1019
 9435WAT      O38459   4.648   2.663   3.136  0.4348  0.0852  0.7099
 9435WAT     H138460   4.695   2.676   3.064 -0.7929  2.0902  0.1867
 9435WAT     H238461   4.611   2.741   3.151 -0.1775 -0.5537  2.9150
 9435WAT    EPW38462   4.649   2.676   3.128  0.1630  0.2870  0.9584
 9436WAT      O38463   1.544   7.008   1.540 -0.2506 -0.0669  0.4178
 9436WAT     H138464   1.606   7.044   1.589  0.8232 -0.7808 -0.3723
 9436WAT     H238465   1.525   6.934   1.582 -2.5218  1.3341  2.0907
 9436WAT    EPW38466   1.550   7.002   1.553 -0.4275  0.0346  0.5482
 9437WAT      O38467   5.312   6.206   1.824 -0.0449  0.0358  0.2652
 9437WAT     H138468   5.337   6.136   1.778 -1.7613  0.0607 -0.8135
 9437WAT     H238469   5.225   6.201   1.822 -0.2044  0.7523  2.4867
 9437WAT    EPW38470   5.303   6.195   1.817 -0.3220  0.1453  0.4340
 9438WAT      O38471   6.376   3.764   2.484  0.5334 -0.1042  0.1594
 9438WAT     H138472   6.295   3.769   2.451  0.4080 -0.9037  0.3227
 9438WAT     H238473   6.379   3.685   2.519  1.0877  0.2603  0.9666
 9438WAT    EPW38474   6.364   3.753   2.484  0.5968 -0.1685  0.3028
 9439WAT      O38475   6.403   1.450   3.701  0.1566  0.0850  0.5976
 9439WAT     H138476   6.334   1.403   3.726 -1.2272  1.5115 -0.3426
 9439WAT     H238477   6.463   1.390   3.682 -0.6432 -1.1931  1.8691
 9439WAT    EPW38478   6.401   1.434   3.702 -0.1659  0.1069  0.6466
 9440WAT      O38479   7.250   4.432   5.241 -0.6336  0.1447  0.5074
 9440WAT     H138480   7.262   4.476   5.166  0.1174  1.9017  1.5848
 9440WAT     H238481   7.324   4.389   5.252 -1.2041 -1.1047 -0.3322
 9440WAT    EPW38482   7.262   4.432   5.231 -0.6069  0.2197  0.5425
 9441WAT      O38483   2.483   1.679   3.689 -0.0021  0.7013  0.5767
 9441WAT     H138484   2.412   1.642   3.656 -0.2080  0.5417  1.1925
 9441WAT     H238485   2.539   1.679   3.621 -0.4180  0.3947  0.2274
 9441WAT    EPW38486   2.481   1.673   3.674 -0.0940  0.6324  0.6160
 9442WAT      O38487   4.378   6.473   2.574  0.5769 -0.1731  0.0337
 9442WAT     H138488   4.361   6.552   2.541  1.3802 -0.0804 -0.1865
 9442WAT     H238489   4.375   6.487   2.661  1.0504  0.1865 -0.0002
 9442WAT    EPW38490   4.375   6.487   2.582  0.7655 -0.1063 -0.0038
 9443WAT      O38491   3.076   6.343   6.118 -0.5041  0.2807 -0.3678
 9443WAT     H138492   3.158   6.343   6.147 -0.8357  1.4627  0.6750
 9443WAT     H238493   3.084   6.343   6.032  0.5595 -1.4356 -0.3052
 9443WAT    EPW38494   3.089   6.343   6.110 -0.3960  0.2018 -0.2045
 9444WAT      O38495   4.428   1.246   1.129  0.2155  0.3847 -0.2773
 9444WAT     H138496   4.409   1.161   1.137  1.2588  0.2264  0.6450
 9444WAT     H238497   4.481   1.263   1.196 -1.0185  2.0891  0.3469
 9444WAT    EPW38498   4.433   1.236   1.140  0.1873  0.6131 -0.0488
 9445WAT      O38499   6.551   0.875   1.314 -0.0781  0.8153  0.3633
 9445WAT     H138500   6.631   0.839   1.317 -0.1583  0.5888  3.6525
 9445WAT     H238501   6.499   0.807   1.298  0.2809  0.8409 -1.0566
 9445WAT    EPW38502   6.555   0.860   1.312 -0.0369  0.7856  0.6394
 9446WAT      O38503   7.274   5.556   0.486 -0.1922 -0.2718  0.4842
 9446WAT     H138504   7.355   5.586   0.474  0.0162 -0.5314  1.1911
 9446WAT     H238505   7.225   5.628   0.478  0.1853  0.0358  0.8917
 9446WAT    EPW38506   7.279   5.571   0.483 -0.1056 -0.2647  0.6488
 9447WAT      O38507   0.438   0.153   3.843  0.2171  0.3434 -0.4666
 9447WAT     H138508   0.371   0.118   3.887  0.8167  0.0324  0.2226
 9447WAT     H238509   0.450   0.230   3.881 -0.3833  0.8393 -1.2534
 9447WAT    EPW38510   0.430   0.159   3.855  0.2170  0.3707 -0.4810
 9448WAT      O38511   6.629   0.093   4.073  0.2513 -0.0547  0.2312
 9448WAT     H138512   6.676   0.048   4.015 -1.0643 -1.4552  0.1966
 9448WAT     H238513   6.689   0.137   4.118  1.5046 -1.0030 -0.4506
 9448WAT    EPW38514   6.645   0.093   4.071  0.2421 -0.4017  0.1254
 9449WAT      O38515   2.901   3.958   1.373 -0.0194  0.2468 -0.5336
 9449WAT     H138516   2.838   3.897   1.380  0.0335  0.3820  1.5627
 9449WAT     H238517   2.966   3.915   1.334 -0.4929 -0.6316 -0.3874
 9449WAT    EPW38518   2.901   3.943   1.368 -0.0815  0.1370 -0.2023
 9450WAT      O38519   2.276   1.875   3.237 -0.6044  0.6276  0.4096
 9450WAT     H138520   2.302   1.915   3.164 -0.7422 -1.2007 -0.6722
 9450WAT     H238521   2.347   1.878   3.288 -0.0535  0.6131 -0.3535
 9450WAT    EPW38522   2.290   1.881   3.234 -0.5433  0.3554  0.1370
 9451WAT      O38523   7.161   1.300   7.216  0.2229 -0.0427  0.0843
 9451WAT     H138524   7.215   1.237   7.243 -0.6727 -1.8307 -1.9853
 9451WAT     H238525   7.130   1.270   7.140 -0.3482  2.8687 -0.9904
 9451WAT    EPW38526   7.164   1.286   7.209  0.0062  0.1233 -0.3802
 9452WAT      O38527   2.922   4.939   1.134 -0.0742 -0.0291 -0.1492
 9452WAT     H138528   2.900   4.951   1.217  0.2521  0.2400 -0.1016
 9452WAT     H238529   2.984   4.877   1.138  1.8673  1.8015  0.0718
 9452WAT    EPW38530   2.928   4.932   1.147  0.2608  0.2810 -0.1095
 9453WAT      O38531   5.803   1.734   4.818  0.0758  0.0538 -0.2779
 9453WAT     H138532   5.856   1.800   4.796  0.5332 -0.9867 -2.5128
 9453WAT     H238533   5.858   1.671   4.844 -0.3077  0.1773  0.8949
 9453WAT    EPW38534   5.819   1.734   4.819  0.0867 -0.0816 -0.4348
 9454WAT      O38535   0.324   0.093   1.891  0.1978  0.1120 -0.7978
 9454WAT     H138536   0.412   0.095   1.897  0.2483  0.0383 -1.4598
 9454WAT     H238537   0.310   0.050   1.817 -0.4001  0.2864 -0.7854
 9454WAT    EPW38538   0.335   0.087   1.881  0.1169  0.1269 -0.8938
 9455WAT      O38539   4.025   7.077   2.394 -0.3582  0.1041  0.2334
 9455WAT     H138540   3.947   7.097   2.362 -0.5697 -1.0650 -0.0486
 9455WAT     H238541   4.007   7.024   2.461  0.1939 -0.5003 -0.0843
 9455WAT    EPW38542   4.011   7.072   2.399 -0.3079 -0.1579  0.1448
 9456WAT      O38543   2.203   5.223   7.168 -0.3620 -0.2609 -0.1033
 9456WAT     H138544   2.233   5.269   7.236 -0.0033  1.0790 -1.1228
 9456WAT     H238545   2.117   5.220   7.182 -0.1845 -1.0475  0.9993
 9456WAT    EPW38546   2.195   5.229   7.180 -0.2828 -0.1792 -0.0910
 9457WAT      O38547   2.537   6.834   1.761 -0.0654  0.1659 -0.2830
 9457WAT     H138548   2.549   6.859   1.844 -0.8272  2.4128 -0.7778
 9457WAT     H238549   2.452   6.816   1.757 -0.0842  0.3136 -0.6212
 9457WAT    EPW38550   2.526   6.835   1.772 -0.1807  0.5196 -0.4060
 9458WAT      O38551   2.839   2.590   6.784  0.0837 -0.2856 -0.0227
 9458WAT     H138552   2.884   2.632   6.846 -0.9926  0.4697  0.2698
 9458WAT     H238553   2.814   2.516   6.823  0.7905 -0.5620 -0.0870
 9458WAT    EPW38554   2.842   2.586   6.799  0.0291 -0.2149  0.0110
 9459WAT      O38555   1.240   4.243   1.981  0.4775  0.0075 -0.3031
 9459WAT     H138556   1.155   4.259   1.991 -0.1576 -2.3246 -1.2011
 9459WAT     H238557   1.279   4.311   2.019 -1.7715  1.9971 -1.3224
 9459WAT    EPW38558   1.233   4.255   1.988  0.0515 -0.0431 -0.5863
 9460WAT      O38559   1.803   6.376   4.667  0.1122  0.0171  0.7331
 9460WAT     H138560   1.813   6.296   4.701  0.1095  0.2755  1.3627
 9460WAT     H238561   1.883   6.410   4.671  0.3658 -0.3616 -0.6315
 9460WAT    EPW38562   1.816   6.369   4.673  0.1493 -0.0006  0.6245
 9461WAT      O38563   4.791   2.535   0.099  0.2545 -0.3565  0.8227
 9461WAT     H138564   4.861   2.544   0.151  0.3017  2.1907  0.4599
 9461WAT     H238565   4.770   2.618   0.079 -2.3890 -1.0759  0.2600
 9461WAT    EPW38566   4.799   2.549   0.104 -0.1290 -0.0865  0.6860
 9462WAT      O38567   6.797   6.968   0.687  0.1712 -0.1711  0.0104
 9462WAT     H138568   6.816   7.047   0.656 -2.1969  0.4250 -0.1645
 9462WAT     H238569   6.724   6.981   0.734  0.0183 -2.1505  0.4253
 9462WAT    EPW38570   6.789   6.981   0.689 -0.2012 -0.3755  0.0459
 9463WAT      O38571   2.374   0.711   2.647  0.4353 -0.1439 -0.2907
 9463WAT     H138572   2.450   0.676   2.625  0.2303 -0.4919 -0.4524
 9463WAT     H238573   2.332   0.647   2.688  0.0290 -0.1144 -0.6520
 9463WAT    EPW38574   2.379   0.697   2.650  0.3450 -0.1909 -0.3680
 9464WAT      O38575   7.104   6.477   2.105 -0.0788 -0.0847  0.8597
 9464WAT     H138576   7.118   6.392   2.121 -0.9331 -0.0053  2.1584
 9464WAT     H238577   7.027   6.492   2.142 -1.1291  0.7102 -1.4619
 9464WAT    EPW38578   7.095   6.467   2.113 -0.3601  0.0444  0.7086
 9465WAT      O38579   2.481   4.135   6.294  0.1313 -0.1641 -0.1341
 9465WAT     H138580   2.536   4.082   6.251 -0.6604 -0.9249 -0.2469
 9465WAT     H238581   2.403   4.115   6.260 -0.1838  1.1943 -0.2800
 9465WAT    EPW38582   2.477   4.124   6.283 -0.0322 -0.0758 -0.1723
 9466WAT      O38583   3.001   1.050   2.168 -0.5452 -0.2189 -0.1027
 9466WAT     H138584   2.988   1.136   2.158 -0.9582 -0.1095  1.1480
 9466WAT     H238585   3.021   1.043   2.253  1.1350 -1.1842 -0.5339
 9466WAT    EPW38586   3.002   1.062   2.179 -0.3580 -0.3453  0.0184
 9467WAT      O38587   5.157   3.741   5.948  0.3052 -0.0138  0.5916
 9467WAT     H138588   5.071   3.742   5.964 -0.1125  0.5401 -1.4024
 9467WAT     H238589   5.177   3.825   5.936  1.0343 -0.1801  0.5834
 9467WAT    EPW38590   5.147   3.753   5.949  0.3512  0.0434  0.2958
 9468WAT      O38591   5.627   0.122   4.063  0.5966 -0.2418  0.3123
 9468WAT     H138592   5.590   0.187   4.018  0.1385 -0.6504  0.0861
 9468WAT     H238593   5.654   0.161   4.137  3.3848  0.9445 -1.1645
 9468WAT    EPW38594   5.626   0.138   4.067  0.9408 -0.1269  0.0607
 9469WAT      O38595   4.819   2.681   0.466  0.1310  0.0987 -0.0912
 9469WAT     H138596   4.835   2.764   0.443  2.6320 -0.5629 -1.0215
 9469WAT     H238597   4.760   2.655   0.408 -0.1077  0.9955 -0.2734
 9469WAT    EPW38598   4.813   2.689   0.454  0.4652  0.1334 -0.2555
 9470WAT      O38599   1.525   1.698   4.581 -0.0200 -0.0393 -0.1251
 9470WAT     H138600   1.559   1.713   4.660 -0.4817 -1.6376  0.4206
 9470WAT     H238601   1.558   1.761   4.532 -1.2031  2.1875  1.7495
 9470WAT    EPW38602   1.535   1.709   4.585 -0.2630  0.0536  0.2324
 9471WAT      O38603   2.388   5.203   6.979 -0.0383 -0.9135 -0.2144
 9471WAT     H138604   2.325   5.215   7.038 -1.6342  0.1249 -2.0225
 9471WAT     H238605   2.457   5.244   7.014 -1.3869  1.0804  0.2573
 9471WAT    EPW38606   2.389   5.211   6.993 -0.4733 -0.4656 -0.4118
 9472WAT      O38607   5.061   2.577   7.089  0.5460  0.0421  0.0132
 9472WAT     H138608   5.022   2.651   7.066 -2.4404 -1.6930 -1.1567
 9472WAT     H238609   5.018   2.552   7.161  0.6245 -1.1231 -0.3108
 9472WAT    EPW38610   5.049   2.584   7.097  0.1164 -0.3863 -0.2075
 9473WAT      O38611   0.368   4.584   1.107  0.4664 -1.0242  0.2112
 9473WAT     H138612   0.421   4.586   1.038  1.2816 -0.1867  0.8352
 9473WAT     H238613   0.363   4.668   1.132  0.1853 -1.3049  1.1681
 9473WAT    EPW38614   0.375   4.597   1.101  0.5453 -0.9419  0.4447
 9474WAT      O38615   0.441   6.622   4.543 -0.1380 -0.0901 -0.1153
 9474WAT     H138616   0.409   6.679   4.601 -2.4019 -0.4382 -0.9212
 9474WAT     H238617   0.482   6.673   4.485 -0.8018  0.6060  0.0065
 9474WAT    EPW38618   0.442   6.638   4.543 -0.5705 -0.0387 -0.2164
 9475WAT      O38619   6.375   2.619   4.971  0.4879 -0.7519  0.3455
 9475WAT     H138620   6.356   2.542   5.007 -0.2806 -0.9079 -0.3595
 9475WAT     H238621   6.420   2.596   4.899  2.3174 -0.4367  1.3141
 9475WAT    EPW38622   6.379   2.604   4.965  0.6446 -0.7284  0.3844
 9476WAT      O38623   0.343   1.371   6.937 -0.3363  0.5060  0.6300
 9476WAT     H138624   0.413   1.352   6.986 -0.3226 -0.5320  0.2315
 9476WAT     H238625   0.362   1.449   6.904  2.4404 -1.1986 -2.4563
 9476WAT    EPW38626   0.356   1.380   6.939  0.0759  0.1009  0.1152
 9477WAT      O38627   6.395   0.513   7.117 -0.0533 -0.2745 -0.4015
 9477WAT     H138628   6.360   0.590   7.095 -0.1930 -0.7553 -1.9866
 9477WAT     H238629   6.437   0.488   7.044  0.5793 -1.3705  0.3114
 9477WAT    EPW38630   6.396   0.520   7.103  0.0195 -0.5075 -0.5304
 9478WAT      O38631   5.683   4.081   2.048  0.9105 -0.0971  0.5613
 9478WAT     H138632   5.638   4.012   2.076  1.5472 -0.4447  0.7525
 9478WAT     H238633   5.744   4.091   2.110  2.3520 -0.8899 -0.6841
 9478WAT    EPW38634   5.685   4.072   2.062  1.2175 -0.2656  0.4055
 9479WAT      O38635   2.945   3.185   1.046  0.0321 -0.8112  0.3884
 9479WAT     H138636   3.000   3.246   1.017 -1.1356 -0.1168 -0.4560
 9479WAT     H238637   2.985   3.153   1.117  1.2521  0.0474  0.1167
 9479WAT    EPW38638   2.959   3.189   1.052  0.0398 -0.5818  0.2235
 9480WAT      O38639   2.018   6.221   6.597 -0.3925 -0.1205  0.1297
 9480WAT     H138640   2.058   6.265   6.661 -0.3543  0.3950 -0.2443
 9480WAT     H238641   2.056   6.143   6.599  1.3088  0.6228 -0.7976
 9480WAT    EPW38642   2.030   6.216   6.607 -0.1356  0.0654 -0.0626
 9481WAT      O38643   4.570   0.543   6.526 -0.2582  0.0281  0.4373
 9481WAT     H138644   4.494   0.527   6.567  0.1438 -1.1113  0.7538
 9481WAT     H238645   4.582   0.473   6.476 -0.3667  1.0688 -1.1087
 9481WAT    EPW38646   4.560   0.531   6.525 -0.2148  0.0135  0.2557
 9482WAT      O38647   2.205   6.657   6.382 -0.7901  0.0785  0.4891
 9482WAT     H138648   2.281   6.679   6.343 -1.5294  1.1064 -0.4521
 9482WAT     H238649   2.214   6.687   6.463  0.3414 -1.0602  0.8095
 9482WAT    EPW38650   2.218   6.665   6.388 -0.7322  0.0621  0.3974
 9483WAT      O38651   6.809   2.214   0.779 -0.4349 -0.5408 -0.3207
 9483WAT     H138652   6.739   2.229   0.730  0.9213  0.8804 -1.9180
 9483WAT     H238653   6.831   2.132   0.758 -0.3984 -0.2629 -1.4185
 9483WAT    EPW38654   6.802   2.204   0.769 -0.2291 -0.2898 -0.7189
 9484WAT      O38655   6.326   2.274   1.720  0.0968 -0.1526  0.5110
 9484WAT     H138656   6.340   2.286   1.805 -0.7297  3.0123  0.3459
 9484WAT     H238657   6.239   2.271   1.714  0.1486 -0.4570 -0.2115
 9484WAT    EPW38658   6.315   2.276   1.731 -0.0176  0.2699  0.3799
 9485WAT      O38659   3.745   5.797   1.964 -0.6304 -0.1988  0.0565
 9485WAT     H138660   3.665   5.762   1.967 -0.0706 -1.5158  2.1422
 9485WAT     H238661   3.758   5.825   2.046  1.5794 -1.4650  0.2503
 9485WAT    EPW38662   3.735   5.796   1.977 -0.2213 -0.5804  0.3932
 9486WAT      O38663   2.266   2.643   1.557  0.0503 -0.1187  0.2073
 9486WAT     H138664   2.216   2.574   1.538  1.0813 -0.8472  0.0370
 9486WAT     H238665   2.301   2.665   1.480 -0.6507  0.9363  0.1616
 9486WAT    EPW38666   2.264   2.636   1.543  0.0991 -0.0705  0.1754
 9487WAT      O38667   2.754   4.759   0.988  0.0734 -0.4163 -0.4123
 9487WAT     H138668   2.808   4.820   1.019  1.5619 -1.4436 -0.8693
 9487WAT     H238669   2.783   4.744   0.907 -0.5366 -1.3917 -0.4768
 9487WAT    EPW38670   2.766   4.766   0.981  0.2032 -0.7122 -0.4894
 9488WAT      O38671   4.858   6.192   2.765  0.1034  0.6850 -0.3294
 9488WAT     H138672   4.848   6.193   2.678 -0.1158 -1.7242 -0.3868
 9488WAT     H238673   4.943   6.173   2.775  0.4235  2.1827  0.0371
 9488WAT    EPW38674   4.869   6.190   2.753  0.1183  0.5503 -0.2837
 9489WAT      O38675   1.169   2.276   0.921  0.7952  0.1994 -0.3378
 9489WAT     H138676   1.116   2.239   0.863  1.4518  1.8031 -2.0555
 9489WAT     H238677   1.140   2.246   0.998 -3.5083  1.9489 -1.0157
 9489WAT    EPW38678   1.157   2.266   0.924  0.2565  0.6947 -0.6917
 9490WAT      O38679   3.664   4.005   4.158  0.2215  0.0611  0.1629
 9490WAT     H138680   3.714   3.957   4.212  0.0627 -1.2606 -0.8175
 9490WAT     H238681   3.703   3.996   4.081  0.9768  2.6984  0.1527
 9490WAT    EPW38682   3.677   3.996   4.155  0.3096  0.2554  0.0166
 9491WAT      O38683   0.932   3.861   3.343  0.3639 -0.0300 -0.1215
 9491WAT     H138684   0.874   3.894   3.287 -0.2321  0.8043  0.9466
 9491WAT     H238685   1.007   3.900   3.322  0.4009 -0.5925 -1.0660
 9491WAT    EPW38686   0.934   3.871   3.332  0.2813  0.0102 -0.1033
 9492WAT      O38687   0.382   4.676   7.050 -0.6188  0.5449  0.3533
 9492WAT     H138688   0.439   4.638   7.105 -1.7103 -4.5010 -1.4396
 9492WAT     H238689   0.307   4.676   7.095 -0.6079  0.6908  0.3723
 9492WAT    EPW38690   0.379   4.670   7.065 -0.7784 -0.1789  0.0912
 9493WAT      O38691   3.001   5.638   2.211 -0.1346  0.4126  0.0470
 9493WAT     H138692   2.921   5.615   2.238  0.6418 -1.7170  0.7225
 9493WAT     H238693   3.053   5.578   2.247  1.5899  0.7668 -1.6943
 9493WAT    EPW38694   2.997   5.626   2.220  0.2348  0.1503 -0.1104
 9494WAT      O38695   6.563   3.785   5.585  0.1903  0.6062 -0.3527
 9494WAT     H138696   6.522   3.774   5.661 -1.2239  0.1997 -1.1391
 9494WAT     H238697   6.613   3.714   5.578 -0.2853  0.2465 -0.1638
 9494WAT    EPW38698   6.565   3.773   5.595 -0.0889  0.4930 -0.4410
 9495WAT      O38699   0.740   2.347   1.829 -0.2254  0.1325 -0.4729
 9495WAT     H138700   0.736   2.296   1.759 -0.0369  0.1019 -0.4604
 9495WAT     H238701   0.700   2.301   1.891  2.4822 -1.2907  0.3496
 9495WAT    EPW38702   0.733   2.333   1.828  0.2024 -0.0823 -0.3496
 9496WAT      O38703   5.849   6.033   6.301  0.5291  0.5502  0.1281
 9496WAT     H138704   5.765   6.055   6.294  0.7366  1.3696  0.1492
 9496WAT     H238705   5.890   6.109   6.309  1.1927  0.1254  0.9904
 9496WAT    EPW38706   5.843   6.047   6.301  0.6578  0.6085  0.2586
 9497WAT      O38707   2.065   6.945   2.681  0.3461 -0.0964  0.3846
 9497WAT     H138708   2.065   7.009   2.740 -0.3856  0.5706 -0.3131
 9497WAT     H238709   1.988   6.955   2.640  1.5643  0.6333 -1.9001
 9497WAT    EPW38710   2.053   6.956   2.684  0.4180  0.1099 -0.0559
 9498WAT      O38711   2.879   4.808   3.495 -0.1579  0.5359 -0.3791
 9498WAT     H138712   2.908   4.769   3.423 -0.7003 -1.1965  0.2722
 9498WAT     H238713   2.951   4.834   3.535  0.6267 -2.8281  0.7419
 9498WAT    EPW38714   2.894   4.806   3.490 -0.1221 -0.2169 -0.1173
 9499WAT      O38715   7.010   3.033   1.004  0.2076 -0.0335 -0.3579
 9499WAT     H138716   6.965   3.070   1.069 -0.0630  0.4255 -0.8018
 9499WAT     H238717   7.032   3.100   0.954  0.9390 -0.3178 -0.4229
 9499WAT    EPW38718   7.007   3.048   1.006  0.2756 -0.0077 -0.4331
 9500WAT      O38719   2.959   5.694   0.973 -0.4782 -0.9861  0.9791
 9500WAT     H138720   3.018   5.715   1.033 -0.4016 -0.3517  0.6935
 9500WAT     H238721   3.006   5.667   0.905 -0.3785  1.4392  0.0041
 9500WAT    EPW38722   2.974   5.693   0.972 -0.4522 -0.5341  0.7929
 9501WAT      O38723   6.424   0.901   5.412 -0.5652 -0.4021 -0.5312
 9501WAT     H138724   6.456   0.968   5.458 -0.4466 -0.8279  0.0165
 9501WAT     H238725   6.438   0.925   5.329 -1.0952  0.5235 -0.3639
 9501WAT    EPW38726   6.431   0.915   5.407 -0.6259 -0.3283 -0.4255
 9502WAT      O38727   0.532   5.251   3.968  1.0733 -0.2451  0.1066
 9502WAT     H138728   0.469   5.299   3.932  0.5059 -0.2663  1.0295
 9502WAT     H238729   0.568   5.305   4.026  1.7612 -0.3104 -0.2501
 9502WAT    EPW38730   0.528   5.266   3.971  1.0911 -0.2579  0.1902
 9503WAT      O38731   5.108   3.739   0.712  0.0426  0.6772 -0.5546
 9503WAT     H138732   5.101   3.817   0.750  0.1041  0.8546 -0.8983
 9503WAT     H238733   5.028   3.724   0.680  0.3403  1.1963 -1.6082
 9503WAT    EPW38734   5.095   3.748   0.713  0.0957  0.7801 -0.7610
 9504WAT      O38735   1.836   1.479   1.172 -0.3076 -0.1555 -0.0699
 9504WAT     H138736   1.750   1.465   1.176 -0.4819  1.0446  0.8173
 9504WAT     H238737   1.846   1.534   1.106 -0.6394  2.2872  1.7936
 9504WAT    EPW38738   1.825   1.485   1.163 -0.3823  0.3826  0.3364
 9505WAT      O38739   2.981   4.774   6.019  0.0710  0.1865  0.7019
 9505WAT     H138740   2.926   4.804   5.958 -0.4038  0.7318  1.3835
 9505WAT     H238741   2.969   4.829   6.086 -2.1745 -2.4310  2.7184
 9505WAT    EPW38742   2.971   4.786   6.020 -0.3309 -0.1196  1.1005
 9506WAT      O38743   3.002   5.668   3.046  0.6051 -0.6089 -0.0858
 9506WAT     H138744   3.083   5.690   3.019 -0.4606  2.3296 -1.3899
 9506WAT     H238745   2.952   5.730   3.011 -1.8892 -0.5648  3.1018
 9506WAT    EPW38746   3.007   5.681   3.036  0.0792 -0.1683  0.1924
 9507WAT      O38747   3.690   3.369   2.528 -0.0105 -0.6608  0.0947
 9507WAT     H138748   3.644   3.313   2.479  0.5899 -0.6525 -0.5049
 9507WAT     H238749   3.771   3.337   2.524  0.4603  0.5515 -0.7509
 9507WAT    EPW38750   3.695   3.356   2.520  0.1477 -0.4805 -0.1188
 9508WAT      O38751   4.675   0.465   6.781 -0.2396 -0.2458  0.0302
 9508WAT     H138752   4.646   0.470   6.699  0.6933 -0.5737 -0.3365
 9508WAT     H238753   4.727   0.395   6.780  1.9429  1.2736  0.1919
 9508WAT    EPW38754   4.679   0.455   6.769  0.2206 -0.0698 -0.0001
 9509WAT      O38755   6.805   3.828   1.985 -0.0469  0.3804 -0.4649
 9509WAT     H138756   6.754   3.889   1.948 -0.3869 -0.4173 -1.3557
 9509WAT     H238757   6.849   3.873   2.045 -0.6469  1.4115 -0.7522
 9509WAT    EPW38758   6.804   3.844   1.988 -0.1858  0.4149 -0.6389
 9510WAT      O38759   1.794   4.172   6.562 -0.1506 -0.3635  0.2711
 9510WAT     H138760   1.784   4.216   6.636  2.0975  1.2491 -0.2893
 9510WAT     H238761   1.732   4.204   6.510 -0.2485  0.1809  0.7190
 9510WAT    EPW38762   1.783   4.183   6.565  0.1671 -0.0449  0.2545
 9511WAT      O38763   4.369   3.194   2.645 -0.1870 -0.0337 -0.1076
 9511WAT     H138764   4.331   3.152   2.579 -1.9547  1.2581  0.0197
 9511WAT     H238765   4.402   3.266   2.606  1.9694 -0.9779 -0.1634
 9511WAT    EPW38766   4.368   3.199   2.629 -0.1296  0.0177 -0.0971
 9512WAT      O38767   6.059   4.858   0.691  0.1657 -0.2290  0.3041
 9512WAT     H138768   6.130   4.820   0.725 -0.7819 -0.3437  2.2604
 9512WAT     H238769   6.015   4.791   0.656  1.0536 -0.1353 -1.0759
 9512WAT    EPW38770   6.063   4.843   0.691  0.1569 -0.2321  0.3892
 9513WAT      O38771   6.670   0.158   3.338  0.6699 -0.0546  0.1868
 9513WAT     H138772   6.740   0.155   3.391  0.6493 -1.0930  0.1795
 9513WAT     H238773   6.603   0.160   3.394  0.6345 -1.5269  0.2333
 9513WAT    EPW38774   6.670   0.157   3.354  0.6617 -0.4254  0.1926
 9514WAT      O38775   6.413   3.549   6.660 -0.4722 -0.2787  0.4945
 9514WAT     H138776   6.466   3.481   6.646 -0.5871 -0.1585 -0.6405
 9514WAT     H238777   6.415   3.593   6.584 -1.3700  0.3069  0.7863
 9514WAT    EPW38778   6.421   3.546   6.647 -0.6218 -0.1744  0.3699
 9515WAT      O38779   1.640   4.248   4.831 -0.3064  0.5581 -0.2795
 9515WAT     H138780   1.671   4.174   4.866 -1.3942  1.1183  2.1328
 9515WAT     H238781   1.587   4.219   4.768 -1.1655 -0.8266  0.9779
 9515WAT    EPW38782   1.637   4.232   4.827 -0.5940  0.4363  0.2626
 9516WAT      O38783   1.297   0.342   0.739  0.0278 -0.1855 -0.4199
 9516WAT     H138784   1.240   0.289   0.780 -1.0538  1.9205  1.0165
 9516WAT     H238785   1.261   0.354   0.661 -0.6342 -0.2259 -0.1293
 9516WAT    EPW38786   1.283   0.336   0.734 -0.2298  0.1196 -0.1648
 9517WAT      O38787   4.362   3.289   3.575  0.0617 -0.0872 -0.2346
 9517WAT     H138788   4.301   3.244   3.619  1.6716 -0.8757  1.3427
 9517WAT     H238789   4.366   3.366   3.616  0.9145 -0.4818  0.4717
 9517WAT    EPW38790   4.354   3.293   3.588  0.4255 -0.2620  0.1027
 9518WAT      O38791   5.919   3.216   1.618 -0.7535 -0.7438 -0.0306
 9518WAT     H138792   5.908   3.293   1.656 -1.6866 -0.9982  0.2284
 9518WAT     H238793   6.001   3.195   1.638 -0.5675  0.0651  0.0941
 9518WAT    EPW38794   5.930   3.224   1.626 -0.8638 -0.6619  0.0261
 9519WAT      O38795   5.733   3.715   2.228  0.5714 -0.3261 -0.4940
 9519WAT     H138796   5.668   3.739   2.176  0.5380  0.5713 -0.0688
 9519WAT     H238797   5.695   3.706   2.306  0.9814  0.4396 -0.1911
 9519WAT    EPW38798   5.718   3.717   2.232  0.6270 -0.0804 -0.3864
 9520WAT      O38799   5.166   0.215   2.790  0.2584 -0.3463  0.4582
 9520WAT     H138800   5.224   0.150   2.790  0.0639 -0.5176  1.1217
 9520WAT     H238801   5.214   0.284   2.765  1.0363 -0.2323  2.1725
 9520WAT    EPW38802   5.182   0.216   2.786  0.3446 -0.3548  0.8095
 9521WAT      O38803   5.428   5.200   4.256  0.3252 -0.3282  0.0125
 9521WAT     H138804   5.421   5.287   4.252  1.2113 -0.1116  2.0174
 9521WAT     H238805   5.478   5.180   4.188  1.4927  0.9428  0.4545
 9521WAT    EPW38806   5.434   5.210   4.245  0.6286 -0.1085  0.3740
 9522WAT      O38807   5.965   0.038   2.832  0.1117 -0.3775 -0.5905
 9522WAT     H138808   5.978   0.043   2.918  1.9755 -0.1309 -0.8531
 9522WAT     H238809   5.889   0.080   2.822  0.2940  0.3848  0.8362
 9522WAT    EPW38810   5.955   0.045   2.843  0.4140 -0.2285 -0.4185
 9523WAT      O38811   2.915   1.688   0.168  0.0328 -0.3013  0.2727
 9523WAT     H138812   2.921   1.765   0.209 -0.8206  0.0057 -0.1443
 9523WAT     H238813   2.995   1.675   0.138  0.0811  0.7060 -0.1037
 9523WAT    EPW38814   2.927   1.698   0.170 -0.0861 -0.1072  0.1555
 9524WAT      O38815   7.086   5.303   4.350  0.3836 -0.7657 -0.2448
 9524WAT     H138816   7.022   5.361   4.365  1.5021  0.0240  1.7719
 9524WAT     H238817   7.049   5.227   4.370  0.0172 -0.3261  0.8267
 9524WAT    EPW38818   7.071   5.301   4.355  0.4947 -0.5841  0.2114
 9525WAT      O38819   0.684   7.092   3.318  0.5985  0.5149  0.3617
 9525WAT     H138820   0.746   7.152   3.304  1.3809 -0.7138 -2.3347
 9525WAT     H238821   0.627   7.106   3.254 -0.6215  0.0534  1.3097
 9525WAT    EPW38822   0.685   7.103   3.306  0.5339  0.2652  0.1034
 9526WAT      O38823   6.499   6.167   0.763  0.4008  0.0411  0.6770
 9526WAT     H138824   6.482   6.227   0.824 -1.6373  1.2467 -0.9401
 9526WAT     H238825   6.540   6.213   0.700 -0.3194 -0.4520 -0.1759
 9526WAT    EPW38826   6.503   6.183   0.763 -0.0066  0.1463  0.3121
 9527WAT      O38827   0.965   3.940   0.235  0.0998 -0.0816 -1.0648
 9527WAT     H138828   0.922   3.942   0.311  1.7926  0.0184 -0.0455
 9527WAT     H238829   1.041   3.902   0.256  0.1501 -1.1942 -2.9860
 9527WAT    EPW38830   0.970   3.934   0.250  0.3573 -0.2312 -1.1980
 9528WAT      O38831   0.800   2.990   4.829  0.0670 -0.4547 -0.4390
 9528WAT     H138832   0.816   2.928   4.889  0.6714 -0.9493 -1.0914
 9528WAT     H238833   0.864   2.978   4.771  1.6119  2.2795  0.5325
 9528WAT    EPW38834   0.812   2.979   4.830  0.3845 -0.1239 -0.3919
 9529WAT      O38835   0.658   1.372   4.572 -0.1990 -0.4294  0.0825
 9529WAT     H138836   0.694   1.334   4.642 -1.3645 -1.1305  0.3352
 9529WAT     H238837   0.707   1.344   4.506  0.1171 -0.8346  0.4833
 9529WAT    EPW38838   0.671   1.362   4.573 -0.3245 -0.5928  0.1790
 9530WAT      O38839   6.682   6.223   3.883  0.0872 -0.7363  0.0780
 9530WAT     H138840   6.660   6.304   3.906 -0.7342 -0.7466 -0.6082
 9530WAT     H238841   6.744   6.236   3.823 -1.3580 -0.5070 -1.4477
 9530WAT    EPW38842   6.688   6.237   3.877 -0.2477 -0.7039 -0.2488
 9531WAT      O38843   3.439   5.431   3.260  0.3331  0.6967  0.1271
 9531WAT     H138844   3.508   5.468   3.299  0.6390  2.3874 -1.8730
 9531WAT     H238845   3.474   5.364   3.216  0.0501 -0.9280  2.2176
 9531WAT    EPW38846   3.454   5.426   3.259  0.3365  0.7064  0.1405
 9532WAT      O38847   2.517   0.455   1.101 -0.4382 -0.2036  0.1343
 9532WAT     H138848   2.589   0.435   1.056 -1.0534  0.3449 -1.1475
 9532WAT     H238849   2.537   0.432   1.183  1.6089  0.9749  0.0294
 9532WAT    EPW38850   2.531   0.448   1.107 -0.2267  0.0515 -0.0705
 9533WAT      O38851   1.725   1.592   4.183  0.1221 -0.1028  0.3975
 9533WAT     H138852   1.737   1.552   4.259  0.3886  0.7347  0.8017
 9533WAT     H238853   1.717   1.526   4.126  0.8530 -0.7315  1.0057
 9533WAT    EPW38854   1.726   1.576   4.186  0.2695 -0.0720  0.5471
 9534WAT      O38855   0.561   3.514   7.176  0.2685  0.8664  0.0741
 9534WAT     H138856   0.539   3.591   7.211 -0.4627  0.2239  1.0580
 9534WAT     H238857   0.485   3.479   7.152  0.6692  0.8260 -1.2175
 9534WAT    EPW38858   0.547   3.520   7.178  0.2197  0.7655  0.0286
 9535WAT      O38859   4.713   6.925   0.640  0.0585  0.2742  0.0496
 9535WAT     H138860   4.636   6.910   0.678  0.0644  0.2296  0.0455
 9535WAT     H238861   4.708   7.008   0.614 -0.2249  0.0868 -0.5075
 9535WAT    EPW38862   4.701   6.935   0.642  0.0175  0.2399 -0.0333
 9536WAT      O38863   6.487   2.126   5.005 -0.4670 -0.1268  0.4190
 9536WAT     H138864   6.568   2.105   5.029  0.2054  0.2307 -1.3607
 9536WAT     H238865   6.460   2.181   5.067  0.0352 -1.4184  1.8617
 9536WAT    EPW38866   6.495   2.131   5.018 -0.2935 -0.2648  0.3692
 9537WAT      O38867   1.584   4.129   0.174 -0.0343 -0.2768 -0.1557
 9537WAT     H138868   1.576   4.120   0.087  1.0130  0.3510 -0.3396
 9537WAT     H238869   1.617   4.052   0.199 -1.3271 -0.8411 -0.1571
 9537WAT    EPW38870   1.588   4.116   0.165 -0.0706 -0.2674 -0.1831
 9538WAT      O38871   5.997   0.608   0.908  0.3921  0.0466  0.0878
 9538WAT     H138872   6.028   0.672   0.959  2.7935 -0.3488 -0.7383
 9538WAT     H238873   5.991   0.646   0.830 -1.7401  0.2184  0.2980
 9538WAT    EPW38874   6.001   0.623   0.904  0.4318  0.0136 -0.0032
 9539WAT      O38875   6.836   5.872   0.754  0.4013 -0.1963  0.1360
 9539WAT     H138876   6.878   5.899   0.826  0.1758 -0.3785  0.3383
 9539WAT     H238877   6.848   5.786   0.754  0.3743 -0.2005 -0.0300
 9539WAT    EPW38878   6.844   5.863   0.765  0.3640 -0.2238  0.1414
 9540WAT      O38879   5.333   4.233   2.205  0.8187 -0.2512 -0.1613
 9540WAT     H138880   5.398   4.277   2.166  0.8604  0.2603  0.4722
 9540WAT     H238881   5.291   4.196   2.138  1.1029  0.3176 -0.6674
 9540WAT    EPW38882   5.336   4.234   2.189  0.8668 -0.0916 -0.1425
 9541WAT      O38883   4.154   6.154   2.984  0.2907  0.2981 -0.6622
 9541WAT     H138884   4.146   6.089   3.041  1.8213  0.7417  0.1110
 9541WAT     H238885   4.188   6.116   2.913 -0.0028  0.0425 -0.6654
 9541WAT    EPW38886   4.158   6.139   2.982  0.4735  0.3259 -0.5485
 9542WAT      O38887   6.404   0.490   0.648 -0.2623  0.0679  0.0143
 9542WAT     H138888   6.350   0.500   0.716 -0.8217  0.3657 -0.4597
 9542WAT     H238889   6.472   0.446   0.681 -0.6687 -0.0627  0.6880
 9542WAT    EPW38890   6.406   0.485   0.662 -0.4050  0.0926  0.0438
 9543WAT      O38891   7.179   0.535   3.249  0.1559 -0.1221 -0.3340
 9543WAT     H138892   7.149   0.557   3.170  0.0426 -2.0793 -0.8726
 9543WAT     H238893   7.243   0.479   3.232  0.1160 -0.5958  0.9708
 9543WAT    EPW38894   7.184   0.530   3.235  0.1333 -0.4812 -0.2208
 9544WAT      O38895   2.127   0.846   4.784  0.3618 -0.5106 -0.7228
 9544WAT     H138896   2.190   0.899   4.755 -0.8748  1.3427 -0.2081
 9544WAT     H238897   2.159   0.814   4.858  1.3443 -0.9271 -1.3065
 9544WAT    EPW38898   2.141   0.849   4.790  0.3243 -0.2984 -0.7330
 9545WAT      O38899   1.110   4.801   0.670  0.7407  0.1863  0.2294
 9545WAT     H138900   1.040   4.815   0.621 -0.1460  1.0102  1.6663
 9545WAT     H238901   1.117   4.714   0.672  0.6271  0.1319 -1.0684
 9545WAT    EPW38902   1.101   4.790   0.663  0.5929  0.3000  0.2499
 9546WAT      O38903   1.862   5.369   7.259  0.4718 -0.1381  0.0218
 9546WAT     H138904   1.866   5.425   7.192 -1.6376  0.8697  0.6464
 9546WAT     H238905   1.898   5.413   7.325 -0.2866  0.1406  0.2687
 9546WAT    EPW38906   1.868   5.384   7.259  0.0482  0.0519  0.1506
 9547WAT      O38907   5.813   2.800   0.076  0.0288  0.2973 -0.1308
 9547WAT     H138908   5.891   2.838   0.071 -0.2729  1.1441  1.0871
 9547WAT     H238909   5.800   2.793   0.162 -0.7234 -0.9214 -0.3257
 9547WAT    EPW38910   5.823   2.804   0.088 -0.1269  0.2424  0.0203
 9548WAT      O38911   3.507   6.960   3.070  0.5018  1.0762  0.0543
 9548WAT     H138912   3.590   6.974   3.048  0.5494  0.6493 -0.0605
 9548WAT     H238913   3.462   7.014   3.019  0.6383  0.4368 -0.7699
 9548WAT    EPW38914   3.513   6.970   3.060  0.5290  0.9187 -0.0844
 9549WAT      O38915   4.853   5.814   0.394 -1.0137  0.2618  0.1195
 9549WAT     H138916   4.891   5.891   0.377  0.1797  0.0933  1.7269
 9549WAT     H238917   4.806   5.830   0.465 -2.4667 -0.0203 -0.7518
 9549WAT    EPW38918   4.852   5.828   0.402 -1.0520  0.1953  0.2282
 9550WAT      O38919   0.563   2.356   4.996 -0.1351 -0.1588  0.1812
 9550WAT     H138920   0.484   2.391   4.982  0.6879  1.5980 -0.4135
 9550WAT     H238921   0.563   2.285   4.945 -1.0994  0.1736 -0.3059
 9550WAT    EPW38922   0.551   2.351   4.986 -0.1560  0.1498  0.0214
 9551WAT      O38923   0.759   0.654   0.874 -0.2453 -0.3352 -1.3124
 9551WAT     H138924   0.741   0.575   0.906 -0.4386 -0.0754 -0.7586
 9551WAT     H238925   0.683   0.680   0.838 -0.2549 -0.2960 -1.2643
 9551WAT    EPW38926   0.745   0.646   0.873 -0.2753 -0.2910 -1.2235
 9552WAT      O38927   4.303   3.618   7.166 -0.1608 -0.0369 -0.0359
 9552WAT     H138928   4.343   3.590   7.095 -0.8932 -2.0930  0.2997
 9552WAT     H238929   4.350   3.688   7.190  0.5579  0.2342 -2.0497
 9552WAT    EPW38930   4.316   3.624   7.159 -0.1628 -0.3006 -0.2838
 9553WAT      O38931   5.307   0.699   5.477 -0.2930  1.0975  0.0588
 9553WAT     H138932   5.362   0.736   5.534 -0.8841 -0.8777  2.1031
 9553WAT     H238933   5.245   0.758   5.466 -0.1429  1.5591  1.5074
 9553WAT    EPW38934   5.306   0.713   5.484 -0.3581  0.8739  0.5748
 9554WAT      O38935   5.486   7.180   3.686  0.1027  0.4329 -0.6348
 9554WAT     H138936   5.426   7.118   3.679 -2.0539  2.2908  0.3131
 9554WAT     H238937   5.551   7.141   3.730 -0.9960 -1.2400 -0.4101
 9554WAT    EPW38938   5.487   7.165   3.691 -0.3782  0.4602 -0.4616
 9555WAT      O38939   2.690   0.631   4.857 -0.1748  0.0074  0.4907
 9555WAT     H138940   2.632   0.580   4.819 -2.4937  1.6158  1.5976
 9555WAT     H238941   2.665   0.712   4.835  3.0924  0.8042 -0.8962
 9555WAT    EPW38942   2.678   0.636   4.848 -0.0347  0.3627  0.4493
 9556WAT      O38943   6.904   2.196   1.044 -0.2379 -0.1248  0.1235
 9556WAT     H138944   6.858   2.220   0.974 -1.7321 -1.4630  0.5797
 9556WAT     H238945   6.949   2.127   1.017  0.6049  0.4596  0.0081
 9556WAT    EPW38946   6.904   2.189   1.030 -0.3341 -0.2362  0.1738
 9557WAT      O38947   1.550   7.114   5.175 -0.2562 -0.4332  0.8538
 9557WAT     H138948   1.502   7.063   5.227  0.3666 -1.5156  0.3888
 9557WAT     H238949   1.574   7.180   5.227  2.9313 -2.9449  2.9347
 9557WAT    EPW38950   1.546   7.116   5.190  0.3066 -0.9641  1.0925
 9558WAT      O38951   4.409   5.025   0.537 -0.3610  0.4810  0.0297
 9558WAT     H138952   4.343   5.065   0.496 -0.4293  0.5126  0.1689
 9558WAT     H238953   4.474   5.082   0.534  0.2846 -0.2887 -1.8232
 9558WAT    EPW38954   4.409   5.039   0.530 -0.2757  0.3719 -0.2234
 9559WAT      O38955   0.378   6.769   7.240 -0.0665 -0.4817  0.1842
 9559WAT     H138956   0.331   6.702   7.272  0.0645  0.3111  2.2133
 9559WAT     H238957   0.458   6.736   7.233 -0.6931 -1.6727 -2.7505
 9559WAT    EPW38958   0.383   6.754   7.244 -0.1397 -0.5405  0.0504
 9560WAT      O38959   4.814   4.583   1.486  0.2027 -0.6063  0.5315
 9560WAT     H138960   4.860   4.535   1.430  1.7797  1.6908 -0.3054
 9560WAT     H238961   4.732   4.557   1.472  0.8197 -1.9634 -0.9338
 9560WAT    EPW38962   4.808   4.572   1.475  0.5268 -0.4674  0.1915
 9561WAT      O38963   0.578   0.367   0.291 -0.7462  0.4463  0.4250
 9561WAT     H138964   0.614   0.319   0.227 -1.0173 -1.3647  1.5545
 9561WAT     H238965   0.615   0.445   0.281  1.5993 -0.6477 -0.0066
 9561WAT    EPW38966   0.589   0.371   0.280 -0.4398  0.0172  0.5281
 9562WAT      O38967   6.130   2.546   5.764  0.5257 -0.1319  0.1953
 9562WAT     H138968   6.146   2.590   5.690  2.5017 -1.8134 -0.4850
 9562WAT     H238969   6.172   2.593   5.825  0.7818  0.0720 -0.1345
 9562WAT    EPW38970   6.139   2.560   5.762  0.8554 -0.3502  0.0461
 9563WAT      O38971   5.828   6.582   3.718 -0.0877 -0.7170 -0.6193
 9563WAT     H138972   5.852   6.501   3.739  1.1018 -0.2573 -0.1037
 9563WAT     H238973   5.896   6.613   3.673 -0.2513  0.2085 -0.2638
 9563WAT    EPW38974   5.842   6.575   3.714  0.0638 -0.5124 -0.4906
 9564WAT      O38975   6.042   5.476   6.362 -0.3813  0.3628  0.7306
 9564WAT     H138976   6.082   5.407   6.327 -0.1605  0.8329  0.0350
 9564WAT     H238977   5.983   5.440   6.416 -0.5293 -0.3833  0.0979
 9564WAT    EPW38978   6.039   5.460   6.365 -0.3705  0.3220  0.5344
 9565WAT      O38979   6.960   0.360   4.696 -0.1231  0.2936  0.1220
 9565WAT     H138980   6.933   0.443   4.701 -3.2944 -0.5408 -0.6618
 9565WAT     H238981   6.890   0.315   4.724  1.3291 -2.1321  0.0611
 9565WAT    EPW38982   6.945   0.366   4.701 -0.3770 -0.1880 -0.0028
 9566WAT      O38983   3.132   0.501   2.231 -0.1915 -0.2972 -0.0697
 9566WAT     H138984   3.054   0.509   2.270 -0.0629  0.8991  0.0003
 9566WAT     H238985   3.188   0.496   2.297  0.0169  1.6316 -0.0283
 9566WAT    EPW38986   3.129   0.502   2.247 -0.1417  0.1645 -0.0533
 9567WAT      O38987   2.844   3.767   4.589  0.1602 -0.3586  0.1490
 9567WAT     H138988   2.925   3.734   4.592 -0.0737 -0.9029  0.6232
 9567WAT     H238989   2.793   3.696   4.586 -0.2701 -0.0106 -1.3065
 9567WAT    EPW38990   2.849   3.752   4.589  0.0621 -0.3876  0.0041
 9568WAT      O38991   3.390   2.521   4.693  0.3483  0.5754  0.9261
 9568WAT     H138992   3.365   2.442   4.664  1.2000  0.4253  0.5533
 9568WAT     H238993   3.444   2.501   4.759  0.0715  0.8715  1.2461
 9568WAT    EPW38994   3.394   2.506   4.699  0.4332  0.5970  0.9183
 9569WAT      O38995   6.258   0.356   0.448 -0.0732 -0.0159 -0.4705
 9569WAT     H138996   6.182   0.390   0.473 -1.3019 -1.4362 -2.0607
 9569WAT     H238997   6.317   0.399   0.496 -1.9030  0.6673  1.2787
 9569WAT    EPW38998   6.256   0.367   0.459 -0.5250 -0.1248 -0.4470
 9570WAT      O38999   1.097   5.338   7.098  0.5936 -0.1315 -0.2965
 9570WAT     H139000   1.155   5.276   7.076 -0.2072 -0.9424 -0.1904
 9570WAT     H239001   1.041   5.339   7.031  1.0601  1.0878 -0.6878
 9570WAT    EPW39002   1.097   5.329   7.085  0.5442 -0.0712 -0.3386
 9571WAT      O39003   3.814   5.406   2.476 -0.6837  0.9515  0.7490
 9571WAT     H139004   3.743   5.413   2.426 -0.7914  0.4761  0.8330
 9571WAT     H239005   3.861   5.477   2.455  0.6893 -0.6622 -2.2544
 9571WAT    EPW39006   3.810   5.418   2.465 -0.4968  0.6429  0.3178
 9572WAT      O39007   0.435   3.417   0.568  0.2505  0.1933  0.7269
 9572WAT     H139008   0.424   3.351   0.624  1.2452 -0.7527 -0.1483
 9572WAT     H239009   0.514   3.449   0.589  0.2970  0.3247  0.3596
 9572WAT    EPW39010   0.445   3.412   0.579  0.4043  0.0730  0.5434
 9573WAT      O39011   6.628   1.916   4.191  0.0978  0.1511 -0.1398
 9573WAT     H139012   6.680   1.854   4.160  0.1764  0.2229 -0.1518
 9573WAT     H239013   6.553   1.874   4.208 -0.0477  0.1741 -0.7153
 9573WAT    EPW39014   6.624   1.901   4.189  0.0879  0.1651 -0.2266
 9574WAT      O39015   1.020   2.048   1.866  0.1846  0.4219  0.5622
 9574WAT     H139016   1.002   2.131   1.843  0.1942 -0.5820 -3.9674
 9574WAT     H239017   1.107   2.046   1.869  0.1683  0.7931  2.0363
 9574WAT    EPW39018   1.030   2.060   1.863  0.1836  0.3284  0.1108
 9575WAT      O39019   3.624   2.687   3.956 -0.3919  0.1964  0.4389
 9575WAT     H139020   3.614   2.768   3.986  0.9588  0.6389 -0.2120
 9575WAT     H239021   3.546   2.650   3.969 -1.1399  1.7062  0.4199
 9575WAT    EPW39022   3.611   2.693   3.962 -0.3029  0.4848  0.3399
 9576WAT      O39023   0.648   5.410   1.363  0.1535  0.3507  0.1195
 9576WAT     H139024   0.613   5.488   1.348 -0.6062  0.1545  0.8499
 9576WAT     H239025   0.585   5.354   1.340  1.1176 -0.1046 -1.5708
 9576WAT    EPW39026   0.634   5.413   1.357  0.1837  0.2544 -0.0223
 9577WAT      O39027   1.621   3.334   5.147  0.0564  0.4218  0.1701
 9577WAT     H139028   1.551   3.344   5.198 -0.9952  2.4581 -1.4988
 9577WAT     H239029   1.604   3.261   5.103  0.0079 -0.2270  1.2255
 9577WAT    EPW39030   1.608   3.325   5.148 -0.1061  0.6268  0.0795
 9578WAT      O39031   2.165   3.447   2.312  0.2431  0.1934  0.2404
 9578WAT     H139032   2.133   3.519   2.350 -1.4197 -1.3892  2.0127
 9578WAT     H239033   2.178   3.472   2.229 -0.5468  2.4369  0.7246
 9578WAT    EPW39034   2.162   3.462   2.305 -0.1192  0.2910  0.5738
 9579WAT      O39035   7.013   2.117   1.748  0.0258 -0.1833 -0.4190
 9579WAT     H139036   7.054   2.143   1.820  1.6826  0.5274 -1.5541
 9579WAT     H239037   6.983   2.191   1.713 -1.4015 -0.5951 -0.1330
 9579WAT    EPW39038   7.014   2.132   1.754  0.0597 -0.1391 -0.5445
 9580WAT      O39039   4.371   1.511   2.179  0.0813 -0.1239  0.1689
 9580WAT     H139040   4.401   1.468   2.110 -0.2107 -0.4528  0.2411
 9580WAT     H239041   4.411   1.589   2.174 -0.3172  0.0409 -0.6481
 9580WAT    EPW39042   4.381   1.516   2.168 -0.0207 -0.1481  0.0589
 9581WAT      O39043   4.466   5.375   5.084 -0.4242  0.4467  0.5668
 9581WAT     H139044   4.441   5.322   5.149 -0.3935  0.1601  0.3488
 9581WAT     H239045   4.465   5.323   5.014 -0.8518  0.8488  0.2663
 9581WAT    EPW39046   4.462   5.360   5.084 -0.4828  0.4638  0.4902
 9582WAT      O39047   0.804   6.325   7.291 -0.7481 -0.0658  0.3316
 9582WAT     H139048   0.884   6.324   7.324 -0.3429 -0.0107 -0.6137
 9582WAT     H239049   0.762   6.263   7.336 -0.0209 -0.4633  0.4753
 9582WAT    EPW39050   0.810   6.316   7.302 -0.5808 -0.1164  0.2132
 9583WAT      O39051   5.772   5.953   6.546 -0.0482  0.7959  0.5444
 9583WAT     H139052   5.817   5.976   6.475 -0.6979  1.1059  0.2238
 9583WAT     H239053   5.751   5.870   6.530  0.9320  0.4478  0.9815
 9583WAT    EPW39054   5.775   5.944   6.533  0.0006  0.7903  0.5616
 9584WAT      O39055   6.460   0.824   0.496 -0.0620 -0.2873  0.2527
 9584WAT     H139056   6.423   0.745   0.485 -1.1045  0.0695  0.9858
 9584WAT     H239057   6.489   0.844   0.417 -1.2025 -0.7393 -0.3122
 9584WAT    EPW39058   6.459   0.815   0.483 -0.3845 -0.3014  0.2776
 9585WAT      O39059   3.152   2.699   0.555  0.2222  0.1080  0.2456
 9585WAT     H139060   3.222   2.728   0.511  0.2560  0.5311  0.5717
 9585WAT     H239061   3.140   2.760   0.617 -0.1068 -0.2427  0.5300
 9585WAT    EPW39062   3.160   2.713   0.557  0.1786  0.1187  0.3358
 9586WAT      O39063   5.596   5.036   2.109  0.2524 -0.6288  0.4113
 9586WAT     H139064   5.584   4.979   2.174  1.0902 -0.5420  0.6539
 9586WAT     H239065   5.655   4.997   2.058 -0.3679 -0.6764 -0.2858
 9586WAT    EPW39066   5.603   5.022   2.111  0.2845 -0.6230  0.3441
 9587WAT      O39067   1.441   1.561   3.541 -0.1478 -0.1579  0.5949
 9587WAT     H139068   1.408   1.481   3.549  0.0622 -0.6047 -2.1933
 9587WAT     H239069   1.369   1.611   3.534 -0.2761 -0.0497  2.2449
 9587WAT    EPW39070   1.425   1.557   3.541 -0.1357 -0.2079  0.4268
 9588WAT      O39071   6.303   3.656   3.766  0.4074  0.3057 -0.5947
 9588WAT     H139072   6.362   3.720   3.774 -0.6978  1.7683 -2.9422
 9588WAT     H239073   6.348   3.591   3.729  0.9330  0.7599 -0.7582
 9588WAT    EPW39074   6.318   3.656   3.762  0.3218  0.5889 -0.9657
 9589WAT      O39075   2.831   4.783   2.568  0.3974 -0.2343  0.2519
 9589WAT     H139076   2.799   4.863   2.555 -1.2976 -0.9633 -0.3344
 9589WAT     H239077   2.911   4.798   2.601  0.0129  1.6816  0.4378
 9589WAT    EPW39078   2.838   4.797   2.571  0.0902 -0.0589  0.1927
 9590WAT      O39079   5.196   7.102   6.776  0.2493  0.5387 -0.3004
 9590WAT     H139080   5.121   7.058   6.786  1.2612 -1.3135 -0.2955
 9590WAT     H239081   5.183   7.175   6.822 -1.4391  0.1458 -0.0627
 9590WAT    EPW39082   5.183   7.106   6.784  0.1494  0.2070 -0.2646
 9591WAT      O39083   2.063   2.420   0.374  0.2301  0.1549  0.1098
 9591WAT     H139084   1.989   2.435   0.416 -0.4748 -0.4194 -0.8652
 9591WAT     H239085   2.037   2.397   0.294  1.3717 -1.4837  0.1347
 9591WAT    EPW39086   2.048   2.419   0.368  0.2946 -0.1720 -0.0305
 9592WAT      O39087   7.064   0.735   1.870  0.3297 -0.4273  0.3184
 9592WAT     H139088   7.131   0.680   1.856 -0.4541 -1.2636 -0.2910
 9592WAT     H239089   7.100   0.814   1.858  1.1428 -0.8698 -0.2983
 9592WAT    EPW39090   7.080   0.738   1.866  0.3340 -0.6162  0.1373
 9593WAT      O39091   0.020   3.942   1.818 -0.1554 -0.5560 -0.3625
 9593WAT     H139092   0.057   3.955   1.896 -1.6255  0.1420  0.2540
 9593WAT     H239093   0.085   3.910   1.770  0.6209 -1.7329  1.3458
 9593WAT    EPW39094   0.035   3.939   1.823 -0.2579 -0.6267 -0.0191
 9594WAT      O39095   5.258   2.646   5.267 -0.3369  0.3221  0.0707
 9594WAT     H139096   5.300   2.578   5.302 -0.2382 -0.8284 -2.1292
 9594WAT     H239097   5.187   2.654   5.317 -1.4912 -2.8639 -0.8572
 9594WAT    EPW39098   5.254   2.638   5.280 -0.4928 -0.3185 -0.3914
 9595WAT      O39099   6.550   2.710   5.427  0.1568 -0.1393 -0.0997
 9595WAT     H139100   6.608   2.771   5.452 -1.2624  1.8002 -1.2435
 9595WAT     H239101   6.537   2.728   5.342 -1.4069 -1.1173 -0.1016
 9595WAT    EPW39102   6.557   2.722   5.418 -0.2839  0.0027 -0.2689
 9596WAT      O39103   4.250   5.996   2.766  0.0027 -0.0761 -0.4813
 9596WAT     H139104   4.224   5.913   2.775 -1.8506  0.3641 -1.3515
 9596WAT     H239105   4.241   6.011   2.681  3.0277  0.2303 -0.8588
 9596WAT    EPW39106   4.245   5.986   2.755  0.1758  0.0342 -0.6656
 9597WAT      O39107   1.217   0.690   3.132  0.4580 -0.0788  0.0600
 9597WAT     H139108   1.251   0.620   3.172 -1.0142 -1.3629 -0.8011
 9597WAT     H239109   1.146   0.709   3.180  0.2864  0.1869 -0.2936
 9597WAT    EPW39110   1.212   0.682   3.145  0.2151 -0.2292 -0.1194
 9598WAT      O39111   3.532   0.541   4.143 -0.3013  0.0513 -0.5685
 9598WAT     H139112   3.616   0.534   4.120 -0.0937 -0.6030  0.3036
 9598WAT     H239113   3.493   0.475   4.101  0.1197 -1.2957  1.0097
 9598WAT    EPW39114   3.539   0.530   4.134 -0.2084 -0.2443 -0.2065
 9599WAT      O39115   1.871   6.480   6.107  0.1806 -0.1828  0.3629
 9599WAT     H139116   1.826   6.544   6.069  0.0227 -0.5794 -0.1107
 9599WAT     H239117   1.943   6.474   6.059  0.0774 -0.5385  0.2515
 9599WAT    EPW39118   1.875   6.489   6.095  0.1420 -0.2940  0.2765
 9600WAT      O39119   3.908   1.576   1.762  0.2071  0.2273  0.6295
 9600WAT     H139120   3.866   1.621   1.700  0.3421 -1.0590 -0.4566
 9600WAT     H239121   3.884   1.615   1.836 -1.8487  0.3707 -0.0451
 9600WAT    EPW39122   3.898   1.589   1.763 -0.0766  0.0584  0.3694
 9601WAT      O39123   2.490   4.210   0.058 -0.4047  0.0533  0.0089
 9601WAT     H139124   2.470   4.273   0.001 -2.0710  2.2183  2.7496
 9601WAT     H239125   2.458   4.138   0.021 -0.7817  1.2266 -2.0898
 9601WAT    EPW39126   2.482   4.209   0.044 -0.7065  0.5464  0.1037
 9602WAT      O39127   3.486   2.394   6.109 -0.1635 -0.0036  0.0855
 9602WAT     H139128   3.428   2.330   6.116  1.0867 -1.2277 -0.1561
 9602WAT     H239129   3.556   2.354   6.074  0.7796  1.4168  0.2657
 9602WAT    EPW39130   3.488   2.379   6.105  0.1605  0.0254  0.0764
 9603WAT      O39131   1.626   4.887   1.301 -0.5057 -0.1059  0.0616
 9603WAT     H139132   1.606   4.858   1.222  1.4194 -1.1340 -0.1262
 9603WAT     H239133   1.599   4.970   1.301 -0.8157 -0.1825 -1.5505
 9603WAT    EPW39134   1.619   4.895   1.290 -0.2671 -0.2691 -0.2043
 9604WAT      O39135   1.766   5.814   3.328  0.5734  0.1803 -0.6427
 9604WAT     H139136   1.850   5.831   3.343  0.7490 -0.7123 -0.6032
 9604WAT     H239137   1.767   5.775   3.250  0.0109  1.7244 -1.4750
 9604WAT    EPW39138   1.779   5.811   3.318  0.5163  0.2766 -0.7598
 9605WAT      O39139   1.784   5.645   3.105  0.1285 -0.3901  0.2959
 9605WAT     H139140   1.698   5.658   3.105  0.2143  0.3111 -1.0374
 9605WAT     H239141   1.791   5.560   3.125 -0.8457 -0.3552  0.8430
 9605WAT    EPW39142   1.772   5.634   3.108 -0.0027 -0.2814  0.1798
 9606WAT      O39143   6.519   6.546   4.929  0.4780  0.6086 -0.1519
 9606WAT     H139144   6.599   6.537   4.895  0.5354  1.4932 -0.2711
 9606WAT     H239145   6.534   6.560   5.014  0.4037 -0.0813 -0.0204
 9606WAT    EPW39146   6.533   6.547   4.936  0.4755  0.6374 -0.1501
 9607WAT      O39147   4.134   5.758   2.134 -0.0117  0.6603  0.0855
 9607WAT     H139148   4.074   5.696   2.147  1.2349 -0.3561  1.2171
 9607WAT     H239149   4.171   5.735   2.059  2.6639 -1.9972  2.0042
 9607WAT    EPW39150   4.131   5.745   2.125  0.5677  0.1176  0.5361
 9608WAT      O39151   3.379   6.328   2.720 -0.4204 -0.1189 -0.4933
 9608WAT     H139152   3.389   6.398   2.669  0.4990 -1.5402 -2.3729
 9608WAT     H239153   3.375   6.362   2.800  2.6523  1.9710 -1.0468
 9608WAT    EPW39154   3.380   6.343   2.724  0.1693 -0.0201 -0.8527
 9609WAT      O39155   4.501   1.388   4.300  0.5286 -0.8588  0.5288
 9609WAT     H139156   4.561   1.446   4.274  0.8435  0.1519  3.2116
 9609WAT     H239157   4.467   1.359   4.225 -0.6983  3.8655 -1.0762
 9609WAT    EPW39158   4.505   1.392   4.285  0.3939 -0.0116  0.6880
 9610WAT      O39159   1.369   4.295   5.445  0.0580 -0.1787 -0.3872
 9610WAT     H139160   1.439   4.308   5.395 -1.0963  0.7844 -1.8303
 9610WAT     H239161   1.338   4.375   5.458 -1.1083 -0.6340 -0.2867
 9610WAT    EPW39162   1.375   4.309   5.440 -0.2848 -0.1037 -0.5855
 9611WAT      O39163   4.818   3.608   2.731  0.5701 -0.0791 -0.5189
 9611WAT     H139164   4.891   3.634   2.771  0.9869  0.2499 -1.4680
 9611WAT     H239165   4.767   3.581   2.796  2.2381 -2.1056  0.0420
 9611WAT    EPW39166   4.821   3.608   2.746  0.8781 -0.3299 -0.5762
 9612WAT      O39167   5.266   1.781   3.869  0.2382  0.3339  0.1890
 9612WAT     H139168   5.281   1.695   3.870 -0.8935  0.1079 -0.4192
 9612WAT     H239169   5.317   1.811   3.934  4.3648 -0.0652 -2.4892
 9612WAT    EPW39170   5.276   1.773   3.879  0.6806  0.2416 -0.2965
 9613WAT      O39171   4.836   1.736   3.341 -0.0632 -0.4199 -0.0964
 9613WAT     H139172   4.758   1.707   3.366 -0.1118 -1.8449 -1.7163
 9613WAT     H239173   4.844   1.812   3.382 -1.6475 -0.9347  1.2719
 9613WAT    EPW39174   4.826   1.743   3.351 -0.3044 -0.7064 -0.1336
 9614WAT      O39175   2.579   0.287   1.912  0.0053 -0.2413 -0.8067
 9614WAT     H139176   2.550   0.328   1.841 -1.0161  0.1911 -0.1778
 9614WAT     H239177   2.655   0.326   1.929  0.0264 -0.0248 -1.3771
 9614WAT    EPW39178   2.586   0.299   1.904 -0.1424 -0.1454 -0.7981
 9615WAT      O39179   3.030   4.861   4.129 -0.1805 -0.5259 -0.2616
 9615WAT     H139180   2.962   4.832   4.175  0.0697 -0.1831  0.3499
 9615WAT     H239181   3.043   4.799   4.069 -0.2819 -1.1767  0.3751
 9615WAT    EPW39182   3.022   4.848   4.127 -0.1585 -0.5714 -0.0772
 9616WAT      O39183   5.127   4.966   1.778  0.0513  0.2468  0.0541
 9616WAT     H139184   5.209   4.948   1.804  0.2469  0.2797 -0.5059
 9616WAT     H239185   5.120   5.052   1.788  0.5536  0.4510 -1.1171
 9616WAT    EPW39186   5.138   4.976   1.783  0.1544  0.2818 -0.2017
 9617WAT      O39187   3.355   5.847   7.018 -0.1846  0.3331 -0.2003
 9617WAT     H139188   3.410   5.864   7.084  0.2744 -0.4501 -0.3783
 9617WAT     H239189   3.407   5.838   6.949 -0.4848 -0.8934 -0.2863
 9617WAT    EPW39190   3.370   5.848   7.018 -0.1612  0.0362 -0.2393
 9618WAT      O39191   3.623   5.970   1.513  0.0695  0.1890 -0.2117
 9618WAT     H139192   3.684   5.921   1.474  1.2582  0.8675  0.7155
 9618WAT     H239193   3.648   5.971   1.597 -0.3467  1.7469 -0.0758
 9618WAT    EPW39194   3.636   5.963   1.520  0.1836  0.5194 -0.0547
 9619WAT      O39195   5.783   4.678   6.232 -0.0826 -0.1726 -0.0458
 9619WAT     H139196   5.783   4.676   6.319 -0.2660 -1.1283 -0.0575
 9619WAT     H239197   5.727   4.742   6.213 -1.3304 -1.0503  0.5374
 9619WAT    EPW39198   5.774   4.687   6.242 -0.2940 -0.4434  0.0386
 9620WAT      O39199   7.174   4.510   1.583 -0.2986  0.5795 -0.2027
 9620WAT     H139200   7.199   4.474   1.508 -1.2712  0.9400 -0.7133
 9620WAT     H239201   7.194   4.594   1.572 -1.0581  0.7510 -0.3423
 9620WAT    EPW39202   7.181   4.517   1.570 -0.5545  0.6581 -0.2988
 9621WAT      O39203   3.413   6.709   4.991 -0.4904  0.2118 -0.1461
 9621WAT     H139204   3.404   6.795   5.004 -0.9806 -0.1137  1.8776
 9621WAT     H239205   3.489   6.691   5.030 -0.3002 -0.2705 -0.7218
 9621WAT    EPW39206   3.423   6.719   4.998 -0.5347  0.0925  0.0678
 9622WAT      O39207   4.974   1.099   3.319 -0.3810 -0.0987  0.1237
 9622WAT     H139208   5.036   1.145   3.360  2.5132 -1.8086 -1.9862
 9622WAT     H239209   4.950   1.150   3.253 -3.0151  1.4842  2.1293
 9622WAT    EPW39210   4.980   1.113   3.316 -0.3426 -0.1175  0.1083
 9623WAT      O39211   6.562   2.174   5.858  0.0697  0.1632  0.4620
 9623WAT     H139212   6.510   2.218   5.913  0.6881  0.7147  0.6227
 9623WAT     H239213   6.633   2.158   5.906 -1.1877 -3.5933  1.3672
 9623WAT    EPW39214   6.564   2.178   5.873 -0.0247 -0.3102  0.6194
 9624WAT      O39215   6.142   6.771   1.529 -0.3691  0.0149 -0.0743
 9624WAT     H139216   6.061   6.762   1.560 -0.4151 -1.8499 -0.5999
 9624WAT     H239217   6.133   6.755   1.443  1.0047 -4.0290  0.3484
 9624WAT    EPW39218   6.129   6.768   1.521 -0.1730 -0.8579 -0.0895
 9625WAT      O39219   5.226   4.756   6.704  0.2479 -0.2227 -0.1090
 9625WAT     H139220   5.304   4.758   6.744 -0.7484  1.8027  2.0338
 9625WAT     H239221   5.221   4.834   6.666  0.2969 -1.3540 -2.6328
 9625WAT    EPW39222   5.237   4.768   6.705  0.1080 -0.0906 -0.1653
 9626WAT      O39223   6.067   0.095   6.461 -0.6652  0.4222  0.2317
 9626WAT     H139224   6.141   0.050   6.473 -1.2618 -0.4893  0.5628
 9626WAT     H239225   6.033   0.101   6.541 -0.6991  1.3164  0.1687
 9626WAT    EPW39226   6.073   0.089   6.474 -0.7583  0.4197  0.2713
 9627WAT      O39227   2.243   3.479   3.579 -0.7159 -0.0695  0.7047
 9627WAT     H139228   2.242   3.485   3.666  0.4686  0.8918  0.6659
 9627WAT     H239229   2.242   3.562   3.552 -3.1179 -0.3260 -0.2862
 9627WAT    EPW39230   2.243   3.492   3.588 -0.8958  0.0346  0.5526
 9628WAT      O39231   1.320   6.963   3.844 -0.6571 -0.7235  0.0289
 9628WAT     H139232   1.277   6.889   3.863 -0.4388 -1.0989 -0.8882
 9628WAT     H239233   1.402   6.945   3.865 -0.8483 -0.1405  1.3997
 9628WAT    EPW39234   1.326   6.949   3.850 -0.6531 -0.6928  0.0959
 9629WAT      O39235   6.612   4.671   6.774  0.4329  0.3494  0.1204
 9629WAT     H139236   6.677   4.613   6.771 -0.3967 -0.7757  1.7582
 9629WAT     H239237   6.588   4.670   6.858 -1.1156  1.3804 -0.2631
 9629WAT    EPW39238   6.618   4.662   6.786  0.0816  0.3355  0.3057
 9630WAT      O39239   2.398   5.581   7.017 -0.2178 -0.0003  0.1890
 9630WAT     H139240   2.435   5.506   7.040  1.4259  0.5742 -0.4437
 9630WAT     H239241   2.413   5.587   6.932  2.2503  2.3057  0.6437
 9630WAT    EPW39242   2.406   5.571   7.008  0.3896  0.4252  0.1627
 9631WAT      O39243   0.284   3.704   3.840 -0.1445  0.0021 -0.0986
 9631WAT     H139244   0.331   3.639   3.806  0.2892  0.5505 -0.5982
 9631WAT     H239245   0.224   3.664   3.888 -2.2663 -0.9978 -3.2548
 9631WAT    EPW39246   0.282   3.689   3.842 -0.3939 -0.0646 -0.6387
 9632WAT      O39247   3.060   3.580   2.985  0.3516 -0.5113 -0.3166
 9632WAT     H139248   3.064   3.625   2.910 -2.3098 -0.1379 -0.3299
 9632WAT     H239249   3.023   3.635   3.041  2.1101 -0.8631  1.2820
 9632WAT    EPW39250   3.055   3.595   2.982  0.2182 -0.5081 -0.0824
 9633WAT      O39251   5.488   2.013   3.493  0.9018  0.1247  0.0606
 9633WAT     H139252   5.548   2.055   3.541  1.7511 -1.1050  0.1347
 9633WAT     H239253   5.535   1.972   3.432 -0.0152  0.3209 -0.8068
 9633WAT    EPW39254   5.504   2.013   3.491  0.8918 -0.0280 -0.0566
 9634WAT      O39255   3.375   1.105   1.806 -0.1475 -0.4431  0.0417
 9634WAT     H139256   3.385   1.058   1.879 -2.0925 -0.3409  0.4254
 9634WAT     H239257   3.300   1.148   1.819 -0.7837 -0.7326 -2.1620
 9634WAT    EPW39258   3.365   1.104   1.819 -0.5288 -0.4708 -0.2271
 9635WAT      O39259   2.608   1.369   5.209  0.6910 -0.1702 -0.0486
 9635WAT     H139260   2.563   1.443   5.219  0.8722 -0.3728  4.0237
 9635WAT     H239261   2.627   1.367   5.124 -1.9434  2.8438 -0.8925
 9635WAT    EPW39262   2.604   1.379   5.198  0.3286  0.2451  0.4283
 9636WAT      O39263   7.011   1.845   4.158  0.9928 -0.0113 -0.1706
 9636WAT     H139264   7.096   1.854   4.140  0.6558  1.5417 -1.1674
 9636WAT     H239265   6.999   1.898   4.227  0.8082 -0.1221 -0.1179
 9636WAT    EPW39266   7.022   1.854   4.166  0.9157  0.2018 -0.3100
 9637WAT      O39267   1.955   1.451   3.314  0.2608  0.1642  0.8245
 9637WAT     H139268   1.902   1.385   3.336 -1.3741  1.6038  1.4322
 9637WAT     H239269   2.031   1.430   3.352 -0.5463 -0.7997  1.9832
 9637WAT    EPW39270   1.958   1.438   3.322 -0.1000  0.2344  1.0854
 9638WAT      O39271   6.191   6.752   1.934 -0.3898 -0.2879  0.2986
 9638WAT     H139272   6.264   6.711   1.907 -0.5010 -0.8817  0.8507
 9638WAT     H239273   6.218   6.834   1.949 -0.1426 -0.1624 -0.7611
 9638WAT    EPW39274   6.206   6.758   1.933 -0.3697 -0.3571  0.2236
 9639WAT      O39275   2.216   5.708   0.628  0.8511  0.4094 -0.2367
 9639WAT     H139276   2.256   5.691   0.704  0.0984 -0.0052  0.0801
 9639WAT     H239277   2.187   5.789   0.638 -0.5025 -0.1285  0.5163
 9639WAT    EPW39278   2.218   5.717   0.641  0.5400  0.2687 -0.0787
 9640WAT      O39279   4.248   1.658   1.383 -0.3216  0.1313  0.1630
 9640WAT     H139280   4.188   1.632   1.325  0.1874  1.1856 -0.8767
 9640WAT     H239281   4.308   1.697   1.334  0.1893  0.9610  1.4069
 9640WAT    EPW39282   4.248   1.660   1.367 -0.1710  0.4096  0.1931
 9641WAT      O39283   4.796   2.732   2.918 -0.2182 -0.6679  0.0903
 9641WAT     H139284   4.869   2.753   2.875 -0.1455  0.0449  0.5310
 9641WAT     H239285   4.738   2.792   2.892  0.3221  0.9449  2.2635
 9641WAT    EPW39286   4.798   2.744   2.908 -0.1276 -0.3244  0.4764
 9642WAT      O39287   5.301   1.245   5.889 -0.4368 -0.0518 -0.2392
 9642WAT     H139288   5.249   1.189   5.932  0.3191 -0.7064 -0.1579
 9642WAT     H239289   5.244   1.297   5.847 -1.1665 -0.1549  0.5888
 9642WAT    EPW39290   5.285   1.244   5.889 -0.4329 -0.1637 -0.1049
 9643WAT      O39291   1.654   3.603   1.400  0.3087 -0.2809 -0.0302
 9643WAT     H139292   1.661   3.526   1.359  1.4820 -0.7311  0.9313
 9643WAT     H239293   1.631   3.658   1.337 -3.9377 -1.9089 -0.1908
 9643WAT    EPW39294   1.652   3.600   1.385 -0.1453 -0.5879  0.0881
 9644WAT      O39295   6.575   4.759   2.951  0.5782 -0.0848 -0.0906
 9644WAT     H139296   6.619   4.824   2.990 -2.0228  1.4389  0.5081
 9644WAT     H239297   6.580   4.780   2.866 -1.8459  2.1183  0.2055
 9644WAT    EPW39298   6.582   4.772   2.944 -0.1641  0.4657  0.0416
 9645WAT      O39299   6.359   5.188   6.518  0.4019 -0.1329  0.0338
 9645WAT     H139300   6.352   5.191   6.605 -0.4037 -1.0174  0.0146
 9645WAT     H239301   6.382   5.106   6.501 -0.3844 -0.2385 -0.6226
 9645WAT    EPW39302   6.361   5.177   6.528  0.1667 -0.2792 -0.0660
 9646WAT      O39303   6.864   1.035   4.239 -0.2428  0.3867  0.2716
 9646WAT     H139304   6.911   1.023   4.311  2.1842  0.3783 -1.1949
 9646WAT     H239305   6.857   1.121   4.232 -1.5018  0.3797  1.0619
 9646WAT    EPW39306   6.870   1.046   4.249 -0.0703  0.3844  0.1717
 9647WAT      O39307   2.157   7.087   6.159 -0.5255 -0.3148  0.7028
 9647WAT     H139308   2.229   7.053   6.125 -0.2444  1.0385 -0.1292
 9647WAT     H239309   2.095   7.066   6.101 -0.6872 -0.8913  1.0752
 9647WAT    EPW39310   2.158   7.079   6.146 -0.5078 -0.2001  0.6349
 9648WAT      O39311   4.988   3.599   1.591  0.0874  0.0720  0.2035
 9648WAT     H139312   4.979   3.586   1.506  1.5883 -0.1647  0.0502
 9648WAT     H239313   4.906   3.597   1.621 -0.3677 -1.3329 -1.0192
 9648WAT    EPW39314   4.975   3.597   1.583  0.2419 -0.1705  0.0003
 9649WAT      O39315   6.128   6.146   4.594 -0.2200  0.1375  0.7292
 9649WAT     H139316   6.103   6.130   4.512 -1.9141  0.4198  1.1468
 9649WAT     H239317   6.192   6.088   4.608 -1.0727 -1.0798 -0.2295
 9649WAT    EPW39318   6.134   6.135   4.584 -0.5962 -0.0006  0.6493
 9650WAT      O39319   3.664   0.365   5.612 -0.4121  0.1011  0.1921
 9650WAT     H139320   3.702   0.290   5.635  0.2684  0.3705 -0.0315
 9650WAT     H239321   3.707   0.389   5.540  0.4663  1.4826  1.0997
 9650WAT    EPW39322   3.676   0.358   5.605 -0.1818  0.3450  0.2931
 9651WAT      O39323   3.527   1.785   1.259 -0.6103 -0.1098 -0.5282
 9651WAT     H139324   3.545   1.783   1.174  1.3620  2.1766 -0.2786
 9651WAT     H239325   3.586   1.730   1.294 -1.3861 -1.0087 -0.5868
 9651WAT    EPW39326   3.539   1.776   1.252 -0.4336  0.0952 -0.5000
 9652WAT      O39327   3.622   1.246   2.604  0.1276 -0.0428 -0.2462
 9652WAT     H139328   3.697   1.257   2.560 -0.1175 -0.2308 -0.7099
 9652WAT     H239329   3.577   1.319   2.586  0.5754  0.5154  0.8002
 9652WAT    EPW39330   3.626   1.259   2.595  0.1575  0.0119 -0.1602
 9653WAT      O39331   0.179   6.054   6.928 -0.2086  0.0439  0.4624
 9653WAT     H139332   0.100   6.082   6.903 -0.3059 -0.0967  0.6149
 9653WAT     H239333   0.209   6.010   6.858  0.2167  1.0699 -0.0285
 9653WAT    EPW39334   0.172   6.052   6.914 -0.1601  0.1747  0.4124
 9654WAT      O39335   2.245   2.626   5.637 -0.0981 -0.7281  0.6322
 9654WAT     H139336   2.232   2.683   5.702 -4.4671 -0.8971  0.2453
 9654WAT     H239337   2.271   2.676   5.571 -0.0493  0.1820  1.3167
 9654WAT    EPW39338   2.247   2.642   5.637 -0.7363 -0.6186  0.6761
 9655WAT      O39339   5.574   4.776   2.848  0.1167  0.4096  0.0730
 9655WAT     H139340   5.505   4.724   2.834  1.0050 -0.6457 -0.5936
 9655WAT     H239341   5.591   4.809   2.769 -1.1084  2.6729  0.6795
 9655WAT    EPW39342   5.566   4.773   2.834  0.0670  0.5880  0.0642
 9656WAT      O39343   3.185   6.351   3.133 -0.3262  0.1865 -0.0021
 9656WAT     H139344   3.125   6.407   3.104  1.0365  2.4187  1.2142
 9656WAT     H239345   3.166   6.343   3.218  0.2269 -0.2399  0.0836
 9656WAT    EPW39346   3.173   6.358   3.141 -0.0432  0.4533  0.1903
 9657WAT      O39347   0.983   3.949   5.841  0.5620 -0.4138 -0.7866
 9657WAT     H139348   1.048   3.908   5.882  0.1819 -0.7778 -0.5351
 9657WAT     H239349   0.912   3.922   5.884  0.3429  0.9591 -0.2395
 9657WAT    EPW39350   0.982   3.939   5.853  0.4735 -0.2648 -0.6686
 9658WAT      O39351   4.738   3.956   0.188  0.3450 -0.0769  0.3653
 9658WAT     H139352   4.774   3.905   0.250  2.5846  0.1388 -0.6641
 9658WAT     H239353   4.742   3.906   0.117 -1.3040  0.0417  0.1692
 9658WAT    EPW39354   4.744   3.941   0.187  0.4322 -0.0275  0.1843
 9659WAT      O39355   7.035   3.510   2.794  1.2647  0.1244  0.2957
 9659WAT     H139356   7.011   3.486   2.874  1.7431  0.9897  0.7156
 9659WAT     H239357   7.098   3.454   2.773  0.7318 -0.4825  0.2660
 9659WAT    EPW39358   7.041   3.498   2.803  1.2566  0.1625  0.3533
 9660WAT      O39359   1.999   0.971   0.574  0.9048 -0.0234  0.6619
 9660WAT     H139360   1.937   0.923   0.614  1.9876  0.2707  2.8385
 9660WAT     H239361   1.980   0.962   0.489 -2.2482  0.2455  1.2254
 9660WAT    EPW39362   1.987   0.962   0.567  0.5990  0.0598  1.0667
 9661WAT      O39363   0.237   6.238   4.331 -0.6469  1.0803 -0.0354
 9661WAT     H139364   0.233   6.314   4.374 -1.9459  0.4591  0.9840
 9661WAT     H239365   0.194   6.183   4.383 -1.1524  0.0100 -1.5496
 9661WAT    EPW39366   0.230   6.241   4.345 -0.9135  0.8304 -0.1085
 9662WAT      O39367   1.602   1.045   1.479  0.6481 -0.3757 -0.0244
 9662WAT     H139368   1.667   1.103   1.478 -0.8497  1.3928  0.2575
 9662WAT     H239369   1.634   0.979   1.527  1.9674  0.7794  0.7432
 9662WAT    EPW39370   1.616   1.044   1.486  0.6217  0.0562  0.1307
 9663WAT      O39371   0.576   0.995   5.989 -0.0888  0.1073 -0.5414
 9663WAT     H139372   0.519   1.024   6.049 -0.0944  0.6438 -0.8030
 9663WAT     H239373   0.557   1.043   5.918  0.3624 -0.0580 -0.7741
 9663WAT    EPW39374   0.565   1.007   5.987 -0.0230  0.1622 -0.6144
 9664WAT      O39375   5.217   2.759   5.912  0.0498 -0.0011  0.3444
 9664WAT     H139376   5.189   2.797   5.985  2.3312  1.3113  0.6490
 9664WAT     H239377   5.204   2.820   5.851 -0.0271 -0.3196  0.0377
 9664WAT    EPW39378   5.211   2.774   5.914  0.3755  0.1457  0.3441
 9665WAT      O39379   2.664   7.064   5.954 -0.4053  0.1069  0.7264
 9665WAT     H139380   2.591   7.103   5.925 -0.1356 -1.1691 -2.0488
 9665WAT     H239381   2.728   7.111   5.918  0.0442 -0.2268  1.0872
 9665WAT    EPW39382   2.663   7.077   5.944 -0.2990 -0.1309  0.3697
 9666WAT      O39383   0.948   5.356   0.897 -0.2690  0.5301 -0.4935
 9666WAT     H139384   0.952   5.402   0.971 -0.0318  0.1743 -0.2787
 9666WAT     H239385   0.973   5.276   0.922 -0.7605  0.2588 -0.8376
 9666WAT    EPW39386   0.952   5.351   0.912 -0.3066  0.4374 -0.5126
 9667WAT      O39387   7.176   5.684   1.786 -0.5331 -0.0528  0.8695
 9667WAT     H139388   7.138   5.611   1.815 -0.7360  0.3687  1.7164
 9667WAT     H239389   7.220   5.658   1.715 -0.7127 -0.9655  1.0790
 9667WAT    EPW39390   7.177   5.669   1.780 -0.5896 -0.1253  1.0256
 9668WAT      O39391   5.364   1.917   4.100  0.0403 -0.2174 -0.1544
 9668WAT     H139392   5.360   2.003   4.114  3.1406 -0.3188  2.7711
 9668WAT     H239393   5.330   1.882   4.172  1.0355 -1.3333 -0.1755
 9668WAT    EPW39394   5.359   1.924   4.113  0.6453 -0.3973  0.2747
 9669WAT      O39395   4.068   1.084   3.834 -0.2907 -0.2066 -0.6070
 9669WAT     H139396   4.136   1.031   3.845 -1.3228 -1.2617  1.2214
 9669WAT     H239397   4.058   1.121   3.912 -0.4368  1.6941 -1.4813
 9669WAT    EPW39398   4.076   1.082   3.847 -0.4647 -0.0817 -0.4660
 9670WAT      O39399   6.694   6.086   3.209 -0.0359  0.9368 -0.3945
 9670WAT     H139400   6.688   6.003   3.237 -1.7994  1.2236  0.1772
 9670WAT     H239401   6.704   6.077   3.122 -3.5653  0.0844 -0.8490
 9670WAT    EPW39402   6.695   6.072   3.200 -0.8178  0.8532 -0.3772
 9671WAT      O39403   0.392   1.000   7.060  0.6664 -0.5437  0.0644
 9671WAT     H139404   0.437   0.927   7.046 -0.3822 -1.4964  1.3876
 9671WAT     H239405   0.366   1.024   6.980  1.6541 -1.1926 -0.4613
 9671WAT    EPW39406   0.395   0.993   7.046  0.6574 -0.7803  0.1823
 9672WAT      O39407   2.479   5.704   1.813 -0.1184 -0.2092  0.5293
 9672WAT     H139408   2.494   5.649   1.746 -1.6056 -0.4732  0.3766
 9672WAT     H239409   2.421   5.661   1.862 -0.2705  0.6641  1.1336
 9672WAT    EPW39410   2.473   5.690   1.810 -0.3606 -0.1192  0.5960
 9673WAT      O39411   5.610   4.771   7.128  0.1081 -0.0127 -0.4841
 9673WAT     H139412   5.549   4.833   7.131 -0.3244 -0.4367 -0.4898
 9673WAT     H239413   5.634   4.763   7.212  0.3346  0.3231 -0.5130
 9673WAT    EPW39414   5.605   4.779   7.141  0.0777 -0.0257 -0.4892
 9674WAT      O39415   6.474   6.408   4.512 -0.9435 -0.3739  0.4973
 9674WAT     H139416   6.443   6.486   4.487  1.1597 -0.1134 -1.7351
 9674WAT     H239417   6.446   6.400   4.594 -2.5696  2.0021  0.2819
 9674WAT    EPW39418   6.466   6.419   4.520 -0.8730  0.0156  0.1357
 9675WAT      O39419   5.046   4.169   4.721  0.0488  0.2586 -0.2082
 9675WAT     H139420   5.113   4.217   4.751 -0.4013  1.0330 -0.3984
 9675WAT     H239421   4.976   4.211   4.751 -0.3643 -0.2186 -0.4852
 9675WAT    EPW39422   5.046   4.183   4.730 -0.0787  0.3025 -0.2772
 9676WAT      O39423   1.879   3.508   5.597 -0.7593  0.9333 -0.3130
 9676WAT     H139424   1.828   3.439   5.585 -0.4043  0.6112  0.0383
 9676WAT     H239425   1.952   3.489   5.553 -1.1097  1.5991 -1.2208
 9676WAT    EPW39426   1.882   3.495   5.589 -0.7586  0.9841 -0.3952
 9677WAT      O39427   6.825   3.874   6.201  0.5185  0.0043 -0.0825
 9677WAT     H139428   6.888   3.838   6.153  0.5743 -0.7745  0.5667
 9677WAT     H239429   6.857   3.953   6.220  1.1447 -0.2521 -0.0501
 9677WAT    EPW39430   6.839   3.881   6.197  0.6193 -0.1486  0.0182
 9678WAT      O39431   1.602   2.872   4.925  0.6765 -0.3246 -0.0137
 9678WAT     H139432   1.576   2.874   5.008  2.6135 -0.2509  0.6425
 9678WAT     H239433   1.649   2.798   4.920 -0.9238 -1.3231 -1.5646
 9678WAT    EPW39434   1.605   2.861   4.936  0.7262 -0.4612 -0.1459
 9679WAT      O39435   0.739   6.596   0.692 -0.4957 -0.0158  0.8902
 9679WAT     H139436   0.722   6.577   0.776 -0.2025 -0.5304  0.8371
 9679WAT     H239437   0.759   6.518   0.657 -1.6975  0.0278  0.0735
 9679WAT    EPW39438   0.739   6.581   0.699 -0.6299 -0.0854  0.7617
 9680WAT      O39439   1.550   0.102   1.635 -0.0433  0.0446 -0.5331
 9680WAT     H139440   1.542   0.188   1.624  0.8967  0.3958  1.2714
 9680WAT     H239441   1.615   0.080   1.580  2.1055  1.1310  1.4202
 9680WAT    EPW39442   1.558   0.111   1.625  0.4130  0.2570  0.0220
 9681WAT      O39443   2.669   6.093   2.332 -0.5948  0.1547 -0.4264
 9681WAT     H139444   2.686   6.009   2.350 -0.2168  0.6261  1.6873
 9681WAT     H239445   2.734   6.115   2.278 -1.2133 -1.1231 -1.7600
 9681WAT    EPW39446   2.681   6.083   2.327 -0.6303  0.0356 -0.3112
 9682WAT      O39447   5.784   5.723   3.763  0.8114 -0.3189 -0.1757
 9682WAT     H139448   5.820   5.771   3.700  1.1142  0.7083  0.7477
 9682WAT     H239449   5.833   5.651   3.765  3.2731  1.2456  1.3974
 9682WAT    EPW39450   5.796   5.719   3.754  1.2198  0.0640  0.1931
 9683WAT      O39451   2.408   2.490   6.428  0.4483 -0.2517 -0.0252
 9683WAT     H139452   2.464   2.424   6.442 -0.2016 -1.2158 -1.7604
 9683WAT     H239453   2.381   2.478   6.346 -1.4596  0.8348  0.3750
 9683WAT    EPW39454   2.412   2.478   6.418  0.0705 -0.2336 -0.2224
 9684WAT      O39455   6.017   5.507   0.912 -0.0259  0.7527  0.3475
 9684WAT     H139456   6.058   5.432   0.928  0.0505  0.7545  0.1572
 9684WAT     H239457   6.081   5.561   0.888 -0.3899  0.0515 -2.6255
 9684WAT    EPW39458   6.032   5.504   0.911 -0.0684  0.6494 -0.1198
 9685WAT      O39459   6.865   0.182   5.382  0.4361 -0.1411  0.0132
 9685WAT     H139460   6.918   0.146   5.322  2.1215  0.7344  0.8815
 9685WAT     H239461   6.907   0.168   5.457 -0.7033  0.4008  0.7790
 9685WAT    EPW39462   6.879   0.175   5.384  0.5167  0.0683  0.2546
 9686WAT      O39463   0.587   3.289   6.769  0.3522  0.1577 -0.0300
 9686WAT     H139464   0.576   3.216   6.722  0.3588 -0.7077  1.2654
 9686WAT     H239465   0.601   3.350   6.708  1.9621 -1.1870 -1.1161
 9686WAT    EPW39466   0.587   3.287   6.753  0.5910 -0.1688  0.0009
 9687WAT      O39467   1.626   1.633   0.204 -0.5919 -0.3366 -0.3051
 9687WAT     H139468   1.658   1.641   0.285  1.7300 -1.0201 -1.0684
 9687WAT     H239469   1.584   1.709   0.191 -1.7690 -0.5317  1.7795
 9687WAT    EPW39470   1.625   1.645   0.214 -0.4228 -0.4664 -0.1099
 9688WAT      O39471   4.125   0.927   4.159 -0.2956 -0.1333  0.3527
 9688WAT     H139472   4.079   0.996   4.132  1.5288  0.8957 -0.3151
 9688WAT     H239473   4.173   0.959   4.225  0.0153 -0.9713  0.5445
 9688WAT    EPW39474   4.125   0.942   4.165  0.0198 -0.1051  0.2824
 9689WAT      O39475   5.721   4.397   4.549  0.5263 -0.1773 -0.2696
 9689WAT     H139476   5.682   4.323   4.525  0.2612 -0.4246  0.8680
 9689WAT     H239477   5.785   4.371   4.603  1.0781  0.3537 -0.6486
 9689WAT    EPW39478   5.725   4.382   4.554  0.5686 -0.1354 -0.1575
 9690WAT      O39479   4.009   6.251   4.094 -0.2076  0.5931  0.3107
 9690WAT     H139480   3.985   6.330   4.124  0.1375  1.0462 -0.5610
 9690WAT     H239481   4.085   6.266   4.056 -0.6226  0.0485 -0.7749
 9690WAT    EPW39482   4.016   6.265   4.093 -0.2179  0.5796  0.0216
 9691WAT      O39483   3.269   3.359   1.608  0.0605 -0.0256  0.2340
 9691WAT     H139484   3.325   3.302   1.572 -0.6162 -0.1145 -0.7118
 9691WAT     H239485   3.285   3.433   1.565 -0.5530 -0.0596 -0.0679
 9691WAT    EPW39486   3.280   3.361   1.596 -0.1301 -0.0438  0.0497
 9692WAT      O39487   1.296   3.020   2.267  0.6075 -0.2175 -0.0929
 9692WAT     H139488   1.247   2.954   2.239  0.2822 -0.3031  0.6646
 9692WAT     H239489   1.318   2.996   2.348  0.0897  0.8030  0.3672
 9692WAT    EPW39490   1.292   3.007   2.275  0.4830 -0.0794  0.0870
 9693WAT      O39491   0.595   5.985   4.156  0.2612 -0.0446  0.0199
 9693WAT     H139492   0.557   6.031   4.093  1.1963 -1.6167 -1.7882
 9693WAT     H239493   0.679   6.004   4.147  0.8029 -2.7646 -1.4520
 9693WAT    EPW39494   0.602   5.995   4.145  0.4793 -0.6786 -0.4646
 9694WAT      O39495   6.061   1.136   1.853  0.1480  0.3472  0.1233
 9694WAT     H139496   6.084   1.114   1.772 -1.6970  1.2937 -0.7280
 9694WAT     H239497   6.133   1.123   1.900  1.0606 -0.9048 -1.5337
 9694WAT    EPW39498   6.075   1.131   1.848  0.0103  0.3021 -0.2472
 9695WAT      O39499   1.489   4.039   6.933  0.0633  0.3458 -0.5577
 9695WAT     H139500   1.535   4.011   7.002 -1.4647 -0.8124  0.0629
 9695WAT     H239501   1.543   4.025   6.866  0.4346 -1.5865  0.0623
 9695WAT    EPW39502   1.504   4.033   6.933 -0.1075 -0.1107 -0.3744
 9696WAT      O39503   4.463   0.962   6.499 -0.0916 -0.0701 -0.5747
 9696WAT     H139504   4.445   0.889   6.454 -0.4388 -1.1696  1.2509
 9696WAT     H239505   4.521   0.936   6.558 -0.2626  1.1216  0.1475
 9696WAT    EPW39506   4.469   0.948   6.501 -0.1681 -0.0565 -0.1983
 9697WAT      O39507   1.682   5.430   4.339  0.1396 -0.2579  0.3586
 9697WAT     H139508   1.626   5.419   4.273  0.1670  1.1243  0.0741
 9697WAT     H239509   1.669   5.359   4.388 -0.1877 -1.1095 -0.8960
 9697WAT    EPW39510   1.672   5.418   4.336  0.0953 -0.1795  0.1312
 9698WAT      O39511   4.318   6.705   5.374 -0.4915 -0.1092 -0.4786
 9698WAT     H139512   4.369   6.638   5.396 -1.4232  0.1097  2.9012
 9698WAT     H239513   4.243   6.668   5.353 -1.2532 -0.2592  2.1319
 9698WAT    EPW39514   4.315   6.690   5.374 -0.7417 -0.0991  0.4063
 9699WAT      O39515   3.781   6.946   3.017  0.2715  0.4047  0.8478
 9699WAT     H139516   3.816   6.871   2.990  1.1070  1.3469 -0.8893
 9699WAT     H239517   3.843   6.979   3.069  1.6269  1.5406 -1.3270
 9699WAT    EPW39518   3.795   6.940   3.021  0.5952  0.7117  0.2699
 9700WAT      O39519   0.340   7.213   3.188 -0.4091  0.1819  0.3037
 9700WAT     H139520   0.300   7.246   3.117  0.3442 -0.2988 -0.3685
 9700WAT     H239521   0.311   7.131   3.190 -0.1666  0.0972  0.3474
 9700WAT    EPW39522   0.330   7.206   3.178 -0.2620  0.0984  0.2109
 9701WAT      O39523   5.559   5.198   6.031 -0.0724  0.2279  0.7969
 9701WAT     H139524   5.497   5.137   6.034 -1.4561  1.4408 -0.7634
 9701WAT     H239525   5.630   5.155   6.008 -0.5343 -1.0788  1.7230
 9701WAT    EPW39526   5.560   5.183   6.028 -0.3450  0.2140  0.7032
 9702WAT      O39527   3.755   3.667   3.694 -0.4828  0.9860  0.2153
 9702WAT     H139528   3.751   3.654   3.780 -0.3726  1.2347  0.2589
 9702WAT     H239529   3.693   3.728   3.680 -3.5573 -1.9668 -0.4802
 9702WAT    EPW39530   3.745   3.674   3.705 -0.9207  0.5865  0.1190
 9703WAT      O39531   3.841   1.715   7.071  0.6269  0.3348 -0.5864
 9703WAT     H139532   3.897   1.781   7.073  0.0520  0.8573 -1.2922
 9703WAT     H239533   3.855   1.677   6.994  1.0761 -0.4905 -0.1170
 9703WAT    EPW39534   3.851   1.719   7.060  0.6083  0.2901 -0.6213
 9704WAT      O39535   6.936   1.275   6.794 -0.3011 -0.5013 -0.3390
 9704WAT     H139536   6.950   1.358   6.773  3.7698 -0.4419  1.6827
 9704WAT     H239537   6.923   1.236   6.717 -2.1263  1.8754 -1.3422
 9704WAT    EPW39538   6.936   1.282   6.780  0.0307 -0.1414 -0.1886
 9705WAT      O39539   5.681   1.215   0.564  0.5452 -0.3642  0.0525
 9705WAT     H139540   5.631   1.222   0.635  1.0773  0.9616  0.3118
 9705WAT     H239541   5.651   1.278   0.512  1.8584  0.3895  0.1792
 9705WAT    EPW39542   5.669   1.225   0.567  0.8178 -0.0570  0.1095
 9706WAT      O39543   7.033   3.295   0.876  0.0396  0.3888 -0.1936
 9706WAT     H139544   6.952   3.289   0.842  0.0863  0.8243 -0.3870
 9706WAT     H239545   7.080   3.328   0.811  0.5095 -0.4386 -0.2804
 9706WAT    EPW39546   7.028   3.299   0.861  0.1159  0.3309 -0.2350
 9707WAT      O39547   0.150   4.805   4.353  0.0424  0.3282 -0.1572
 9707WAT     H139548   0.083   4.771   4.309 -1.8092  1.1849  1.7973
 9707WAT     H239549   0.180   4.868   4.300 -1.0505  0.2671 -0.8820
 9707WAT    EPW39550   0.145   4.810   4.339 -0.3926  0.4457  0.0245
 9708WAT      O39551   5.161   4.388   5.101  0.4627  0.0963  0.0178
 9708WAT     H139552   5.171   4.450   5.162  1.3429  1.4556 -1.4230
 9708WAT     H239553   5.242   4.358   5.089  0.2473 -0.3768 -0.2853
 9708WAT    EPW39554   5.175   4.393   5.108  0.5609  0.2272 -0.2398
 9709WAT      O39555   3.252   4.222   1.523  0.5997  0.3883  0.5635
 9709WAT     H139556   3.289   4.217   1.602 -1.8222  2.4826  1.9915
 9709WAT     H239557   3.269   4.304   1.498  0.4257  0.0827 -0.5874
 9709WAT    EPW39558   3.260   4.233   1.531  0.2162  0.6525  0.6044
 9710WAT      O39559   7.012   7.139   7.212  0.5058 -0.2399 -0.8117
 9710WAT     H139560   7.052   7.063   7.228 -1.2239 -1.1772 -0.7022
 9710WAT     H239561   6.948   7.141   7.271  0.7438  1.5149 -0.5553
 9710WAT    EPW39562   7.009   7.128   7.223  0.2855 -0.1191 -0.7577
 9711WAT      O39563   5.647   7.031   7.222 -0.4537 -0.2410 -0.5897
 9711WAT     H139564   5.636   6.951   7.254  0.7022 -0.1035  0.2263
 9711WAT     H239565   5.625   7.083   7.289 -0.0217  0.0961 -0.7018
 9711WAT    EPW39566   5.642   7.027   7.237 -0.2191 -0.1709 -0.4857
 9712WAT      O39567   2.974   3.872   3.077 -0.1276 -0.2493  0.1351
 9712WAT     H139568   2.891   3.858   3.101 -0.6739  0.0424 -1.4887
 9712WAT     H239569   2.967   3.920   3.005  1.4294 -1.0601 -0.6060
 9712WAT    EPW39570   2.960   3.877   3.070  0.0217 -0.3260 -0.2143
 9713WAT      O39571   6.200   0.526   3.587  0.0536 -1.2711 -0.0585
 9713WAT     H139572   6.151   0.598   3.583  0.1551 -0.7978  3.4793
 9713WAT     H239573   6.280   0.555   3.568  0.5090  0.2632  3.3900
 9713WAT    EPW39574   6.205   0.541   3.584  0.1359 -0.9746  0.9735
 9714WAT      O39575   6.654   6.871   3.932  0.5606  0.0952  0.4384
 9714WAT     H139576   6.603   6.864   4.002 -0.0792  0.4202  0.0179
 9714WAT     H239577   6.645   6.793   3.893  1.3751 -0.2936  1.0160
 9714WAT    EPW39578   6.645   6.858   3.936  0.5864  0.0857  0.4616
 9715WAT      O39579   0.771   3.879   1.510 -0.0805  0.4239 -0.0057
 9715WAT     H139580   0.741   3.906   1.587  2.0091  0.2853  0.9184
 9715WAT     H239581   0.769   3.952   1.461  1.8574  1.4312  1.2857
 9715WAT    EPW39582   0.766   3.894   1.514  0.5144  0.5522  0.3216
 9716WAT      O39583   0.656   6.543   3.793 -0.1812  0.5312  0.0834
 9716WAT     H139584   0.642   6.629   3.784  0.6973  0.5297 -1.6855
 9716WAT     H239585   0.712   6.525   3.730 -0.0348 -1.2990  0.6892
 9716WAT    EPW39586   0.662   6.553   3.782 -0.0298  0.2606 -0.0884
 9717WAT      O39587   1.618   5.748   5.273 -0.0346 -0.0460  0.5074
 9717WAT     H139588   1.618   5.803   5.206  1.2279 -0.6284 -0.0049
 9717WAT     H239589   1.655   5.793   5.338  0.0563  0.0439  0.3919
 9717WAT    EPW39590   1.623   5.763   5.273  0.1653 -0.1187  0.4147
 9718WAT      O39591   5.140   5.787   0.724 -0.1166 -0.2023 -0.7109
 9718WAT     H139592   5.170   5.843   0.664 -0.0235  0.1757 -0.3172
 9718WAT     H239593   5.174   5.816   0.798  2.2620 -2.3694 -0.7986
 9718WAT    EPW39594   5.149   5.799   0.726  0.2485 -0.4666 -0.6657
 9719WAT      O39595   1.388   0.236   5.487 -0.1193 -0.2633 -0.0453
 9719WAT     H139596   1.409   0.299   5.544  0.5029  0.7314 -1.3202
 9719WAT     H239597   1.309   0.259   5.459 -0.4761 -0.8170  0.4906
 9719WAT    EPW39598   1.380   0.249   5.491 -0.0801 -0.1982 -0.1544
 9720WAT      O39599   1.230   7.171   0.514 -0.2927  0.4807  0.2300
 9720WAT     H139600   1.241   7.085   0.517  0.5625  0.6069  0.7756
 9720WAT     H239601   1.145   7.181   0.530 -0.5509 -0.2899 -0.5431
 9720WAT    EPW39602   1.219   7.160   0.517 -0.2045  0.3855  0.1964
 9721WAT      O39603   6.744   1.090   4.896 -0.2585  0.8819  0.4498
 9721WAT     H139604   6.806   1.052   4.944 -1.9481 -1.1508  1.2079
 9721WAT     H239605   6.770   1.173   4.890  2.8452 -0.0030  0.0751
 9721WAT    EPW39606   6.757   1.097   4.902 -0.0496  0.4509  0.5064
 9722WAT      O39607   5.055   5.425   7.236  0.4401 -0.0676  0.2380
 9722WAT     H139608   5.135   5.432   7.269  0.6654  0.5657 -0.4090
 9722WAT     H239609   5.003   5.441   7.305  0.8645 -0.4261  0.6464
 9722WAT    EPW39610   5.059   5.428   7.251  0.5361 -0.0270  0.2028
 9723WAT      O39611   3.262   5.488   3.661  0.2799 -0.2950  0.3192
 9723WAT     H139612   3.190   5.474   3.612  1.2986 -3.0469 -0.6138
 9723WAT     H239613   3.272   5.574   3.658 -1.6289 -0.0384 -1.5499
 9723WAT    EPW39614   3.253   5.498   3.653  0.1484 -0.6636 -0.0947
 9724WAT      O39615   5.865   4.271   3.462  0.5906  0.1776  1.0351
 9724WAT     H139616   5.906   4.235   3.530 -0.3317  0.6438  1.8482
 9724WAT     H239617   5.886   4.355   3.468  0.0242  0.3157  1.0803
 9724WAT    EPW39618   5.874   4.278   3.473  0.3707  0.2669  1.1619
 9725WAT      O39619   3.403   4.160   1.770 -0.2126 -0.0228  0.1529
 9725WAT     H139620   3.332   4.196   1.805 -0.4586 -1.0588  0.7741
 9725WAT     H239621   3.379   4.077   1.756  0.3414  0.0096 -1.1909
 9725WAT    EPW39622   3.389   4.153   1.773 -0.1671 -0.1711  0.0461
 9726WAT      O39623   4.941   6.608   1.549 -0.5440 -0.6319 -0.1023
 9726WAT     H139624   4.966   6.604   1.466  0.0243 -2.0599  0.1196
 9726WAT     H239625   4.991   6.671   1.583  0.8853 -1.6232 -0.3025
 9726WAT    EPW39626   4.952   6.617   1.542 -0.2489 -0.9893 -0.0991
 9727WAT      O39627   5.705   1.640   3.400  0.4048 -0.1408  0.0996
 9727WAT     H139628   5.656   1.684   3.343 -1.6567 -0.8338  1.2194
 9727WAT     H239629   5.729   1.700   3.458  0.8891  0.2019 -0.4454
 9727WAT    EPW39630   5.701   1.655   3.400  0.1718 -0.1925  0.1845
 9728WAT      O39631   4.056   6.978   4.152  0.3527 -0.1409 -0.0071
 9728WAT     H139632   4.059   7.065   4.157 -0.5730 -0.1376  0.5893
 9728WAT     H239633   4.003   6.955   4.217  0.2087 -1.1250 -0.4583
 9728WAT    EPW39634   4.049   6.987   4.162  0.1947 -0.2858  0.0143
 9729WAT      O39635   5.666   1.084   6.165  0.1202  0.3238 -0.0494
 9729WAT     H139636   5.596   1.136   6.162  0.0180  0.1472 -0.9203
 9729WAT     H239637   5.638   1.013   6.208 -0.3375  0.1062 -0.7027
 9729WAT    EPW39638   5.652   1.081   6.171  0.0375  0.2655 -0.2746
 9730WAT      O39639   0.412   2.088   6.130 -0.1180  0.5382 -0.2744
 9730WAT     H139640   0.393   2.010   6.164 -1.2684  0.9187 -0.0159
 9730WAT     H239641   0.450   2.068   6.053 -1.1209 -0.2663 -0.5791
 9730WAT    EPW39642   0.415   2.074   6.123 -0.4361  0.4755 -0.2812
 9731WAT      O39643   3.824   3.844   4.350 -0.2667  0.0192  0.2990
 9731WAT     H139644   3.891   3.895   4.372 -0.5577  0.9307 -0.8453
 9731WAT     H239645   3.863   3.770   4.325  0.2976  0.3937  0.0377
 9731WAT    EPW39646   3.840   3.840   4.350 -0.2264  0.2092  0.0914
 9732WAT      O39647   6.157   0.912   5.363  0.3392 -0.3520  0.0974
 9732WAT     H139648   6.123   0.849   5.414  0.1884 -1.1281 -0.9283
 9732WAT     H239649   6.243   0.904   5.375  0.6607 -3.3192 -2.7828
 9732WAT    EPW39650   6.164   0.901   5.372  0.3644 -0.9050 -0.4796
 9733WAT      O39651   5.048   1.080   0.200 -0.9271 -0.7755 -0.0497
 9733WAT     H139652   4.996   1.104   0.135 -0.3809 -0.2132 -0.2802
 9733WAT     H239653   4.996   1.030   0.250 -2.1656  1.0549  0.5827
 9733WAT    EPW39654   5.033   1.076   0.198 -1.0294 -0.4220  0.0097
 9734WAT      O39655   2.772   3.679   1.042 -0.3157 -0.3811  0.3944
 9734WAT     H139656   2.734   3.611   1.002  2.5275 -1.0487 -1.4688
 9734WAT     H239657   2.705   3.720   1.080 -2.1610 -4.3561  2.0102
 9734WAT    EPW39658   2.756   3.675   1.041 -0.1683 -1.0669  0.3579
 9735WAT      O39659   1.066   4.085   0.620 -1.2496 -0.2652  0.3459
 9735WAT     H139660   1.146   4.049   0.622 -0.9546  0.3854  1.4381
 9735WAT     H239661   1.063   4.125   0.543 -0.4535 -0.1783  0.3490
 9735WAT    EPW39662   1.078   4.085   0.609 -1.0884 -0.1562  0.5077
 9736WAT      O39663   4.022   6.108   0.460 -0.2886 -0.1467  0.5328
 9736WAT     H139664   4.077   6.045   0.437  1.6322  1.5052  0.2485
 9736WAT     H239665   4.056   6.138   0.535 -0.4479  1.2691  0.0683
 9736WAT    EPW39666   4.036   6.103   0.468 -0.0284  0.3065  0.4222
 9737WAT      O39667   4.120   0.968   0.260 -0.3355 -0.1483 -0.6587
 9737WAT     H139668   4.042   0.953   0.296 -0.0709  0.0034 -0.0000
 9737WAT     H239669   4.175   0.924   0.312  0.0177 -0.2321 -1.1019
 9737WAT    EPW39670   4.117   0.959   0.273 -0.2442 -0.1382 -0.6269
 9738WAT      O39671   6.107   0.011   6.766  0.0671 -0.3285  0.0427
 9738WAT     H139672   6.145   0.087   6.787 -1.8165  0.7699 -0.2874
 9738WAT     H239673   6.051  -0.003   6.832 -2.6525  0.8366 -1.8148
 9738WAT    EPW39674   6.104   0.020   6.779 -0.6129  0.0058 -0.2805
 9739WAT      O39675   4.615   4.408   4.316 -0.6514  0.1467  0.6601
 9739WAT     H139676   4.676   4.420   4.376  0.5824  0.8396 -0.6633
 9739WAT     H239677   4.609   4.486   4.276  0.0802 -0.7714 -1.4099
 9739WAT    EPW39678   4.623   4.421   4.319 -0.3611  0.1135  0.1588
 9740WAT      O39679   6.408   3.653   4.508  0.2140  0.7755  0.6454
 9740WAT     H139680   6.472   3.712   4.511  0.7359  0.2291  0.3110
 9740WAT     H239681   6.435   3.591   4.562 -0.0847  0.5784  0.5724
 9740WAT    EPW39682   6.421   3.653   4.517  0.2470  0.6657  0.5852
 9741WAT      O39683   6.791   3.077   4.306  0.5129  0.1019  0.5892
 9741WAT     H139684   6.738   3.118   4.250  0.2702 -2.6434 -1.3416
 9741WAT     H239685   6.742   3.067   4.377 -0.8655 -0.4945 -0.4120
 9741WAT    EPW39686   6.776   3.082   4.308  0.2734 -0.3917  0.1561
 9742WAT      O39687   6.395   3.429   5.963 -0.2556  0.4463  0.4565
 9742WAT     H139688   6.454   3.412   6.025 -0.4455 -1.2247  0.2198
 9742WAT     H239689   6.437   3.407   5.889 -0.5236  1.0560  0.1173
 9742WAT    EPW39690   6.410   3.423   5.961 -0.3233  0.2895  0.3714
 9743WAT      O39691   2.838   3.490   3.227  0.1777  0.9901  0.1811
 9743WAT     H139692   2.909   3.453   3.191  0.3461  0.4903  0.9960
 9743WAT     H239693   2.772   3.447   3.189  0.3357  0.8469  0.0619
 9743WAT    EPW39694   2.839   3.478   3.216  0.2259  0.8951  0.2839
 9744WAT      O39695   5.988   1.551   1.648  0.1594 -0.9368  0.3202
 9744WAT     H139696   6.049   1.496   1.618  1.9743  1.2421 -0.2591
 9744WAT     H239697   5.957   1.511   1.719  2.2377 -2.1718  0.6074
 9744WAT    EPW39698   5.993   1.537   1.654  0.7345 -0.7974  0.2771
 9745WAT      O39699   6.279   4.340   3.702  0.9427  0.3673  0.6014
 9745WAT     H139700   6.267   4.259   3.673  1.2949  0.4403  0.2499
 9745WAT     H239701   6.305   4.384   3.631  0.9331  0.7475  0.8295
 9745WAT    EPW39702   6.281   4.335   3.687  0.9933  0.4342  0.5832
 9746WAT      O39703   0.067   1.513   6.684  0.1924  0.3991 -0.0621
 9746WAT     H139704   0.083   1.594   6.713  0.5610 -0.1882  1.4805
 9746WAT     H239705   0.047   1.525   6.600 -0.2521  2.1396  0.2494
 9746WAT    EPW39706   0.066   1.527   6.676  0.1812  0.5695  0.2118
 9747WAT      O39707   3.220   2.256   4.383 -0.8776 -0.0778 -0.0948
 9747WAT     H139708   3.269   2.202   4.334 -1.3654 -1.5922  1.0089
 9747WAT     H239709   3.244   2.237   4.464 -0.7451  1.7449  0.3322
 9747WAT    EPW39710   3.231   2.245   4.388 -0.9301 -0.0323  0.1313
 9748WAT      O39711   1.116   2.260   6.700  0.1232 -0.2592 -0.4243
 9748WAT     H139712   1.126   2.342   6.671 -0.2201  0.5344  1.5543
 9748WAT     H239713   1.044   2.233   6.658 -0.7299  1.0661  0.1185
 9748WAT    EPW39714   1.107   2.268   6.689 -0.0535  0.0538 -0.0518
 9749WAT      O39715   3.613   0.731   1.596 -0.3034 -0.1277 -0.4522
 9749WAT     H139716   3.598   0.680   1.527  0.1944 -0.6259 -0.2020
 9749WAT     H239717   3.542   0.781   1.600 -1.6545 -1.9910  0.3638
 9749WAT    EPW39718   3.601   0.731   1.586 -0.4294 -0.4765 -0.2947
 9750WAT      O39719   6.948   4.599   7.220  0.4750  0.3409 -0.2942
 9750WAT     H139720   6.937   4.683   7.241 -0.4422  0.5939 -1.6273
 9750WAT     H239721   7.010   4.601   7.159 -0.3793  0.2162 -1.2010
 9750WAT    EPW39722   6.956   4.612   7.214  0.2133  0.3598 -0.6251
 9751WAT      O39723   6.336   1.545   2.314  0.5795  0.1355  0.6566
 9751WAT     H139724   6.306   1.625   2.333 -0.0642  0.1143 -0.2002
 9751WAT     H239725   6.394   1.530   2.377 -0.2734  0.7105  1.6192
 9751WAT    EPW39726   6.340   1.555   2.326  0.3585  0.2173  0.6722
 9752WAT      O39727   2.398   0.905   1.058  0.6462  0.3225 -0.0934
 9752WAT     H139728   2.374   0.972   1.008  0.2393 -0.5769 -1.1562
 9752WAT     H239729   2.361   0.922   1.135  0.1748  1.0916 -0.4806
 9752WAT    EPW39730   2.389   0.917   1.062  0.5165  0.3032 -0.3076
 9753WAT      O39731   3.178   1.206   3.881  0.3821  0.1025  0.1319
 9753WAT     H139732   3.224   1.160   3.823 -2.0862 -0.6017 -1.4334
 9753WAT     H239733   3.167   1.150   3.947  2.8247  0.7566  1.2148
 9753WAT    EPW39734   3.183   1.191   3.882  0.3783  0.0951  0.0606
 9754WAT      O39735   7.250   0.018   6.384  0.4453  0.5484 -0.0749
 9754WAT     H139736   7.332   0.012   6.354  0.6201  0.1336  0.4757
 9754WAT     H239737   7.217   0.085   6.339  1.3613  1.2937  0.3268
 9754WAT    EPW39738   7.257   0.027   6.373  0.6064  0.5973  0.0658
 9755WAT      O39739   5.730   6.269   1.713  0.7798  0.0896 -0.2126
 9755WAT     H139740   5.741   6.353   1.692  2.7952 -0.2439 -0.7296
 9755WAT     H239741   5.812   6.239   1.719  0.1163 -1.7037  0.5642
 9755WAT    EPW39742   5.744   6.277   1.711  0.9795 -0.2245 -0.1742
 9756WAT      O39743   1.026   3.269   0.017  0.0846  0.5360  0.3927
 9756WAT     H139744   0.943   3.282  -0.009 -0.1673  1.2252  1.4410
 9756WAT     H239745   1.043   3.341   0.064  1.7055  0.9882 -0.8024
 9756WAT    EPW39746   1.016   3.282   0.020  0.2868  0.7046  0.3710
 9757WAT      O39747   1.349   2.779   5.044  0.4387  0.3591  0.2507
 9757WAT     H139748   1.321   2.696   5.044  1.2574 -0.0199 -2.8040
 9757WAT     H239749   1.401   2.782   5.114 -1.1512 -1.0718  1.6028
 9757WAT    EPW39750   1.352   2.767   5.054  0.3248  0.0918 -0.0008
 9758WAT      O39751   5.227   6.059   6.451  0.3381 -0.5117  0.3060
 9758WAT     H139752   5.212   6.092   6.372  0.7780  0.6469  0.6840
 9758WAT     H239753   5.194   5.978   6.447  0.1925 -0.3967 -0.9915
 9758WAT    EPW39754   5.220   6.052   6.439  0.3816 -0.3236  0.1702
 9759WAT      O39755   3.621   6.676   0.395  0.6429 -0.1788 -0.5072
 9759WAT     H139756   3.601   6.593   0.381 -2.6770  0.4795 -0.4276
 9759WAT     H239757   3.640   6.707   0.316 -1.1605 -0.3716 -1.0570
 9759WAT    EPW39758   3.621   6.668   0.381 -0.1139 -0.1100 -0.5767
 9760WAT      O39759   0.913   2.859   0.551  0.4771 -0.2849 -0.1030
 9760WAT     H139760   0.956   2.880   0.478  1.4467  0.0547  0.5442
 9760WAT     H239761   0.967   2.886   0.615 -0.7651  0.3008  0.7354
 9760WAT    EPW39762   0.927   2.866   0.550  0.4368 -0.1482  0.1164
 9761WAT      O39763   2.627   5.631   5.406  0.1243  0.0439  0.4271
 9761WAT     H139764   2.635   5.550   5.438  1.3081  0.0217  0.1157
 9761WAT     H239765   2.704   5.668   5.424 -0.5680  1.2614  0.9756
 9761WAT    EPW39766   2.640   5.625   5.413  0.1969  0.2205  0.4621
 9762WAT      O39767   1.985   1.617   1.811  0.1584 -0.1559  0.2836
 9762WAT     H139768   1.903   1.633   1.787 -0.0063  0.1168  0.9977
 9762WAT     H239769   2.033   1.654   1.748 -0.2581 -0.7877 -0.4245
 9762WAT    EPW39770   1.980   1.624   1.798  0.0726 -0.2089  0.2845
 9763WAT      O39771   5.645   6.077   1.892 -0.0997 -0.3484  0.1162
 9763WAT     H139772   5.665   6.138   1.832  0.6264 -1.1860 -0.5161
 9763WAT     H239773   5.598   6.121   1.951  0.5336  0.8624 -0.2525
 9763WAT    EPW39774   5.641   6.093   1.892  0.1011 -0.2933 -0.0316
 9764WAT      O39775   5.526   6.348   4.044 -0.4537  0.4795  0.4238
 9764WAT     H139776   5.481   6.415   4.011  1.1539  0.6553 -1.5783
 9764WAT     H239777   5.609   6.375   4.042  0.0253 -0.6893  1.8647
 9764WAT    EPW39778   5.532   6.362   4.039 -0.1455  0.3328  0.3409
 9765WAT      O39779   0.795   0.744   3.404  0.0015 -0.3648  0.0483
 9765WAT     H139780   0.758   0.793   3.342  1.8914 -0.0805 -0.9302
 9765WAT     H239781   0.747   0.671   3.404 -1.0574  0.3126 -0.5433
 9765WAT    EPW39782   0.782   0.740   3.395  0.1243 -0.2227 -0.1837
 9766WAT      O39783   4.513   4.917   0.826 -0.6212  0.5141  0.2027
 9766WAT     H139784   4.486   4.935   0.745 -1.2986 -0.4391  0.1964
 9766WAT     H239785   4.459   4.854   0.851  0.0551  0.2941  1.1332
 9766WAT    EPW39786   4.501   4.911   0.817 -0.6213  0.3408  0.3392
 9767WAT      O39787   0.386   2.846   5.288 -0.1432 -0.4584 -0.1234
 9767WAT     H139788   0.402   2.923   5.326  1.3514  0.6609 -2.7913
 9767WAT     H239789   0.299   2.839   5.293 -0.5462  2.2806 -1.2207
 9767WAT    EPW39790   0.376   2.856   5.294  0.0181  0.1116 -0.6796
 9768WAT      O39791   2.274   1.114   6.990  0.2134  0.0873  0.5747
 9768WAT     H139792   2.248   1.033   6.971  0.0051  0.4230 -0.6880
 9768WAT     H239793   2.353   1.104   7.024 -0.0046 -0.6776  0.8613
 9768WAT    EPW39794   2.282   1.101   6.992  0.1504  0.0239  0.4305
 9769WAT      O39795   2.097   5.782   1.965 -0.0570  0.1814 -0.0022
 9769WAT     H139796   2.114   5.865   1.987 -0.6746  0.3494 -0.1319
 9769WAT     H239797   2.141   5.771   1.891 -0.8788  0.7647 -0.5978
 9769WAT    EPW39798   2.106   5.793   1.957 -0.2696  0.2924 -0.1094
 9770WAT      O39799   2.848   0.357   7.111 -0.0136 -0.3172  0.3281
 9770WAT     H139800   2.900   0.392   7.172 -0.8578 -0.2096  1.0049
 9770WAT     H239801   2.901   0.302   7.069  0.8544  0.3667  0.4761
 9770WAT    EPW39802   2.864   0.354   7.114 -0.0101 -0.2003  0.4499
 9771WAT      O39803   1.053   2.230   6.142  0.2111 -0.3521  0.2001
 9771WAT     H139804   1.127   2.278   6.139 -0.8993  1.4916  0.5833
 9771WAT     H239805   0.990   2.289   6.130 -1.2463 -1.7883  0.4686
 9771WAT    EPW39806   1.055   2.246   6.140 -0.1682 -0.2919  0.2964
 9772WAT      O39807   3.190   2.655   1.443 -0.2389  0.2097  0.1207
 9772WAT     H139808   3.262   2.705   1.446  0.1212 -0.2060 -1.0711
 9772WAT     H239809   3.158   2.660   1.524  0.5934  1.1932  0.4051
 9772WAT    EPW39810   3.196   2.663   1.455 -0.0627  0.2936 -0.0134
 9773WAT      O39811   7.234   1.946   6.420  0.5163  0.2826  0.0969
 9773WAT     H139812   7.205   1.913   6.345  0.2519  3.3808 -1.3018
 9773WAT     H239813   7.255   2.028   6.400  2.0363  0.7728  3.0637
 9773WAT    EPW39814   7.233   1.953   6.406  0.7018  0.8127  0.3286
 9774WAT      O39815   3.654   2.911   6.585  0.6909  0.9275 -0.5239
 9774WAT     H139816   3.715   2.956   6.628  1.7492 -0.5730 -0.3641
 9774WAT     H239817   3.591   2.969   6.570  1.2050  1.9940  1.2526
 9774WAT    EPW39818   3.654   2.926   6.589  0.9232  0.8634 -0.2378
 9775WAT      O39819   2.887   2.560   5.955 -0.2431 -0.4455  0.0255
 9775WAT     H139820   2.922   2.559   6.035 -0.5102 -0.8241  0.1379
 9775WAT     H239821   2.953   2.535   5.903  0.3287  1.1116 -0.0407
 9775WAT    EPW39822   2.902   2.556   5.959 -0.1981 -0.2714  0.0323
 9776WAT      O39823   3.245   6.708   6.935 -0.3452  0.1332  0.1422
 9776WAT     H139824   3.321   6.669   6.918 -0.4975 -0.0629 -0.0861
 9776WAT     H239825   3.217   6.732   6.856  0.6255  2.3615  0.3890
 9776WAT    EPW39826   3.252   6.706   6.921 -0.2243  0.4334  0.1450
 9777WAT      O39827   2.503   0.987   6.062 -0.3127 -0.3120  0.1014
 9777WAT     H139828   2.460   0.988   6.138  0.8088  0.4109  0.7586
 9777WAT     H239829   2.533   0.905   6.057 -0.0690 -0.2603  0.6325
 9777WAT    EPW39830   2.501   0.975   6.073 -0.1111 -0.1976  0.2769
 9778WAT      O39831   3.322   4.001   1.314  0.1092  0.3967 -0.2262
 9778WAT     H139832   3.313   4.063   1.375 -0.2488  0.9779 -0.8445
 9778WAT     H239833   3.264   4.025   1.253 -0.4090 -0.8546 -0.2387
 9778WAT    EPW39834   3.312   4.014   1.314 -0.0203  0.2977 -0.3194
 9779WAT      O39835   0.698   6.410   1.277 -0.2102  0.1221 -0.1927
 9779WAT     H139836   0.678   6.493   1.260 -1.5035 -0.3032 -0.9138
 9779WAT     H239837   0.624   6.367   1.257  0.1215 -1.0957  1.0259
 9779WAT    EPW39838   0.684   6.416   1.271 -0.3522 -0.1207 -0.1192
 9780WAT      O39839   5.104   1.016   3.789  0.6140  0.0356 -0.1983
 9780WAT     H139840   5.144   1.027   3.865  2.8530 -0.2251 -1.2442
 9780WAT     H239841   5.127   1.087   3.743  1.2260 -0.8646 -1.3542
 9780WAT    EPW39842   5.113   1.028   3.793  1.0352 -0.1359 -0.5236
 9781WAT      O39843   1.350   1.329   1.364  0.1461  0.0793 -0.2040
 9781WAT     H139844   1.359   1.242   1.363  0.0995  0.0630  0.2634
 9781WAT     H239845   1.364   1.350   1.448 -0.4269  0.4538 -0.1932
 9781WAT    EPW39846   1.353   1.319   1.376  0.0545  0.1322 -0.1334
 9782WAT      O39847   0.657   0.549   5.553  0.3008 -0.2913 -0.1859
 9782WAT     H139848   0.687   0.476   5.590 -1.0482 -0.4747  0.6462
 9782WAT     H239849   0.595   0.521   5.499  1.3310  0.0940 -1.6407
 9782WAT    EPW39850   0.652   0.534   5.550  0.2537 -0.2615 -0.2779
 9783WAT      O39851   1.037   4.051   3.075 -0.2527  0.2811  0.2271
 9783WAT     H139852   1.082   3.994   3.124 -0.5762 -1.3616 -1.2711
 9783WAT     H239853   1.034   4.123   3.124 -0.0197 -1.0537  2.3390
 9783WAT    EPW39854   1.043   4.053   3.089 -0.2661 -0.1587  0.3178
 9784WAT      O39855   5.179   4.461   4.515 -0.5421 -0.8721 -0.2458
 9784WAT     H139856   5.247   4.451   4.461  2.4229 -0.4292  3.0705
 9784WAT     H239857   5.140   4.533   4.485 -1.4211 -2.6528 -3.9052
 9784WAT    EPW39858   5.184   4.470   4.502 -0.2340 -1.0698 -0.2965
 9785WAT      O39859   4.743   5.190   2.484 -0.2902  0.3186  0.1106
 9785WAT     H139860   4.802   5.250   2.463  1.1101 -0.8487  0.5116
 9785WAT     H239861   4.683   5.197   2.421  1.2500  0.2684 -1.4459
 9785WAT    EPW39862   4.743   5.200   2.472  0.1441  0.1388 -0.0601
 9786WAT      O39863   2.620   0.392   1.368 -0.1207  0.0001 -0.8247
 9786WAT     H139864   2.688   0.401   1.422  0.1891 -1.8853 -0.8128
 9786WAT     H239865   2.576   0.325   1.403 -1.9895  1.1249 -0.8731
 9786WAT    EPW39866   2.623   0.383   1.381 -0.3510 -0.1122 -0.8301
 9787WAT      O39867   1.457   4.641   5.704 -0.1420 -0.5734 -0.0020
 9787WAT     H139868   1.404   4.676   5.763 -0.3426 -0.1252 -0.4441
 9787WAT     H239869   1.404   4.616   5.640 -0.0312 -1.9731  0.4370
 9787WAT    EPW39870   1.442   4.643   5.703 -0.1553 -0.7139 -0.0024
 9788WAT      O39871   3.572   1.910   2.115 -0.1499 -0.0190 -0.1711
 9788WAT     H139872   3.549   1.826   2.124 -1.3875  0.3322  0.0792
 9788WAT     H239873   3.599   1.932   2.195 -0.0048 -0.1265 -0.1902
 9788WAT    EPW39874   3.572   1.901   2.128 -0.3112  0.0170 -0.1370
 9789WAT      O39875   3.327   6.081   3.045 -0.1059 -0.1572  0.1177
 9789WAT     H139876   3.365   6.076   3.124 -0.4225 -1.8589  0.1991
 9789WAT     H239877   3.298   6.163   3.042 -1.4349 -0.4535  2.4475
 9789WAT    EPW39878   3.328   6.092   3.056 -0.3490 -0.4523  0.4739
 9790WAT      O39879   2.531   3.605   4.800 -0.3982  0.2401 -0.2560
 9790WAT     H139880   2.591   3.566   4.750  2.6306  2.0598  1.6400
 9790WAT     H239881   2.526   3.686   4.767 -1.1685  0.3559  0.1386
 9790WAT    EPW39882   2.540   3.611   4.788 -0.0645  0.5260  0.0824
 9791WAT      O39883   7.036   1.236   1.446 -0.7360  0.5558 -0.0546
 9791WAT     H139884   7.003   1.159   1.470  0.4026 -0.3161 -1.1161
 9791WAT     H239885   7.102   1.248   1.502 -1.9342  1.6362  1.2013
 9791WAT    EPW39886   7.041   1.226   1.458 -0.7448  0.5866 -0.0259
 9792WAT      O39887   6.063   5.787   7.244  0.3736  0.0644  0.3901
 9792WAT     H139888   6.014   5.761   7.176  0.3197 -0.1338  0.5027
 9792WAT     H239889   6.129   5.729   7.245  0.5306  0.2413  0.3300
 9792WAT    EPW39890   6.066   5.775   7.234  0.3888  0.0613  0.3978
 9793WAT      O39891   0.703   2.473   5.414 -0.0696 -0.1414 -0.6043
 9793WAT     H139892   0.777   2.517   5.429 -1.3106  1.4630  1.3851
 9793WAT     H239893   0.645   2.536   5.394 -0.9520 -1.3431 -2.0434
 9793WAT    EPW39894   0.705   2.489   5.413 -0.3832 -0.0819 -0.5230
 9794WAT      O39895   1.770   5.300   6.817 -0.0148 -0.2082 -0.2407
 9794WAT     H139896   1.713   5.282   6.753  0.7267  2.5818 -1.8531
 9794WAT     H239897   1.721   5.339   6.878 -0.0585  1.3818 -1.2361
 9794WAT    EPW39898   1.754   5.303   6.816  0.0883  0.4388 -0.6259
 9795WAT      O39899   1.770   1.306   3.698 -0.0673 -0.3469 -0.3523
 9795WAT     H139900   1.741   1.327   3.777  0.3736  0.5209 -0.4150
 9795WAT     H239901   1.802   1.381   3.667 -0.9724 -0.4769 -1.6810
 9795WAT    EPW39902   1.771   1.320   3.705 -0.1358 -0.2379 -0.5578
 9796WAT      O39903   4.850   4.431   3.503 -0.4174 -0.2476  0.0221
 9796WAT     H139904   4.854   4.348   3.475 -0.2455 -0.4863  0.7457
 9796WAT     H239905   4.801   4.426   3.575 -0.4113  0.2857  0.0640
 9796WAT    EPW39906   4.843   4.418   3.509 -0.3911 -0.2041  0.1352
 9797WAT      O39907   3.757   1.324   1.274  0.1727  0.3725  0.1635
 9797WAT     H139908   3.706   1.254   1.285  1.1010 -0.4887 -0.7541
 9797WAT     H239909   3.837   1.290   1.268  0.7688  1.6182  0.7455
 9797WAT    EPW39910   3.761   1.309   1.275  0.3979  0.4293  0.1139
 9798WAT      O39911   0.712   1.188   2.485 -0.2426 -0.4149 -0.0268
 9798WAT     H139912   0.763   1.167   2.418 -0.2123  0.0590 -0.1512
 9798WAT     H239913   0.724   1.122   2.541  1.4434  0.2589  0.4748
 9798WAT    EPW39914   0.721   1.175   2.484  0.0109 -0.2454  0.0289
 9799WAT      O39915   2.482   2.341   7.087 -0.3554 -0.4260 -0.3918
 9799WAT     H139916   2.396   2.351   7.093 -0.1096  2.0595  0.3048
 9799WAT     H239917   2.495   2.325   7.002 -1.4888 -0.9447 -0.4884
 9799WAT    EPW39918   2.471   2.341   7.075 -0.4865 -0.1355 -0.3032
 9800WAT      O39919   5.649   4.917   0.637  0.2095  0.3590 -0.1030
 9800WAT     H139920   5.647   4.830   0.642  3.8924  0.1931  1.2722
 9800WAT     H239921   5.701   4.932   0.569  1.8618  1.3644  1.3199
 9800WAT    EPW39922   5.656   4.906   0.628  0.9976  0.4830  0.3103
 9801WAT      O39923   3.642   5.859   4.825  0.0421  0.3569 -0.1876
 9801WAT     H139924   3.692   5.846   4.895 -0.4947  1.3897  0.4142
 9801WAT     H239925   3.629   5.778   4.794 -0.5978 -0.2525  1.5431
 9801WAT    EPW39926   3.647   5.845   4.831 -0.1317  0.4194  0.1570
 9802WAT      O39927   1.330   1.365   4.754 -0.1617 -0.1803  0.6187
 9802WAT     H139928   1.263   1.398   4.799  0.2144 -0.3742  1.3383
 9802WAT     H239929   1.399   1.408   4.785  0.0251  0.1983 -0.2968
 9802WAT    EPW39930   1.331   1.376   4.765 -0.0786 -0.1530  0.5898
 9803WAT      O39931   6.600   3.647   0.331  0.6778 -0.2785 -0.3264
 9803WAT     H139932   6.674   3.628   0.289  0.9882 -0.1124  0.1347
 9803WAT     H239933   6.627   3.684   0.405  0.1286 -0.0887 -0.2113
 9803WAT    EPW39934   6.615   3.650   0.336  0.6425 -0.2259 -0.2413
 9804WAT      O39935   5.261   0.402   5.485 -0.3128 -0.4084 -0.2835
 9804WAT     H139936   5.318   0.370   5.426 -1.6210  0.9157 -2.4076
 9804WAT     H239937   5.275   0.488   5.483 -1.9672 -0.1162 -0.4411
 9804WAT    EPW39938   5.271   0.410   5.476 -0.7504 -0.1696 -0.6206
 9805WAT      O39939   0.783   5.083   5.689  0.5491  0.0893 -0.3864
 9805WAT     H139940   0.727   5.054   5.628 -0.4859  1.0353  0.0741
 9805WAT     H239941   0.840   5.131   5.644  0.4055 -0.0561 -0.7284
 9805WAT    EPW39942   0.783   5.085   5.673  0.3750  0.2076 -0.3689
 9806WAT      O39943   2.938   3.144   2.975  0.3032 -1.2348  0.6697
 9806WAT     H139944   2.924   3.128   3.060  0.1509 -1.5362  0.5926
 9806WAT     H239945   2.926   3.066   2.938  1.0878 -1.2599  0.4560
 9806WAT    EPW39946   2.934   3.130   2.982  0.3966 -1.2830  0.6267
 9807WAT      O39947   4.944   5.345   2.408 -0.2338  0.3391  0.1694
 9807WAT     H139948   5.014   5.301   2.435  0.5435 -0.4496 -2.7149
 9807WAT     H239949   4.928   5.311   2.329 -1.6706  2.9513 -0.7913
 9807WAT    EPW39950   4.952   5.333   2.400 -0.3312  0.6085 -0.3986
 9808WAT      O39951   5.017   1.439   6.334 -0.3685 -0.0868  0.7720
 9808WAT     H139952   4.933   1.432   6.312 -0.4715  2.3796 -0.0007
 9808WAT     H239953   5.059   1.421   6.259 -0.3238  0.4171  0.6690
 9808WAT    EPW39954   5.011   1.435   6.319 -0.3771  0.3519  0.6427
 9809WAT      O39955   2.255   3.037   5.917  0.1518  0.3458 -0.3408
 9809WAT     H139956   2.171   3.027   5.894  0.3107  0.5606 -1.0222
 9809WAT     H239957   2.251   3.045   6.004 -0.7803  2.7308 -0.5464
 9809WAT    EPW39958   2.242   3.037   5.927  0.0376  0.7299 -0.4719
 9810WAT      O39959   3.580   2.219   0.270  0.2844  0.0654 -0.2445
 9810WAT     H139960   3.636   2.198   0.206 -0.1856 -0.5011 -0.4784
 9810WAT     H239961   3.509   2.246   0.227 -0.7660 -2.1516 -0.0435
 9810WAT    EPW39962   3.578   2.220   0.254  0.0598 -0.3457 -0.2493
 9811WAT      O39963   0.624   2.233   3.388 -0.3282  0.2303  0.9767
 9811WAT     H139964   0.668   2.308   3.398 -0.7525  0.2475  3.1683
 9811WAT     H239965   0.678   2.183   3.341  0.7258  1.2687  1.0440
 9811WAT    EPW39966   0.639   2.237   3.382 -0.2352  0.3862  1.3104
 9812WAT      O39967   5.955   6.096   1.546  0.3011  0.5166  0.3183
 9812WAT     H139968   5.960   6.177   1.513 -1.0198  1.4742  2.2288
 9812WAT     H239969   5.869   6.079   1.543  0.2256  0.3086  2.3005
 9812WAT    EPW39970   5.943   6.106   1.541  0.0948  0.6273  0.8933
 9813WAT      O39971   0.202   6.537   1.222 -0.3148 -0.3633  0.1069
 9813WAT     H139972   0.229   6.473   1.169  0.5223  1.2158 -1.4897
 9813WAT     H239973   0.260   6.535   1.287 -0.3653 -1.2932  0.1352
 9813WAT    EPW39974   0.215   6.527   1.223 -0.1986 -0.2674 -0.1248
 9814WAT      O39975   1.469   2.291   5.266  0.2247 -0.2605  0.1912
 9814WAT     H139976   1.491   2.297   5.182  0.4483 -0.1035  0.2588
 9814WAT     H239977   1.384   2.273   5.264  0.0201  0.6831 -0.0565
 9814WAT    EPW39978   1.460   2.289   5.253  0.2275 -0.0979  0.1646
 9815WAT      O39979   3.692   3.433   0.023  0.1053  0.0042  0.8668
 9815WAT     H139980   3.779   3.435   0.025  0.1731  1.1246 -0.8935
 9815WAT     H239981   3.675   3.404  -0.058 -1.0805  3.1712 -0.1588
 9815WAT    EPW39982   3.702   3.429   0.011 -0.0599  0.6375  0.4552
 9816WAT      O39983   6.658   4.855   3.627  0.1248  0.1712 -0.5560
 9816WAT     H139984   6.590   4.821   3.671  0.0851  1.6691  0.6125
 9816WAT     H239985   6.644   4.829   3.545 -0.3264 -1.9228  0.1169
 9816WAT    EPW39986   6.646   4.846   3.622  0.0523  0.0831 -0.2840
 9817WAT      O39987   2.153   0.700   7.160 -0.2553 -0.6477  0.2902
 9817WAT     H139988   2.104   0.763   7.197 -1.4291 -1.4374  0.1503
 9817WAT     H239989   2.093   0.642   7.133  0.6539 -0.7536 -1.5961
 9817WAT    EPW39990   2.137   0.701   7.162 -0.2944 -0.7800 -0.0091
 9818WAT      O39991   6.645   2.607   4.232  0.2931  0.7810 -0.2888
 9818WAT     H139992   6.638   2.563   4.308  1.2678  1.5935  0.2980
 9818WAT     H239993   6.565   2.636   4.218 -0.1259 -0.2186 -0.0956
 9818WAT    EPW39994   6.632   2.605   4.241  0.3752  0.7534 -0.1736
 9819WAT      O39995   3.654   2.609   5.010  0.2258 -0.1491 -0.0499
 9819WAT     H139996   3.640   2.668   4.948 -1.2914 -0.7635 -0.3306
 9819WAT     H239997   3.741   2.602   5.013  0.3813  1.1181 -0.9120
 9819WAT    EPW39998   3.665   2.617   5.002  0.0246 -0.0527 -0.2188
 9820WAT      O39999   5.519   2.629   5.087 -0.0236 -0.2867  0.1230
 9820WAT     H140000   5.467   2.561   5.105 -0.7287  0.3178  0.4343
 9820WAT     H240001   5.560   2.644   5.163 -1.5749  1.0498  0.7757
 9820WAT    EPW40002   5.517   2.622   5.101 -0.3569  0.0000  0.2654
 9821WAT      O40003   7.126   0.775   6.960  0.3603 -0.3927 -0.0035
 9821WAT     H140004   7.084   0.791   6.886 -0.2742  0.3094  0.4969
 9821WAT     H240005   7.194   0.829   6.957 -0.0887  0.1913  0.2750
 9821WAT    EPW40006   7.130   0.785   6.949  0.2002 -0.2027  0.1116
 9822WAT      O40007   1.590   3.440   6.730 -0.4870  0.1507  0.0091
 9822WAT     H140008   1.614   3.366   6.770 -0.6309  1.2719  2.3424
 9822WAT     H240009   1.520   3.465   6.774 -1.9270  0.4890 -2.3128
 9822WAT    EPW40010   1.583   3.433   6.742 -0.7210  0.3663  0.0108
 9823WAT      O40011   5.803   1.942   0.521 -0.1058  0.4328 -0.7782
 9823WAT     H140012   5.806   1.896   0.594 -0.3645  0.7249 -0.5834
 9823WAT     H240013   5.884   1.933   0.488 -0.1076 -0.0160 -0.6608
 9823WAT    EPW40014   5.816   1.934   0.527 -0.1443  0.4096 -0.7321
 9824WAT      O40015   3.375   3.903   4.906 -0.4481 -0.0537 -0.0031
 9824WAT     H140016   3.371   3.943   4.983 -1.0315 -0.7718  0.3426
 9824WAT     H240017   3.461   3.898   4.890 -0.3353  0.3917  0.4404
 9824WAT    EPW40018   3.387   3.908   4.915 -0.5176 -0.0940  0.1135
 9825WAT      O40019   2.978   3.982   6.157 -0.1267 -0.1303  0.1319
 9825WAT     H140020   3.057   3.946   6.149 -0.9712 -1.9206 -0.6124
 9825WAT     H240021   2.990   4.064   6.128  1.9137  0.3877  2.1448
 9825WAT    EPW40022   2.992   3.989   6.152  0.0500 -0.3182  0.3193
 9826WAT      O40023   1.562   0.961   0.040  0.6592  0.1723 -0.1452
 9826WAT     H140024   1.536   0.921  -0.033 -2.0672  2.5670 -0.6863
 9826WAT     H240025   1.631   1.008   0.015  1.3097 -0.9354 -0.4988
 9826WAT    EPW40026   1.568   0.962   0.026  0.3525  0.3624 -0.2774
 9827WAT      O40027   1.591   0.440   0.069 -0.1483  0.0299  0.4344
 9827WAT     H140028   1.564   0.404  -0.006  1.3104  0.1145 -0.1604
 9827WAT     H240029   1.633   0.511   0.043  3.0392 -1.4837  1.0407
 9827WAT    EPW40030   1.593   0.445   0.054  0.5380 -0.1812  0.4361
 9828WAT      O40031   5.807   0.056   6.120 -0.3015 -0.3798 -0.5373
 9828WAT     H140032   5.887   0.025   6.135 -0.7553 -1.9213 -1.1321
 9828WAT     H240033   5.764  -0.013   6.090 -1.9322  0.3764 -0.0074
 9828WAT    EPW40034   5.813   0.041   6.118 -0.6094 -0.4958 -0.5469
 9829WAT      O40035   5.471   2.650   0.031  0.4009 -0.2198  0.3965
 9829WAT     H140036   5.548   2.609   0.032 -0.8153 -2.7109  0.2528
 9829WAT     H240037   5.459   2.670  -0.053  1.0883  0.6730  0.4949
 9829WAT    EPW40038   5.480   2.647   0.019  0.3228 -0.4559  0.3898
 9830WAT      O40039   6.143   3.370   0.722 -0.3300  0.3753  0.2679
 9830WAT     H140040   6.095   3.401   0.787 -1.6112 -1.4643  0.2865
 9830WAT     H240041   6.090   3.376   0.653 -0.4198 -1.1025  0.1658
 9830WAT    EPW40042   6.128   3.375   0.721 -0.5325 -0.1147  0.2556
 9831WAT      O40043   2.735   0.543   2.099 -0.1186  0.0364 -0.6822
 9831WAT     H140044   2.675   0.566   2.159  1.3555  1.2968  0.3887
 9831WAT     H240045   2.780   0.616   2.088  1.4209 -0.9649 -1.2226
 9831WAT    EPW40046   2.733   0.557   2.107  0.3266  0.0747 -0.6038
 9832WAT      O40047   0.913   6.546   3.981  0.5083 -0.2514  0.2822
 9832WAT     H140048   0.877   6.574   4.055  0.5703  0.8186 -0.0760
 9832WAT     H240049   0.858   6.575   3.919  0.8057 -0.5549 -0.1351
 9832WAT    EPW40050   0.899   6.554   3.982  0.5614 -0.1382  0.1677
 9833WAT      O40051   6.746   0.754   5.083  0.5346  0.2565  0.1525
 9833WAT     H140052   6.662   0.763   5.063  0.7075 -0.3963 -0.9739
 9833WAT     H240053   6.746   0.733   5.168 -0.4686 -0.2834  0.0224
 9833WAT    EPW40054   6.734   0.752   5.093  0.4120  0.0803 -0.0331
 9834WAT      O40055   0.154   6.661   5.780  0.1256 -0.1957  0.1534
 9834WAT     H140056   0.164   6.592   5.727 -2.8340 -1.4139  0.9887
 9834WAT     H240057   0.169   6.729   5.727  2.2819 -1.3921 -0.9202
 9834WAT    EPW40058   0.158   6.661   5.764  0.0070 -0.5524  0.1182
 9835WAT      O40059   7.028   4.714   1.240  0.2622 -0.1529 -0.1629
 9835WAT     H140060   7.035   4.645   1.187 -1.8555 -0.4431 -0.1695
 9835WAT     H240061   6.965   4.690   1.296  1.4084  0.7340  1.5676
 9835WAT    EPW40062   7.020   4.700   1.240  0.1187 -0.0647  0.0917
 9836WAT      O40063   6.918   6.658   0.063 -0.9096 -0.2670  0.4166
 9836WAT     H140064   6.901   6.743   0.069 -0.5299 -0.1150 -0.4953
 9836WAT     H240065   6.988   6.648   0.115 -0.9495 -0.0290  0.5209
 9836WAT    EPW40066   6.926   6.669   0.072 -0.8594 -0.2094  0.2973
 9837WAT      O40067   3.746   0.116   6.918  0.1103  0.3452  0.2122
 9837WAT     H140068   3.820   0.094   6.958  0.7238  1.8412 -0.0482
 9837WAT     H240069   3.714   0.181   6.966 -0.3084  0.6474 -0.4594
 9837WAT    EPW40070   3.752   0.122   6.931  0.1390  0.6108  0.0745
 9838WAT      O40071   3.808   6.992   6.768  0.7079 -0.1755 -0.5952
 9838WAT     H140072   3.730   6.953   6.770  1.5187 -1.9161 -0.4857
 9838WAT     H240073   3.792   7.071   6.800 -0.6378 -1.2466  1.7198
 9838WAT    EPW40074   3.794   6.998   6.773  0.6289 -0.5908 -0.2370
 9839WAT      O40075   3.057   1.032   3.367  0.6734  0.5426  0.0639
 9839WAT     H140076   2.995   0.996   3.417  0.5050  1.4520  0.5404
 9839WAT     H240077   3.089   0.965   3.322 -0.0969 -0.0776  0.4159
 9839WAT    EPW40078   3.053   1.017   3.368  0.5347  0.5853  0.1863
 9840WAT      O40079   5.124   6.709   1.026  0.5892 -0.3755 -0.2069
 9840WAT     H140080   5.051   6.669   0.998  0.7637 -0.5747 -0.3772
 9840WAT     H240081   5.178   6.643   1.043  0.0887 -0.3407  1.7327
 9840WAT    EPW40082   5.121   6.693   1.024  0.5410 -0.3998  0.0545
 9841WAT      O40083   2.318   6.040   3.257 -0.1608  0.0286 -0.1513
 9841WAT     H140084   2.396   6.006   3.280 -1.1145 -1.1974  1.5013
 9841WAT     H240085   2.311   6.111   3.306  0.3601  0.7425 -1.0922
 9841WAT    EPW40086   2.329   6.045   3.268 -0.2247 -0.0470 -0.0462
 9842WAT      O40087   2.204   2.961   0.212  0.1234  0.3375 -0.2758
 9842WAT     H140088   2.263   2.975   0.275 -1.4459 -0.2625  1.3946
 9842WAT     H240089   2.192   3.041   0.179  2.0201  0.4447 -0.8568
 9842WAT    EPW40090   2.211   2.975   0.216  0.1717  0.2647 -0.1149
 9843WAT      O40091   0.593   2.362   0.621 -0.0928 -0.5968  0.3260
 9843WAT     H140092   0.581   2.322   0.545  0.5090  0.6321 -0.4649
 9843WAT     H240093   0.672   2.334   0.647 -0.3249 -1.0632  0.5253
 9843WAT    EPW40094   0.603   2.352   0.614 -0.0382 -0.4842  0.2386
 9844WAT      O40095   0.884   3.768   0.042 -0.2415  0.0127  0.3908
 9844WAT     H140096   0.963   3.759   0.007 -0.4287  0.3807 -0.1290
 9844WAT     H240097   0.897   3.826   0.106 -0.2590  0.7628 -0.2706
 9844WAT    EPW40098   0.897   3.775   0.047 -0.2718  0.1779  0.2163
 9845WAT      O40099   0.971   4.578   2.095  0.3284  0.0622  0.1164
 9845WAT     H140100   0.984   4.504   2.050  0.2953  0.7430 -1.0492
 9845WAT     H240101   0.915   4.554   2.157  2.1439 -1.4215  1.2532
 9845WAT    EPW40102   0.964   4.563   2.097  0.5917 -0.0564  0.1122
 9846WAT      O40103   3.430   6.379   1.423 -0.8781 -0.2955 -0.6703
 9846WAT     H140104   3.358   6.336   1.447 -1.2319 -0.3584 -1.7730
 9846WAT     H240105   3.494   6.321   1.436 -1.3095 -1.0702 -1.8102
 9846WAT    EPW40106   3.429   6.364   1.429 -0.9941 -0.4192 -1.0015
 9847WAT      O40107   1.372   0.420   6.205 -0.2409 -0.2859 -0.1597
 9847WAT     H140108   1.389   0.446   6.286  1.5432  0.6762 -0.7778
 9847WAT     H240109   1.429   0.356   6.191 -1.5070 -1.4580 -0.2141
 9847WAT    EPW40110   1.383   0.415   6.215 -0.1644 -0.3169 -0.2591
 9848WAT      O40111   0.375   1.976   1.024  0.3426  0.4961 -0.8424
 9848WAT     H140112   0.341   1.982   0.943 -2.2082  0.7953  0.1620
 9848WAT     H240113   0.443   2.031   1.021 -0.8226  1.9742 -2.2730
 9848WAT    EPW40114   0.380   1.985   1.011 -0.2063  0.7587 -0.9053
 9849WAT      O40115   4.507   2.055   5.763 -0.5183 -0.0360 -0.2107
 9849WAT     H140116   4.521   2.131   5.722  2.4563 -0.2768  0.1038
 9849WAT     H240117   4.560   2.059   5.833 -3.4596 -0.7237  2.2529
 9849WAT    EPW40118   4.517   2.066   5.767 -0.5134 -0.1732  0.1997
 9850WAT      O40119   3.003   2.434   0.611  0.4437  0.2290 -0.2218
 9850WAT     H140120   3.005   2.431   0.698  0.1229 -1.4275 -0.2442
 9850WAT     H240121   3.062   2.496   0.592  0.9992  0.1648  1.1421
 9850WAT    EPW40122   3.012   2.443   0.621  0.4784 -0.0252 -0.0236
 9851WAT      O40123   7.213   1.539   0.763  0.0033  0.7470 -0.1723
 9851WAT     H140124   7.222   1.533   0.850 -0.1971 -0.8245 -0.2263
 9851WAT     H240125   7.284   1.583   0.738  1.3063 -0.8001  0.5864
 9851WAT    EPW40126   7.225   1.545   0.772  0.1662  0.2864 -0.0682
 9852WAT      O40127   5.147   5.913   0.174 -0.1754 -0.4415 -0.0291
 9852WAT     H140128   5.143   5.927   0.087 -0.7770 -1.6407 -0.2127
 9852WAT     H240129   5.233   5.904   0.189 -0.0615 -0.2040 -0.4937
 9852WAT    EPW40130   5.159   5.914   0.163 -0.2475 -0.5835 -0.1248
 9853WAT      O40131   3.826   6.206   5.516  0.2032  0.2222 -0.3610
 9853WAT     H140132   3.790   6.142   5.469  1.7138 -2.3077  1.6740
 9853WAT     H240133   3.870   6.253   5.457 -1.2762 -0.3152 -1.9765
 9853WAT    EPW40134   3.827   6.204   5.500  0.2078 -0.2309 -0.2990
 9854WAT      O40135   3.504   0.357   3.735 -0.3089 -0.0415  0.0722
 9854WAT     H140136   3.581   0.398   3.733  0.3608 -1.2600 -0.3333
 9854WAT     H240137   3.482   0.351   3.651 -0.0561 -1.0892  0.0682
 9854WAT    EPW40138   3.512   0.362   3.722 -0.1726 -0.3763  0.0117
 9855WAT      O40139   3.695   6.056   0.181 -0.7393 -0.0504 -0.1721
 9855WAT     H140140   3.683   6.043   0.095 -0.8716 -1.0073 -0.0126
 9855WAT     H240141   3.664   5.983   0.218  1.5022 -0.7242  0.5469
 9855WAT    EPW40142   3.688   6.043   0.174 -0.4277 -0.2913 -0.0423
 9856WAT      O40143   0.629   5.427   4.161  0.4514 -0.3869  0.2176
 9856WAT     H140144   0.713   5.437   4.142  0.0663  0.3404 -1.2482
 9856WAT     H240145   0.628   5.426   4.249  1.7845  1.4452  0.3222
 9856WAT    EPW40146   0.641   5.428   4.172  0.5915 -0.0088  0.0165
 9857WAT      O40147   6.459   6.180   7.052  0.0639 -0.3755 -0.1696
 9857WAT     H140148   6.435   6.167   7.135 -1.0018  1.1503 -0.1977
 9857WAT     H240149   6.535   6.223   7.058 -1.0557  1.6681  0.1072
 9857WAT    EPW40150   6.467   6.185   7.065 -0.2589  0.1518 -0.1328
 9858WAT      O40151   1.750   5.552   2.712 -0.0631  0.2310 -0.4672
 9858WAT     H140152   1.712   5.543   2.791  0.8181  0.6745  0.0207
 9858WAT     H240153   1.710   5.492   2.663 -0.3744 -0.3024  0.4206
 9858WAT    EPW40154   1.739   5.541   2.717  0.0211  0.2177 -0.2640
 9859WAT      O40155   4.935   0.942   2.036 -0.0706  0.0885  0.6029
 9859WAT     H140156   4.890   0.875   2.003 -0.6044  0.0746  1.3428
 9859WAT     H240157   5.015   0.932   2.002 -0.5828  0.0380 -0.6126
 9859WAT    EPW40158   4.940   0.931   2.026 -0.2251  0.0790  0.5326
 9860WAT      O40159   2.793   4.373   2.673  0.6262 -0.3584  0.3454
 9860WAT     H140160   2.844   4.343   2.609  0.9681 -0.7687  0.8059
 9860WAT     H240161   2.766   4.301   2.714 -0.4815 -0.1633  0.0024
 9860WAT    EPW40162   2.797   4.358   2.669  0.5131 -0.3902  0.3628
 9861WAT      O40163   0.612   4.423   5.131  0.3631  0.0759 -0.3611
 9861WAT     H140164   0.680   4.379   5.164  0.1018  1.5301  2.4296
 9861WAT     H240165   0.648   4.497   5.103  0.3455 -0.5322 -2.1012
 9861WAT    EPW40166   0.628   4.427   5.132  0.3219  0.2009 -0.2059
 9862WAT      O40167   0.963   6.838   2.088 -0.2699  0.6224  0.4177
 9862WAT     H140168   0.917   6.831   2.162 -1.9654  3.3705 -0.2545
 9862WAT     H240169   0.905   6.816   2.026  1.2678 -2.1728 -0.2075
 9862WAT    EPW40170   0.948   6.833   2.090 -0.2932  0.6154  0.2261
 9863WAT      O40171   3.548   0.251   2.676 -0.4946  0.4927  0.6428
 9863WAT     H140172   3.536   0.186   2.733  0.7926 -0.2281  0.1330
 9863WAT     H240173   3.524   0.322   2.721  1.6571  0.1176  2.6003
 9863WAT    EPW40174   3.542   0.252   2.691  0.0134  0.3308  0.8567
 9864WAT      O40175   7.240   0.176   0.631  0.1806  0.2731 -0.3998
 9864WAT     H140176   7.307   0.231   0.632 -0.6257  1.3045  0.4766
 9864WAT     H240177   7.218   0.171   0.547  1.2591  0.0211 -0.6746
 9864WAT    EPW40178   7.246   0.183   0.619  0.2208  0.3883 -0.3109
 9865WAT      O40179   0.262   5.734   3.247 -0.1323 -0.4585  0.5159
 9865WAT     H140180   0.203   5.691   3.198 -0.6564  0.0539  0.6907
 9865WAT     H240181   0.255   5.695   3.325 -2.2071  1.3135  1.3302
 9865WAT    EPW40182   0.252   5.722   3.251 -0.5162 -0.1211  0.6620
 9866WAT      O40183   7.167   3.810   2.335  0.6197  0.1642  0.1193
 9866WAT     H140184   7.124   3.735   2.318  0.2404  0.5129 -0.5044
 9866WAT     H240185   7.236   3.805   2.283  0.8368  0.0422  0.4176
 9866WAT    EPW40186   7.171   3.798   2.325  0.5957  0.1977  0.0713
 9867WAT      O40187   0.433   6.949   3.871  0.1558 -0.6787 -0.5838
 9867WAT     H140188   0.389   6.889   3.916  2.5453 -1.9710  0.1960
 9867WAT     H240189   0.478   6.902   3.813 -0.3196  0.6887 -2.1562
 9867WAT    EPW40190   0.433   6.933   3.869  0.4386 -0.6676 -0.7009
 9868WAT      O40191   6.800   5.431   7.346 -0.1302  0.0230  0.0929
 9868WAT     H140192   6.779   5.346   7.344  0.5470 -0.1778  0.7216
 9868WAT     H240193   6.837   5.440   7.425 -0.3566  0.9425  0.0969
 9868WAT    EPW40194   6.803   5.420   7.358 -0.0636  0.1292  0.1864
 9869WAT      O40195   1.172   2.708   3.836  0.6405 -0.4415  0.3792
 9869WAT     H140196   1.174   2.793   3.858  2.3589 -0.5258  0.7291
 9869WAT     H240197   1.256   2.688   3.826  0.1894 -1.6826 -1.4607
 9869WAT    EPW40198   1.185   2.718   3.838  0.8277 -0.6373  0.1591
 9870WAT      O40199   1.526   6.036   4.745 -0.1858 -0.1277  0.2656
 9870WAT     H140200   1.498   5.954   4.734 -0.2874 -0.1878  0.9130
 9870WAT     H240201   1.456   6.078   4.776  0.0967 -0.0019  0.7599
 9870WAT    EPW40202   1.512   6.030   4.748 -0.1591 -0.1180  0.4342
 9871WAT      O40203   3.670   1.550   3.558 -0.1923  0.2347 -0.6298
 9871WAT     H140204   3.753   1.531   3.577 -1.0086 -1.9625  1.2597
 9871WAT     H240205   3.653   1.621   3.606 -0.4200 -1.6195  2.3047
 9871WAT    EPW40206   3.680   1.558   3.568 -0.3465 -0.3638  0.0828
 9872WAT      O40207   2.452   6.307   5.151  0.2691  0.3114 -0.2191
 9872WAT     H140208   2.418   6.358   5.213  0.6197 -0.5347  0.6945
 9872WAT     H240209   2.423   6.227   5.171 -0.0204  0.0900 -1.4436
 9872WAT    EPW40210   2.443   6.302   5.163  0.2782  0.1537 -0.2650
 9873WAT      O40211   3.573   3.024   5.495 -0.1336 -0.6481  0.1851
 9873WAT     H140212   3.490   3.027   5.524 -0.0298  0.1851  0.4122
 9873WAT     H240213   3.580   3.095   5.446  0.5952 -0.4483  0.5741
 9873WAT    EPW40214   3.562   3.035   5.492 -0.0106 -0.4955  0.2761
 9874WAT      O40215   4.588   6.991   5.592  0.1559 -0.5233 -0.7533
 9874WAT     H140216   4.632   6.965   5.521 -0.2532 -1.9917 -0.4880
 9874WAT     H240217   4.525   7.042   5.558  1.4116  0.8069 -1.2112
 9874WAT    EPW40218   4.586   6.995   5.576  0.2810 -0.5437 -0.7818
 9875WAT      O40219   1.031   5.558   0.011 -0.3898  0.1077 -0.3083
 9875WAT     H140220   1.041   5.482   0.052  0.2027 -0.7177 -1.8792
 9875WAT     H240221   0.962   5.544  -0.041 -1.5770  1.3631  0.8320
 9875WAT    EPW40222   1.022   5.545   0.009 -0.4777  0.1712 -0.3719
 9876WAT      O40223   6.420   2.889   4.388  0.5412 -0.0078  0.5160
 9876WAT     H140224   6.481   2.872   4.448 -1.7947  1.2498  3.4976
 9876WAT     H240225   6.420   2.976   4.382  0.0557 -0.0720 -0.6170
 9876WAT    EPW40226   6.429   2.899   4.396  0.1244  0.1685  0.7891
 9877WAT      O40227   0.992   4.466   4.634 -0.5450 -0.5168 -0.1806
 9877WAT     H140228   1.032   4.450   4.710 -0.5078 -0.8208 -0.2643
 9877WAT     H240229   0.976   4.387   4.602 -2.1777 -0.4653  0.3646
 9877WAT    EPW40230   0.995   4.452   4.641 -0.7807 -0.5541 -0.1124
 9878WAT      O40231   6.464   4.277   1.684  0.1248 -0.0282  0.4828
 9878WAT     H140232   6.398   4.335   1.681  0.3373  0.1935  0.0773
 9878WAT     H240233   6.504   4.296   1.759 -0.4658 -0.3788  0.8987
 9878WAT    EPW40234   6.460   4.288   1.695  0.0690 -0.0472  0.4843
 9879WAT      O40235   6.099   3.046   0.557  0.6356 -0.2927 -0.3665
 9879WAT     H140236   6.087   2.965   0.586  0.3993  0.3621  1.4550
 9879WAT     H240237   6.033   3.057   0.500  0.3056 -1.1469 -0.1658
 9879WAT    EPW40238   6.087   3.036   0.553  0.5519 -0.3222 -0.0678
 9880WAT      O40239   2.289   2.535   4.923  0.6042  0.2787 -0.1145
 9880WAT     H140240   2.261   2.499   4.849 -0.2390  0.7576 -0.0384
 9880WAT     H240241   2.258   2.481   4.984  1.9816 -0.5695 -0.1168
 9880WAT    EPW40242   2.280   2.522   4.921  0.6831  0.2241 -0.1036
 9881WAT      O40243   2.245   4.476   5.946  0.0074 -0.0997  0.0755
 9881WAT     H140244   2.229   4.525   6.016  1.4618  1.4258 -0.5949
 9881WAT     H240245   2.176   4.492   5.894 -1.5493 -1.9399  1.4107
 9881WAT    EPW40246   2.232   4.486   5.949 -0.0077 -0.1462  0.1737
 9882WAT      O40247   5.708   0.685   1.239  0.0332  0.6686  0.1929
 9882WAT     H140248   5.740   0.738   1.178 -0.8648  1.3316  0.2841
 9882WAT     H240249   5.709   0.607   1.200 -2.0563  1.3205 -1.3257
 9882WAT    EPW40250   5.713   0.681   1.224 -0.4081  0.8628 -0.0180
 9883WAT      O40251   6.303   4.928   1.196 -0.1459 -0.4772 -0.0189
 9883WAT     H140252   6.371   4.929   1.251 -0.0530 -0.4297 -0.1346
 9883WAT     H240253   6.292   5.012   1.175 -0.5930 -0.4217  0.4331
 9883WAT    EPW40254   6.312   4.940   1.201 -0.1982 -0.4620  0.0308
 9884WAT      O40255   0.911   4.731   4.705  0.1126  0.2949  0.0957
 9884WAT     H140256   0.918   4.650   4.673 -1.0331  0.1000  0.2972
 9884WAT     H240257   0.828   4.752   4.691  0.1602  1.0840  0.8781
 9884WAT    EPW40258   0.900   4.722   4.699 -0.0496  0.3827  0.2411
 9885WAT      O40259   4.507   4.318   3.324  0.6179 -0.1160  0.1854
 9885WAT     H140260   4.575   4.316   3.271  1.3320  0.5587  1.0390
 9885WAT     H240261   4.539   4.291   3.401 -0.1797 -0.2413  0.4916
 9885WAT    EPW40262   4.522   4.314   3.328  0.6056 -0.0348  0.3567
 9886WAT      O40263   0.246   6.633   6.804 -0.1426 -0.2114  0.3399
 9886WAT     H140264   0.314   6.600   6.849 -0.0985  0.8081  1.0576
 9886WAT     H240265   0.274   6.711   6.779  0.6918 -1.5549 -3.5349
 9886WAT    EPW40266   0.260   6.639   6.807 -0.0128 -0.2593 -0.1264
 9887WAT      O40267   2.205   1.404   3.406  0.1561  0.4041 -0.9437
 9887WAT     H140268   2.211   1.453   3.477  0.6074 -0.5134 -0.3305
 9887WAT     H240269   2.279   1.421   3.362  0.7881 -0.4430 -0.2436
 9887WAT    EPW40270   2.217   1.414   3.410  0.3162  0.1435 -0.7497
 9888WAT      O40271   0.016   6.449   1.739  0.5790  0.2244  0.0725
 9888WAT     H140272   0.008   6.531   1.709 -1.8626 -0.1663 -0.5594
 9888WAT     H240273  -0.064   6.430   1.767  1.1535 -1.8955  0.4126
 9888WAT    EPW40274   0.003   6.458   1.739  0.3032 -0.1464  0.0294
 9889WAT      O40275   2.612   5.562   0.387  0.0536 -0.4549  0.0814
 9889WAT     H140276   2.650   5.576   0.310 -0.4666 -0.8772 -0.2567
 9889WAT     H240277   2.534   5.601   0.379 -0.0211 -0.5419  0.3798
 9889WAT    EPW40278   2.606   5.570   0.375 -0.0343 -0.5301  0.0756
 9890WAT      O40279   6.279   5.330   5.132 -0.3028 -0.2649 -0.8712
 9890WAT     H140280   6.363   5.315   5.117 -0.4562 -0.9475 -1.0663
 9890WAT     H240281   6.245   5.344   5.053 -0.3699  0.0437 -0.7905
 9890WAT    EPW40282   6.287   5.330   5.118 -0.3354 -0.3201 -0.8881
 9891WAT      O40283   5.363   5.621   5.052  0.0863 -0.2305 -0.6524
 9891WAT     H140284   5.305   5.626   5.117 -0.3367  0.7800 -1.0950
 9891WAT     H240285   5.338   5.550   5.008  0.0936 -0.6562  0.0191
 9891WAT    EPW40286   5.351   5.611   5.055  0.0249 -0.1441 -0.6186
 9892WAT      O40287   2.357   2.944   2.427 -0.6547  0.4142 -0.1223
 9892WAT     H140288   2.434   2.914   2.398 -0.7893  0.1462 -0.2080
 9892WAT     H240289   2.299   2.909   2.372 -0.9004  0.0508  0.3607
 9892WAT    EPW40290   2.360   2.934   2.415 -0.7109  0.3209 -0.0636
 9893WAT      O40291   3.196   4.290   1.911  0.1411  0.7496  0.0665
 9893WAT     H140292   3.207   4.352   1.972 -1.0600  0.3902  0.6860
 9893WAT     H240293   3.191   4.217   1.958  1.9092  0.1148 -0.6881
 9893WAT    EPW40294   3.197   4.289   1.927  0.2248  0.6027  0.0466
 9894WAT      O40295   5.691   1.665   6.202  0.1111  0.5099 -0.0699
 9894WAT     H140296   5.726   1.666   6.122  1.2793 -0.1721  0.4179
 9894WAT     H240297   5.760   1.670   6.255 -0.1243 -3.9300  1.0364
 9894WAT    EPW40298   5.706   1.666   6.198  0.2489 -0.2467  0.1656
 9895WAT      O40299   3.686   4.469   1.981 -0.4155  0.0660  0.0891
 9895WAT     H140300   3.663   4.388   1.959 -0.5666  0.7737 -2.6693
 9895WAT     H240301   3.610   4.513   1.984 -0.1482  0.6715 -1.2092
 9895WAT    EPW40302   3.672   4.464   1.978 -0.3984  0.2600 -0.5102
 9896WAT      O40303   5.912   0.701   6.264  0.5427  0.0552  0.3669
 9896WAT     H140304   5.845   0.647   6.256 -1.4377  1.9928  2.5254
 9896WAT     H240305   5.970   0.655   6.311 -0.1262 -0.9432  0.2423
 9896WAT    EPW40306   5.911   0.686   6.270  0.1513  0.1939  0.6674
 9897WAT      O40307   5.280   1.366   0.833 -0.2748 -0.7563 -0.3381
 9897WAT     H140308   5.254   1.308   0.893 -0.8048 -1.3566 -1.1271
 9897WAT     H240309   5.261   1.443   0.870 -2.6053 -1.1311 -0.5708
 9897WAT    EPW40310   5.273   1.369   0.847 -0.6973 -0.9004 -0.4890
 9898WAT      O40311   2.015   5.357   1.899  0.4186 -0.0972  0.2636
 9898WAT     H140312   1.949   5.394   1.856  0.3764 -1.3115 -0.7742
 9898WAT     H240313   2.085   5.382   1.854  0.4756 -0.5033  0.1264
 9898WAT    EPW40314   2.016   5.366   1.886  0.4208 -0.3366  0.0900
 9899WAT      O40315   1.977   0.049   7.057  0.1027  0.0877  0.2751
 9899WAT     H140316   2.010  -0.002   7.120  1.1276  0.8088  0.3487
 9899WAT     H240317   1.912   0.091   7.096  0.3673  0.1107  0.6992
 9899WAT    EPW40318   1.973   0.047   7.072  0.2932  0.1976  0.3486
 9900WAT      O40319   3.522   7.091   0.933 -0.1157  0.0669  0.3317
 9900WAT     H140320   3.497   7.080   0.850 -2.1711 -0.5658  0.9666
 9900WAT     H240321   3.556   7.171   0.934 -2.2802  1.0756 -0.6828
 9900WAT    EPW40322   3.523   7.101   0.921 -0.7391  0.1225  0.2756
 9901WAT      O40323   4.371   1.771   5.383  0.0193  0.0023 -0.2218
 9901WAT     H140324   4.436   1.775   5.441  0.4670  1.6834 -0.8110
 9901WAT     H240325   4.407   1.798   5.308 -0.9397 -0.6643 -0.9571
 9901WAT    EPW40326   4.386   1.775   5.381 -0.0562  0.1522 -0.4174
 9902WAT      O40327   0.137   3.184   2.773  0.3041 -0.3320  0.1329
 9902WAT     H140328   0.146   3.239   2.840 -1.0205  1.0429 -0.7650
 9902WAT     H240329   0.198   3.211   2.716 -1.6669  1.6377 -1.1768
 9902WAT    EPW40330   0.148   3.196   2.774 -0.1827  0.1621 -0.1932
 9903WAT      O40331   5.929   7.084   0.947  0.1371 -0.3169  0.0464
 9903WAT     H140332   5.937   7.003   0.976 -0.8078 -0.2972  0.4214
 9903WAT     H240333   5.957   7.080   0.865  0.7437 -0.8648  0.2756
 9903WAT    EPW40334   5.934   7.072   0.939  0.0871 -0.3949  0.1357
 9904WAT      O40335   2.011   6.056   4.969  0.2201 -0.1932 -0.5745
 9904WAT     H140336   1.951   6.051   4.905 -1.6431  0.1992  1.0448
 9904WAT     H240337   2.003   6.138   4.998 -0.4216 -0.9308  1.4581
 9904WAT    EPW40338   2.001   6.067   4.963 -0.1500 -0.2442 -0.0350
 9905WAT      O40339   1.081   5.739   0.728  0.7333  0.0461  0.4078
 9905WAT     H140340   1.020   5.765   0.784  1.1780 -0.1491  0.9908
 9905WAT     H240341   1.155   5.750   0.771  1.0661 -0.3251 -0.0554
 9905WAT    EPW40342   1.083   5.744   0.742  0.8481 -0.0376  0.4255
 9906WAT      O40343   6.748   1.433   6.040 -0.1612 -0.0106  0.4603
 9906WAT     H140344   6.735   1.511   6.003  2.0260  0.2406  0.0834
 9906WAT     H240345   6.816   1.446   6.092  1.0392 -1.9099 -0.5199
 9906WAT    EPW40346   6.756   1.447   6.042  0.3392 -0.2541  0.2598
 9907WAT      O40347   5.168   1.290   1.329 -0.5095 -0.0305  0.5443
 9907WAT     H140348   5.114   1.222   1.337 -0.9784  0.2642 -0.0840
 9907WAT     H240349   5.116   1.359   1.339  0.2594  0.2816  3.2838
 9907WAT    EPW40350   5.153   1.290   1.332 -0.4652  0.0591  0.8562
 9908WAT      O40351   0.323   4.699   5.425 -0.4307 -0.2625 -0.0302
 9908WAT     H140352   0.334   4.633   5.368  0.4045  0.6958 -1.0091
 9908WAT     H240353   0.401   4.706   5.462 -0.8919 -0.6901  1.0809
 9908WAT    EPW40354   0.336   4.690   5.422 -0.3755 -0.1841 -0.0107
 9909WAT      O40355   3.195   2.053   1.173 -0.1711 -0.0413  0.6096
 9909WAT     H140356   3.272   2.050   1.213 -0.7097 -0.5711  1.6500
 9909WAT     H240357   3.138   2.058   1.239 -1.0357  0.1610 -0.1359
 9909WAT    EPW40358   3.198   2.053   1.188 -0.3784 -0.0896  0.6532
 9910WAT      O40359   1.680   6.378   2.992  0.5022 -0.0582 -0.0335
 9910WAT     H140360   1.755   6.410   3.024  0.3437 -0.6945  1.0210
 9910WAT     H240361   1.677   6.297   3.024  0.3365 -0.7709 -1.7283
 9910WAT    EPW40362   1.691   6.371   3.001  0.4543 -0.2575 -0.1281
 9911WAT      O40363   1.959   3.438   6.146  0.2643 -0.4389 -0.2186
 9911WAT     H140364   2.032   3.462   6.104  0.5582  1.2575  1.1338
 9911WAT     H240365   1.988   3.405   6.221 -0.3180 -1.1266 -0.2885
 9911WAT    EPW40366   1.974   3.437   6.151  0.2217 -0.2899 -0.0291
 9912WAT      O40367   6.435   2.434   2.489 -0.2159 -0.1327  0.4807
 9912WAT     H140368   6.407   2.375   2.547  0.1083 -0.1198  0.6525
 9912WAT     H240369   6.510   2.462   2.523 -0.2497  0.2075  0.2803
 9912WAT    EPW40370   6.442   2.430   2.503 -0.1730 -0.0806  0.4765
 9913WAT      O40371   4.117   0.143   5.738 -0.1420  0.1552 -0.0206
 9913WAT     H140372   4.087   0.205   5.683 -0.1128  0.1759 -0.0131
 9913WAT     H240373   4.081   0.165   5.814 -0.9117 -0.3877 -0.2165
 9913WAT    EPW40374   4.107   0.155   5.741 -0.2514  0.0781 -0.0484
 9914WAT      O40375   2.899   5.907   3.945 -0.0940 -0.4995  0.1111
 9914WAT     H140376   2.938   5.884   3.870  0.9118 -0.9210  0.7468
 9914WAT     H240377   2.854   5.835   3.967  1.1825 -1.0793  0.9011
 9914WAT    EPW40378   2.898   5.893   3.937  0.2431 -0.6474  0.3217
 9915WAT      O40379   1.489   3.934   1.449  0.4832  0.1968  0.0679
 9915WAT     H140380   1.518   3.932   1.531 -0.7364  1.4812  0.5490
 9915WAT     H240381   1.545   3.988   1.409 -0.3367  1.4947  0.6421
 9915WAT    EPW40382   1.502   3.942   1.455  0.1819  0.5783  0.2238
 9916WAT      O40383   6.485   4.918   0.861 -0.5657  0.0492 -0.4077
 9916WAT     H140384   6.569   4.939   0.855 -0.5013  0.2801  1.0995
 9916WAT     H240385   6.444   4.990   0.835 -0.3069  1.2752  2.2775
 9916WAT    EPW40386   6.491   4.931   0.856 -0.5179  0.2644  0.2116
 9917WAT      O40387   5.072   6.959   5.061 -0.7271 -0.0340  0.2595
 9917WAT     H140388   5.110   6.996   4.992  0.8726  0.5653  1.3956
 9917WAT     H240389   5.080   6.874   5.046  0.4493  0.0840  0.0963
 9917WAT    EPW40390   5.079   6.952   5.049 -0.3170  0.0720  0.4032
 9918WAT      O40391   5.882   2.300   4.371  0.0706  0.4588  0.0904
 9918WAT     H140392   5.959   2.302   4.330  0.3103  0.6514  0.5422
 9918WAT     H240393   5.893   2.357   4.437 -0.0293 -0.4484  0.9132
 9918WAT    EPW40394   5.895   2.309   4.375  0.0912  0.3532  0.2787
 9919WAT      O40395   4.814   0.695   5.109 -0.2082  0.2678  0.5409
 9919WAT     H140396   4.739   0.699   5.066 -0.3834  0.8319  0.8893
 9919WAT     H240397   4.857   0.630   5.070  0.2992  1.7305 -1.5026
 9919WAT    EPW40398   4.809   0.686   5.097 -0.1591  0.5672  0.2905
 9920WAT      O40399   1.011   1.556   4.546 -0.3212  0.1751  0.1477
 9920WAT     H140400   1.005   1.561   4.459 -0.8892  1.3113  0.2379
 9920WAT     H240401   1.097   1.554   4.560 -0.1636  1.5636 -0.3926
 9920WAT    EPW40402   1.022   1.557   4.535 -0.3818  0.5481  0.0812
 9921WAT      O40403   7.140   3.146   4.402 -0.5133  0.2643  0.1194
 9921WAT     H140404   7.112   3.071   4.366 -1.3474  1.2493 -1.4119
 9921WAT     H240405   7.067   3.193   4.408  0.0448  1.0520  0.8416
 9921WAT    EPW40406   7.125   3.142   4.398 -0.5541  0.5262 -0.0001
 9922WAT      O40407   0.234   1.977   7.136 -0.1499  0.2122 -0.0172
 9922WAT     H140408   0.192   1.912   7.095 -0.9827  0.5038  0.3502
 9922WAT     H240409   0.203   2.049   7.098  1.0094  0.3898 -0.6408
 9922WAT    EPW40410   0.223   1.978   7.125 -0.1017  0.2815 -0.0551
 9923WAT      O40411   4.777   3.426   3.101  0.3440  0.8728 -0.4769
 9923WAT     H140412   4.704   3.454   3.062 -0.9197 -1.6735 -0.1613
 9923WAT     H240413   4.818   3.380   3.039  1.4473  1.8109 -0.4856
 9923WAT    EPW40414   4.772   3.423   3.086  0.3203  0.6352 -0.4315
 9924WAT      O40415   5.235   1.940   7.279  0.4297  0.2455 -0.1122
 9924WAT     H140416   5.285   1.869   7.266 -0.6526 -0.8240  1.3018
 9924WAT     H240417   5.177   1.935   7.214  2.2227  1.6690 -1.9613
 9924WAT    EPW40418   5.234   1.929   7.267  0.5347  0.2978 -0.1765
 9925WAT      O40419   1.796   2.543   2.801  0.1664 -0.2571  0.5461
 9925WAT     H140420   1.726   2.495   2.825 -0.9580  1.7979  1.6398
 9925WAT     H240421   1.760   2.614   2.767  1.7997 -0.2904 -1.3523
 9925WAT    EPW40422   1.780   2.546   2.800  0.2416  0.0416  0.4272
 9926WAT      O40423   1.249   2.036   3.683 -0.3192  0.0082 -0.5303
 9926WAT     H140424   1.234   2.090   3.615 -0.9040  1.9225  1.0193
 9926WAT     H240425   1.241   1.957   3.648 -1.7678  0.9100 -2.4632
 9926WAT    EPW40426   1.246   2.033   3.668 -0.6196  0.4242 -0.5869
 9927WAT      O40427   1.405   2.405   7.174  0.1731 -0.0005  0.5305
 9927WAT     H140428   1.471   2.349   7.179  0.5938  0.3917 -0.4184
 9927WAT     H240429   1.346   2.363   7.126  0.3748  0.2502  0.0558
 9927WAT    EPW40430   1.406   2.391   7.168  0.2650  0.0945  0.3202
 9928WAT      O40431   3.909   2.788   3.660 -0.3235  0.3225 -0.2097
 9928WAT     H140432   3.936   2.856   3.709  2.1203 -1.1671  0.7076
 9928WAT     H240433   3.951   2.799   3.585  0.0072 -0.0887 -0.0909
 9928WAT    EPW40434   3.919   2.800   3.656  0.0863  0.0417 -0.0567
 9929WAT      O40435   0.111   0.248   3.951 -0.4513  0.3810 -0.5752
 9929WAT     H140436   0.072   0.175   3.976 -1.3007  0.6008 -1.2283
 9929WAT     H240437   0.047   0.295   3.915  0.3565  0.8182 -1.5132
 9929WAT    EPW40438   0.096   0.244   3.949 -0.4574  0.4781 -0.8102
 9930WAT      O40439   4.566   5.658   5.475  0.8660  0.0474  0.1203
 9930WAT     H140440   4.591   5.614   5.546  0.0054 -1.0523 -0.2202
 9930WAT     H240441   4.600   5.612   5.410 -0.3477 -0.3648 -0.2570
 9930WAT    EPW40442   4.575   5.645   5.476  0.5596 -0.1759  0.0143
 9931WAT      O40443   3.143   3.613   4.301 -0.1123 -0.0958  0.4024
 9931WAT     H140444   3.152   3.666   4.370 -1.1463 -0.5847  0.9508
 9931WAT     H240445   3.206   3.638   4.247  1.5278 -0.4709  2.0319
 9931WAT    EPW40446   3.153   3.624   4.303 -0.0227 -0.2234  0.7241
 9932WAT      O40447   5.403   0.146   6.527  0.5979  0.0700  0.0213
 9932WAT     H140448   5.401   0.115   6.608 -2.9336 -1.1321 -0.3630
 9932WAT     H240449   5.481   0.119   6.497  1.3302 -0.8006  2.5026
 9932WAT    EPW40450   5.415   0.137   6.534  0.1844 -0.2362  0.3311
 9933WAT      O40451   4.712   0.658   1.639 -0.0539 -0.4736 -0.1735
 9933WAT     H140452   4.702   0.572   1.632  1.6741 -0.7447  0.3842
 9933WAT     H240453   4.741   0.682   1.560  1.1276 -0.6839  0.1799
 9933WAT    EPW40454   4.714   0.649   1.626  0.3759 -0.5447 -0.0389
 9934WAT      O40455   1.325   5.917   6.576 -0.3057 -0.5515  0.3011
 9934WAT     H140456   1.330   5.978   6.638 -1.2846  1.0739 -1.1243
 9934WAT     H240457   1.290   5.849   6.617 -0.9456  0.4711  1.5338
 9934WAT    EPW40458   1.321   5.916   6.591 -0.5448 -0.1604  0.2726
 9935WAT      O40459   1.591   0.266   2.548  0.0719 -0.0800  0.7891
 9935WAT     H140460   1.659   0.285   2.496  0.5725 -1.7922  0.7623
 9935WAT     H240461   1.537   0.223   2.495  1.1757 -3.0647  1.8775
 9935WAT    EPW40462   1.593   0.262   2.532  0.3089 -0.7739  0.9459
 9936WAT      O40463   6.952   4.248   0.511  0.5400  0.0289  0.7360
 9936WAT     H140464   6.976   4.215   0.433  1.6999 -1.9740  1.8611
 9936WAT     H240465   6.867   4.265   0.501  0.8621  0.8157 -1.2594
 9936WAT    EPW40466   6.943   4.246   0.498  0.7589 -0.1507  0.6075
 9937WAT      O40467   1.970   5.208   1.347  0.4138  0.3110 -0.1187
 9937WAT     H140468   2.015   5.261   1.399  0.4864  0.4484 -0.3177
 9937WAT     H240469   1.988   5.129   1.378  1.3559  0.3126 -0.6112
 9937WAT    EPW40470   1.979   5.204   1.359  0.5637  0.3316 -0.2208
 9938WAT      O40471   4.120   1.811   4.615  0.3453  0.0993 -0.5798
 9938WAT     H140472   4.087   1.892   4.620 -1.6194 -0.6123 -1.2918
 9938WAT     H240473   4.179   1.816   4.551 -0.0924  0.8553 -0.9307
 9938WAT    EPW40474   4.124   1.824   4.607 -0.0096  0.1059 -0.7368
 9939WAT      O40475   0.558   2.125   4.836 -0.2924 -0.3536 -0.0415
 9939WAT     H140476   0.641   2.110   4.813 -0.3286 -0.5709 -0.0310
 9939WAT     H240477   0.521   2.155   4.763  0.0414  0.7244  0.2064
 9939WAT    EPW40478   0.565   2.127   4.822 -0.2484 -0.2264 -0.0033
 9940WAT      O40479   2.014   5.522   0.458  0.3820  0.4301  0.2350
 9940WAT     H140480   2.048   5.577   0.517 -0.2474  0.8837  0.1918
 9940WAT     H240481   2.042   5.444   0.484  0.7136  0.7000  0.7122
 9940WAT    EPW40482   2.023   5.519   0.470  0.3380  0.5370  0.2991
 9941WAT      O40483   0.779   2.664   2.421  0.2924 -0.7789  0.1034
 9941WAT     H140484   0.789   2.652   2.507  2.6443  0.2237  0.0475
 9941WAT     H240485   0.733   2.738   2.415  1.7430  0.1915  0.5538
 9941WAT    EPW40486   0.774   2.673   2.433  0.8541 -0.4875  0.1617
 9942WAT      O40487   5.623   0.927   1.991  0.3329 -0.4003 -0.2094
 9942WAT     H140488   5.696   0.929   2.038 -0.2552  1.4902  0.7139
 9942WAT     H240489   5.643   0.973   1.919  0.1046 -0.0129 -0.0269
 9942WAT    EPW40490   5.637   0.934   1.987  0.2123 -0.0638 -0.0460
 9943WAT      O40491   0.744   0.117   2.227 -0.1633 -0.3747  0.1029
 9943WAT     H140492   0.706   0.175   2.279 -0.6787  0.0948 -0.7666
 9943WAT     H240493   0.828   0.121   2.250 -0.3909 -0.2648  0.9586
 9943WAT    EPW40494   0.751   0.126   2.238 -0.2731 -0.2891  0.1008
 9944WAT      O40495   1.046   6.149   3.751  0.3097 -0.0875 -0.4652
 9944WAT     H140496   1.049   6.222   3.703  0.1617 -0.3272 -0.8449
 9944WAT     H240497   1.010   6.175   3.826 -0.7996  0.0093 -1.0139
 9944WAT    EPW40498   1.041   6.164   3.755  0.1240 -0.1086 -0.6023
 9945WAT      O40499   0.450   4.077   1.802 -0.3203 -0.4836 -0.0437
 9945WAT     H140500   0.513   4.016   1.795 -1.5157 -1.6333 -1.3239
 9945WAT     H240501   0.465   4.131   1.735  0.4454  0.4076  0.8089
 9945WAT    EPW40502   0.462   4.076   1.791 -0.3837 -0.5218 -0.1069
 9946WAT      O40503   4.180   6.736   4.602  0.1887  0.2121 -0.4075
 9946WAT     H140504   4.188   6.813   4.642  1.2436  0.5729 -1.2625
 9946WAT     H240505   4.221   6.681   4.655  0.6112  0.4935 -0.4323
 9946WAT    EPW40506   4.187   6.740   4.616  0.4069  0.3070 -0.5375
 9947WAT      O40507   7.226   0.611   1.658  0.8380 -0.0168 -0.1630
 9947WAT     H140508   7.277   0.557   1.613  1.8888  0.4075  0.4835
 9947WAT     H240509   7.174   0.645   1.596  0.8250 -1.0106 -0.7189
 9947WAT    EPW40510   7.226   0.608   1.642  0.9913 -0.1009 -0.1497
 9948WAT      O40511   3.719   4.254   1.411  0.3950 -0.0735  0.2159
 9948WAT     H140512   3.767   4.184   1.391  0.9026  0.1883  0.5231
 9948WAT     H240513   3.706   4.247   1.497  0.7675  0.4053  0.3161
 9948WAT    EPW40514   3.724   4.243   1.420  0.5250  0.0359  0.2761
 9949WAT      O40515   6.860   6.248   3.408 -0.4632  0.2358  0.0169
 9949WAT     H140516   6.822   6.307   3.355 -0.6501 -0.0197 -0.1378
 9949WAT     H240517   6.811   6.177   3.396 -1.5890  0.6563  1.8442
 9949WAT    EPW40518   6.847   6.246   3.398 -0.6571  0.2602  0.2640
 9950WAT      O40519   1.239   5.311   0.024  0.0698 -0.4118 -0.5675
 9950WAT     H140520   1.265   5.389  -0.005  1.5832  0.2923  2.3087
 9950WAT     H240521   1.232   5.264  -0.049 -0.3460  2.2085 -2.3691
 9950WAT    EPW40522   1.242   5.316   0.009  0.2319  0.0793 -0.4088
 9951WAT      O40523   6.836   5.131   2.836  0.4625  0.0343 -0.1530
 9951WAT     H140524   6.805   5.209   2.811  1.2009  0.1399 -0.7769
 9951WAT     H240525   6.784   5.075   2.793  0.2462  0.1817 -0.0901
 9951WAT    EPW40526   6.823   5.134   2.826  0.5396  0.0717 -0.2358
 9952WAT      O40527   0.590   1.970   6.809  0.4635  0.5404 -0.3536
 9952WAT     H140528   0.568   1.903   6.759  0.4744  0.6556 -0.5137
 9952WAT     H240529   0.677   1.969   6.808  0.5111 -0.7841  1.4340
 9952WAT    EPW40530   0.600   1.960   6.802  0.4721  0.3618 -0.1132
 9953WAT      O40531   1.786   0.224   4.712 -0.1604  0.0099  0.1755
 9953WAT     H140532   1.713   0.215   4.759  0.5393  1.2328  1.5937
 9953WAT     H240533   1.813   0.142   4.701 -1.2653 -0.4080  0.3971
 9953WAT    EPW40534   1.779   0.211   4.717 -0.2203  0.1288  0.4177
 9954WAT      O40535   1.920   2.605   2.045 -0.3512 -0.0450  0.7181
 9954WAT     H140536   1.994   2.612   2.000 -1.3191  0.8164 -0.8768
 9954WAT     H240537   1.899   2.688   2.063 -2.6150  0.1071 -1.9285
 9954WAT    EPW40538   1.928   2.619   2.041 -0.8286  0.1047  0.0915
 9955WAT      O40539   5.289   3.247   0.858  0.6355 -0.4147 -0.4857
 9955WAT     H140540   5.349   3.265   0.798  0.8298 -0.2436 -0.2407
 9955WAT     H240541   5.245   3.322   0.867  1.2136 -0.1516  0.2698
 9955WAT    EPW40542   5.291   3.261   0.850  0.7496 -0.3506 -0.3379
 9956WAT      O40543   5.167   5.504   6.593  0.0429  0.3886  0.7649
 9956WAT     H140544   5.148   5.447   6.530 -2.0365 -0.2226  1.8380
 9956WAT     H240545   5.254   5.506   6.594  0.1427 -0.0532 -1.6518
 9956WAT    EPW40546   5.177   5.496   6.584 -0.2495  0.2331  0.5664
 9957WAT      O40547   1.812   3.128   4.055  0.2300  0.2841  0.1638
 9957WAT     H140548   1.776   3.053   4.080  0.6552 -0.9576 -2.6116
 9957WAT     H240549   1.842   3.162   4.130  0.5099 -2.5811  1.4893
 9957WAT    EPW40550   1.811   3.122   4.070  0.3342 -0.3226 -0.0504
 9958WAT      O40551   4.082   5.322   3.406 -0.2112  0.5046 -0.2060
 9958WAT     H140552   4.077   5.372   3.477  0.0199  1.6432 -0.9623
 9958WAT     H240553   4.074   5.379   3.341 -0.3403 -0.5098 -1.0956
 9958WAT    EPW40554   4.080   5.338   3.407 -0.1961  0.5230 -0.4491
 9959WAT      O40555   7.057   0.848   3.947 -0.0715  0.0100 -0.0755
 9959WAT     H140556   7.049   0.811   4.026 -2.5960  1.8059  0.6494
 9959WAT     H240557   7.125   0.902   3.957  3.0875 -3.4399 -0.8876
 9959WAT    EPW40558   7.066   0.850   3.960  0.0223 -0.2344 -0.0884
 9960WAT      O40559   2.063   5.902   3.327 -0.4148 -0.3143 -0.1987
 9960WAT     H140560   2.132   5.883   3.377  0.6887 -1.0119 -1.8767
 9960WAT     H240561   2.086   5.977   3.287 -1.2873  0.2521  0.3093
 9960WAT    EPW40562   2.077   5.911   3.328 -0.3807 -0.3336 -0.3715
 9961WAT      O40563   4.869   1.355   3.954 -0.7924 -0.5711 -0.4082
 9961WAT     H140564   4.838   1.274   3.948 -0.7826 -0.6870  0.8691
 9961WAT     H240565   4.819   1.400   3.898 -0.3109 -1.5746 -1.6992
 9961WAT    EPW40566   4.857   1.350   3.944 -0.7199 -0.7364 -0.4102
 9962WAT      O40567   2.051   1.138   3.780 -0.1683 -0.0981  0.0520
 9962WAT     H140568   2.103   1.205   3.799  0.8563 -0.6370 -0.7458
 9962WAT     H240569   1.971   1.173   3.778  0.3302  1.0457 -0.1616
 9962WAT    EPW40570   2.047   1.153   3.783  0.0567 -0.0087 -0.0974
 9963WAT      O40571   5.646   1.845   5.758 -0.8506  0.0349  0.1586
 9963WAT     H140572   5.663   1.774   5.805  0.9633 -1.2420 -2.1847
 9963WAT     H240573   5.678   1.911   5.806 -0.4452 -0.9894  1.3403
 9963WAT    EPW40574   5.653   1.845   5.772 -0.5228 -0.3050 -0.0130
 9964WAT      O40575   4.538   1.694   1.531 -0.3474 -0.3296 -0.1147
 9964WAT     H140576   4.624   1.706   1.520  0.0955 -2.0101  1.1925
 9964WAT     H240577   4.505   1.712   1.452  1.3337 -0.8663 -0.9914
 9964WAT    EPW40578   4.546   1.699   1.517 -0.0336 -0.6571 -0.0511
 9965WAT      O40579   0.863   3.517   5.195  0.0175 -0.7177 -0.1529
 9965WAT     H140580   0.827   3.479   5.265 -1.9241  2.5923  0.8415
 9965WAT     H240581   0.824   3.478   5.128  0.6680 -2.7676  0.5806
 9965WAT    EPW40582   0.852   3.506   5.195 -0.1732 -0.5316  0.1023
 9966WAT      O40583   0.728   0.074   3.930  0.5598  0.0922  0.5694
 9966WAT     H140584   0.715  -0.009   3.954 -1.3323  0.2480  0.2924
 9966WAT     H240585   0.647   0.105   3.922  1.1809  2.4680  2.2908
 9966WAT    EPW40586   0.714   0.067   3.932  0.3720  0.4662  0.7828
 9967WAT      O40587   2.177   4.498   1.254  0.6338 -0.5266  0.0756
 9967WAT     H140588   2.225   4.441   1.208  2.4999 -0.0405  1.3166
 9967WAT     H240589   2.196   4.479   1.337 -1.1808 -0.1286  0.6365
 9967WAT    EPW40590   2.187   4.487   1.260  0.6414 -0.3960  0.3418
 9968WAT      O40591   1.633   3.496   6.460 -0.0795  0.2806 -0.0387
 9968WAT     H140592   1.643   3.433   6.400  0.6711  0.1831  0.1808
 9968WAT     H240593   1.620   3.452   6.534  2.1454  0.3067  0.4345
 9968WAT    EPW40594   1.633   3.480   6.462  0.3601  0.2701  0.0636
 9969WAT      O40595   0.220   0.242   2.665 -0.1760  0.4023  0.4180
 9969WAT     H140596   0.197   0.323   2.686  1.6892  0.8113  1.0717
 9969WAT     H240597   0.297   0.252   2.625 -1.5099 -0.7608 -2.8365
 9969WAT    EPW40598   0.228   0.255   2.662 -0.0975  0.2909  0.0338
 9970WAT      O40599   0.960   6.111   4.876 -0.1157 -0.4035  0.1652
 9970WAT     H140600   0.887   6.098   4.922 -0.2035 -0.6025 -0.0264
 9970WAT     H240601   0.962   6.197   4.864 -1.1627 -0.5328 -1.1948
 9970WAT    EPW40602   0.949   6.122   4.881 -0.2833 -0.4520 -0.0640
 9971WAT      O40603   6.400   1.803   5.246 -0.4690 -0.3066 -0.2996
 9971WAT     H140604   6.480   1.769   5.249 -0.6144 -0.6149  0.4935
 9971WAT     H240605   6.408   1.880   5.286 -0.4016  0.0446 -0.9736
 9971WAT    EPW40606   6.413   1.809   5.252 -0.4805 -0.3002 -0.2820
 9972WAT      O40607   1.700   6.552   5.291 -0.0322  0.3300  0.8414
 9972WAT     H140608   1.648   6.571   5.224 -0.9671  1.3966  1.8322
 9972WAT     H240609   1.775   6.528   5.252 -0.2469  1.7882 -0.5820
 9972WAT    EPW40610   1.703   6.551   5.275 -0.2021  0.7030  0.7775
 9973WAT      O40611   6.262   5.377   0.126 -0.2731  0.2158  0.3328
 9973WAT     H140612   6.221   5.433   0.179 -1.6503 -0.4080 -0.0226
 9973WAT     H240613   6.198   5.345   0.077  1.0484  1.5318 -2.4901
 9973WAT    EPW40614   6.247   5.381   0.126 -0.2813  0.3181 -0.1367
 9974WAT      O40615   6.796   0.449   5.928 -0.7312 -0.2035  0.2342
 9974WAT     H140616   6.750   0.495   5.986 -2.0991 -1.1424 -0.0563
 9974WAT     H240617   6.800   0.370   5.963  3.2413  0.4139  1.6506
 9974WAT    EPW40618   6.790   0.444   5.941 -0.3464 -0.2510  0.4005
 9975WAT      O40619   5.815   5.091   4.741  0.3519  0.1777 -0.1967
 9975WAT     H140620   5.754   5.128   4.791  0.5713  0.4543 -0.1384
 9975WAT     H240621   5.872   5.155   4.726 -0.3351  0.4619 -1.8360
 9975WAT    EPW40622   5.814   5.106   4.746  0.2828  0.2606 -0.4303
 9976WAT      O40623   6.307   2.429   2.198  0.1811  0.2597  0.1998
 9976WAT     H140624   6.393   2.417   2.196  0.3418  1.2994 -0.1055
 9976WAT     H240625   6.275   2.351   2.219  1.2326  0.0236  0.9976
 9976WAT    EPW40626   6.315   2.416   2.201  0.3602  0.3784  0.2725
 9977WAT      O40627   5.674   3.014   3.686  0.3254 -0.2556  0.1061
 9977WAT     H140628   5.758   2.993   3.697  0.1129 -1.4719 -0.4147
 9977WAT     H240629   5.640   2.943   3.647 -1.1981 -0.3032  1.4165
 9977WAT    EPW40630   5.682   3.000   3.682  0.0689 -0.4423  0.2228
 9978WAT      O40631   6.134   0.678   4.016  0.4970 -0.0643 -0.0301
 9978WAT     H140632   6.056   0.675   3.977 -0.1900  0.8349  1.2201
 9978WAT     H240633   6.185   0.718   3.958 -0.1266 -0.0768 -0.5951
 9978WAT    EPW40634   6.130   0.683   4.002  0.3034  0.0667  0.0711
 9979WAT      O40635   0.970   2.451   4.410 -0.1935  0.1433 -0.5602
 9979WAT     H140636   0.950   2.513   4.351  1.1612  0.7060 -0.4466
 9979WAT     H240637   0.959   2.492   4.486 -1.8220 -0.5487 -0.3739
 9979WAT    EPW40638   0.965   2.466   4.412 -0.2340  0.1242 -0.5159
 9980WAT      O40639   6.671   0.621   0.650 -0.4458 -0.1449 -0.4627
 9980WAT     H140640   6.710   0.601   0.725  0.8785 -0.0952 -1.0922
 9980WAT     H240641   6.602   0.667   0.674 -0.4268 -0.7199  0.7485
 9980WAT    EPW40642   6.667   0.625   0.665 -0.2474 -0.2225 -0.3768
 9981WAT      O40643   3.006   6.196   0.531 -0.1863 -0.1380 -0.1771
 9981WAT     H140644   3.073   6.170   0.481  0.4263  2.1787 -0.6637
 9981WAT     H240645   2.936   6.179   0.482 -0.0051 -2.3878  0.2487
 9981WAT    EPW40646   3.006   6.190   0.516 -0.0691 -0.1281 -0.1861
 9982WAT      O40647   7.034   2.872   2.239  0.6534  0.3820  0.3714
 9982WAT     H140648   6.952   2.899   2.232  0.1412 -1.1403  0.1201
 9982WAT     H240649   7.070   2.930   2.294 -1.7275 -1.2987  4.1339
 9982WAT    EPW40650   7.027   2.885   2.246  0.2260 -0.0912  0.8901
 9983WAT      O40651   3.567   4.256   6.723  0.0560 -0.0169 -0.0543
 9983WAT     H140652   3.594   4.291   6.798 -1.3902  3.1537 -0.8417
 9983WAT     H240653   3.514   4.192   6.749  0.9641 -0.1724  1.5678
 9983WAT    EPW40654   3.563   4.252   6.738 -0.0235  0.4285  0.0690
 9984WAT      O40655   0.847   5.719   6.398 -0.1173  0.3522  0.0210
 9984WAT     H140656   0.914   5.692   6.446  0.0258 -0.3486 -0.5576
 9984WAT     H240657   0.794   5.757   6.457  1.3916  2.2041  0.2814
 9984WAT    EPW40658   0.849   5.721   6.414  0.1268  0.5222 -0.0260
 9985WAT      O40659   6.698   3.803   3.968  0.6018  0.3796 -0.0868
 9985WAT     H140660   6.701   3.775   4.051  0.4758  1.3650  0.2680
 9985WAT     H240661   6.752   3.749   3.926  0.7214 -0.0928  0.6539
 9985WAT    EPW40662   6.707   3.791   3.974  0.6009  0.4554  0.0750
 9986WAT      O40663   3.920   2.226   0.647 -0.0611 -0.0496 -0.7785
 9986WAT     H140664   3.870   2.170   0.690 -1.7297  1.0136 -1.2557
 9986WAT     H240665   3.863   2.279   0.608  1.3362  2.9245  0.8223
 9986WAT    EPW40666   3.904   2.226   0.648 -0.1012  0.5468 -0.6125
 9987WAT      O40667   6.377   4.654   1.093  0.0519 -0.1910 -0.1882
 9987WAT     H140668   6.385   4.740   1.097 -0.5461 -0.0934 -0.9494
 9987WAT     H240669   6.346   4.633   1.172 -3.2289  0.7206 -1.0931
 9987WAT    EPW40670   6.374   4.663   1.105 -0.5211 -0.0419 -0.4343
 9988WAT      O40671   1.215   0.752   0.334 -0.6281  0.9147 -0.3908
 9988WAT     H140672   1.231   0.766   0.419 -1.4856  1.0673 -0.2454
 9988WAT     H240673   1.294   0.745   0.299 -0.2579  0.1357  0.5438
 9988WAT    EPW40674   1.229   0.753   0.342 -0.7001  0.8222 -0.2313
 9989WAT      O40675   4.619   0.344   6.347  0.0795 -0.5137  0.2764
 9989WAT     H140676   4.636   0.286   6.409 -0.2383 -0.3818  0.4881
 9989WAT     H240677   4.558   0.305   6.298  0.3866 -0.6502  0.0002
 9989WAT    EPW40678   4.613   0.330   6.349  0.0779 -0.5144  0.2668
 9990WAT      O40679   6.352   0.167   1.685 -0.5191 -0.2629 -0.8720
 9990WAT     H140680   6.282   0.155   1.736 -0.4253  0.1502 -0.6401
 9990WAT     H240681   6.346   0.251   1.662  0.5955  0.1276  0.1944
 9990WAT    EPW40682   6.341   0.177   1.689 -0.3406 -0.1442 -0.6802
 9991WAT      O40683   0.828   2.034   3.953  0.7127 -0.5907 -0.9514
 9991WAT     H140684   0.868   2.100   3.913 -0.4310  1.2503  0.8092
 9991WAT     H240685   0.877   2.019   4.023  0.2209 -0.7198 -0.6333
 9991WAT    EPW40686   0.841   2.041   3.957  0.4711 -0.3378 -0.6444
 9992WAT      O40687   1.521   3.756   6.134 -0.0746 -0.1884 -0.2274
 9992WAT     H140688   1.522   3.842   6.147  0.7132 -0.3569  0.9520
 9992WAT     H240689   1.478   3.724   6.202 -1.0137 -0.7047 -1.0277
 9992WAT    EPW40690   1.515   3.764   6.146 -0.0969 -0.2896 -0.1714
 9993WAT      O40691   2.199   5.270   5.626  0.1553 -0.2895 -0.1993
 9993WAT     H140692   2.285   5.274   5.617  0.2346  0.4295  0.6387
 9993WAT     H240693   2.170   5.340   5.583  0.1256  0.2915  0.7350
 9993WAT    EPW40694   2.207   5.281   5.618  0.1626 -0.0975  0.0625
 9994WAT      O40695   0.770   4.590   3.570  0.1948 -0.7304  0.2333
 9994WAT     H140696   0.798   4.518   3.612 -0.9275 -1.9721 -1.0590
 9994WAT     H240697   0.798   4.579   3.488 -1.4949 -0.5942 -0.4082
 9994WAT    EPW40698   0.778   4.578   3.564 -0.2206 -0.8937 -0.0523
 9995WAT      O40699   4.437   1.098   2.742 -0.0551 -0.3144  0.1699
 9995WAT     H140700   4.504   1.154   2.738  0.6681 -1.1158  0.6745
 9995WAT     H240701   4.371   1.147   2.771  0.4844  0.3350  0.3334
 9995WAT    EPW40702   4.437   1.113   2.745  0.1315 -0.3369  0.2686
 9996WAT      O40703   6.391   0.614   1.319  0.5037  0.3942  0.5263
 9996WAT     H140704   6.443   0.556   1.360  0.5678  0.2107  0.1872
 9996WAT     H240705   6.377   0.577   1.242  2.0467  1.6661 -0.4264
 9996WAT    EPW40706   6.397   0.600   1.314  0.7411  0.5550  0.3355
 9997WAT      O40707   6.925   6.895   2.702  0.4156  0.2076 -1.0622
 9997WAT     H140708   6.872   6.826   2.698  0.4496  0.1741 -0.9440
 9997WAT     H240709   6.900   6.944   2.635  0.5426 -0.0284 -1.2848
 9997WAT    EPW40710   6.913   6.892   2.692  0.4394  0.1678 -1.0776
 9998WAT      O40711   5.228   1.436   3.895  0.2934  0.1317 -0.1199
 9998WAT     H140712   5.183   1.385   3.842  1.7046 -0.2721 -0.9962
 9998WAT     H240713   5.219   1.399   3.973  0.2410 -0.7299 -0.5282
 9998WAT    EPW40714   5.220   1.423   3.899  0.4941 -0.0553 -0.3097
 9999WAT      O40715   4.519   0.972   0.112  0.2587 -0.0716 -0.0903
 9999WAT     H140716   4.451   0.933   0.073  1.5237 -0.5802 -1.8720
 9999WAT     H240717   4.506   1.057   0.095  0.5829 -0.2547 -1.3330
 9999WAT    EPW40718   4.507   0.979   0.104  0.4935 -0.1738 -0.5371
10000WAT      O40719   3.116   1.572   2.857  0.1852  0.4666  0.5271
10000WAT     H140720   3.103   1.612   2.780 -0.0543 -1.2852 -0.3859
10000WAT     H240721   3.039   1.579   2.896 -0.2942 -0.3208 -0.2369
10000WAT    EPW40722   3.103   1.579   2.851  0.0790  0.0915  0.2794
10001WAT      O40723   1.466   4.663   2.319  0.6519 -0.5050 -0.7583
10001WAT     H140724   1.431   4.610   2.378  1.5331 -1.2888 -0.9216
10001WAT     H240725   1.422   4.738   2.330  1.4671 -0.3065  1.5505
10001WAT    EPW40726   1.454   4.666   2.329  0.9025 -0.5915 -0.4413
10002WAT      O40727   6.904   3.410   1.765 -0.1551  0.0557  0.1280
10002WAT     H140728   6.865   3.471   1.715 -0.7216  1.6174  2.2999
10002WAT     H240729   6.860   3.337   1.747 -0.3758  0.5586 -1.5576
10002WAT    EPW40730   6.892   3.409   1.755 -0.2714  0.3607  0.1999
10003WAT      O40731   2.195   5.976   2.372  0.4625  0.2282 -0.0538
10003WAT     H140732   2.230   6.043   2.415  2.2697 -0.8267  0.2552
10003WAT     H240733   2.113   5.972   2.402  1.0291  0.8635  1.6766
10003WAT    EPW40734   2.188   5.985   2.383  0.8131  0.1662  0.2474
10004WAT      O40735   1.799   6.848   1.192  0.1655  0.2893  0.3624
10004WAT     H140736   1.798   6.768   1.226 -1.1805 -0.2081 -0.7546
10004WAT     H240737   1.753   6.895   1.248  0.7187  0.2354  0.8763
10004WAT    EPW40738   1.792   6.843   1.205  0.0484  0.2079  0.2733
10005WAT      O40739   4.983   1.860   7.022 -0.4160  0.3767  0.2186
10005WAT     H140740   4.978   1.937   7.061 -1.0854 -1.2533  3.7321
10005WAT     H240741   4.902   1.845   6.994 -0.7734  0.1419  1.3439
10005WAT    EPW40742   4.970   1.869   7.023 -0.5677  0.1012  0.9038
10006WAT      O40743   6.166   2.134   0.288 -0.1417 -0.1144 -0.1298
10006WAT     H140744   6.241   2.099   0.261 -0.4395  0.4028 -1.7687
10006WAT     H240745   6.127   2.068   0.331  0.8762 -0.6373  0.0235
10006WAT    EPW40746   6.171   2.119   0.290 -0.0353 -0.1153 -0.3492
10007WAT      O40747   0.268   0.593   0.612  0.1186  0.1960 -0.8074
10007WAT     H140748   0.190   0.629   0.625  0.3812  0.6309 -0.3901
10007WAT     H240749   0.253   0.507   0.621  0.0198  0.3643  1.2319
10007WAT    EPW40750   0.255   0.586   0.615  0.1428  0.2851 -0.4445
10008WAT      O40751   2.870   2.983   7.289  0.2529  0.0432 -0.3696
10008WAT     H140752   2.792   2.961   7.257  0.1427 -0.8332  0.4742
10008WAT     H240753   2.877   2.935   7.361  0.7781  1.4874  0.5746
10008WAT    EPW40754   2.859   2.973   7.295  0.3142  0.1271 -0.1055
10009WAT      O40755   0.247   6.718   6.420  0.2893 -0.2084  0.2737
10009WAT     H140756   0.276   6.752   6.494  0.4997 -2.1578  1.1535
10009WAT     H240757   0.182   6.665   6.445 -1.7857  1.4282 -1.2951
10009WAT    EPW40758   0.242   6.715   6.434  0.0138 -0.2546  0.1719
10010WAT      O40759   0.395   0.053   6.664 -0.1474  0.0486  0.0781
10010WAT     H140760   0.407   0.111   6.728 -0.7189  1.0884 -0.7340
10010WAT     H240761   0.309   0.040   6.664 -0.0735 -0.4699 -0.0424
10010WAT    EPW40762   0.384   0.060   6.673 -0.2209  0.1256 -0.0596
10011WAT      O40763   7.243   4.378   1.350  0.1503 -0.2730  0.0531
10011WAT     H140764   7.293   4.405   1.283 -2.5857  2.2297 -1.2045
10011WAT     H240765   7.205   4.306   1.319  1.3082 -0.9705  0.2029
10011WAT    EPW40766   7.245   4.372   1.335 -0.0828 -0.0063 -0.1105
10012WAT      O40767   3.736   3.818   1.368 -0.3256  0.8590  0.1332
10012WAT     H140768   3.777   3.763   1.315 -3.1250 -0.7848 -0.5426
10012WAT     H240769   3.717   3.886   1.316  1.1805  1.5190  0.3906
10012WAT    EPW40770   3.739   3.820   1.353 -0.5166  0.7137  0.0714
10013WAT      O40771   5.399   6.025   3.346 -0.1185  0.6349 -0.0876
10013WAT     H140772   5.427   6.012   3.428 -1.3845 -2.1669  0.0329
10013WAT     H240773   5.376   6.109   3.345  0.8008  0.9857  2.1386
10013WAT    EPW40774   5.399   6.035   3.358 -0.1697  0.2728  0.2591
10014WAT      O40775   0.662   3.497   0.947  0.5088 -0.3185  0.4308
10014WAT     H140776   0.583   3.512   0.913  1.0682 -3.2431 -2.6491
10014WAT     H240777   0.647   3.490   1.032 -2.6321 -0.9709 -0.0606
10014WAT    EPW40778   0.649   3.498   0.954  0.1275 -0.8469 -0.0967
10015WAT      O40779   2.958   1.132   1.582  0.6134 -0.5315  0.3219
10015WAT     H140780   2.946   1.198   1.639  0.4633  0.9048 -1.3024
10015WAT     H240781   2.962   1.062   1.634  0.8080  0.7330  2.1363
10015WAT    EPW40782   2.957   1.132   1.598  0.6200 -0.1326  0.3500
10016WAT      O40783   5.654   4.492   6.040  0.2619  0.1413 -0.4297
10016WAT     H140784   5.695   4.536   6.103  1.7507 -0.4738 -0.9307
10016WAT     H240785   5.644   4.412   6.073 -0.4785  0.2541 -0.3540
10016WAT    EPW40786   5.659   4.487   6.054  0.3725  0.0671 -0.4925
10017WAT      O40787   5.114   2.251   5.508  0.3402 -0.0510 -0.1483
10017WAT     H140788   5.059   2.245   5.576 -0.6531  0.9042 -0.8303
10017WAT     H240789   5.064   2.231   5.440  0.8577  0.7643 -0.7809
10017WAT    EPW40790   5.099   2.247   5.508  0.2699  0.2106 -0.3425
10018WAT      O40791   4.957   3.353   5.335  0.3303 -0.0404  0.1324
10018WAT     H140792   5.015   3.310   5.384  1.0931  0.4595 -0.2979
10018WAT     H240793   5.004   3.420   5.303 -1.1698  2.0352  2.0065
10018WAT    EPW40794   4.973   3.357   5.338  0.2214  0.3401  0.3457
10019WAT      O40795   1.153   7.134   5.179  0.5518  0.2014 -0.0942
10019WAT     H140796   1.197   7.208   5.194 -0.1348  0.5402  0.2791
10019WAT     H240797   1.075   7.149   5.215 -0.1817 -0.0483 -1.5483
10019WAT    EPW40798   1.148   7.147   5.187  0.3420  0.2145 -0.2539
10020WAT      O40799   1.034   3.485   5.546 -0.2025 -0.4289  0.0517
10020WAT     H140800   0.960   3.530   5.555 -0.2028 -0.5212  0.5064
10020WAT     H240801   1.042   3.442   5.621 -0.7819 -2.0775 -0.7837
10020WAT    EPW40802   1.025   3.486   5.558 -0.2881 -0.6861 -0.0046
10021WAT      O40803   0.222   4.028   2.675 -0.9883 -0.0711  0.6771
10021WAT     H140804   0.159   3.977   2.642  0.0020 -0.7462 -0.2324
10021WAT     H240805   0.240   3.990   2.752 -0.9719 -0.4778  0.4745
10021WAT    EPW40806   0.215   4.015   2.682 -0.8396 -0.2309  0.5128
10022WAT      O40807   1.213   1.672   0.191  0.5491 -0.1346 -0.2237
10022WAT     H140808   1.270   1.729   0.224 -0.4414  0.1681  1.0291
10022WAT     H240809   1.256   1.596   0.196  1.1238  0.1955 -0.0134
10022WAT    EPW40810   1.228   1.669   0.197  0.4877 -0.0411 -0.0076
10023WAT      O40811   5.952   3.073   0.266  0.1908  0.4908 -0.0765
10023WAT     H140812   5.865   3.071   0.265  0.1893  0.5233 -0.0090
10023WAT     H240813   5.974   3.040   0.188  0.1203  0.4139 -0.0631
10023WAT    EPW40814   5.943   3.068   0.254  0.1801  0.4842 -0.0645
10024WAT      O40815   1.412   5.851   1.900  0.1320  0.1881 -0.1376
10024WAT     H140816   1.349   5.842   1.959 -0.0062 -0.1023 -0.3284
10024WAT     H240817   1.407   5.936   1.878 -0.0575  0.2130 -0.0002
10024WAT    EPW40818   1.402   5.862   1.905  0.0836  0.1489 -0.1455
10025WAT      O40819   1.308   3.259   4.219 -0.2133 -0.0660 -0.5888
10025WAT     H140820   1.280   3.305   4.287 -1.7609 -1.0991 -0.4673
10025WAT     H240821   1.253   3.191   4.216  1.9221 -1.8987 -0.7774
10025WAT    EPW40822   1.296   3.255   4.229 -0.1265 -0.4893 -0.5987
10026WAT      O40823   6.597   1.130   6.527 -0.1330  0.4905 -0.3622
10026WAT     H140824   6.568   1.123   6.445 -1.2862 -0.4018  0.0893
10026WAT     H240825   6.549   1.072   6.571  2.2317 -0.9534  0.5152
10026WAT    EPW40826   6.585   1.121   6.521  0.0459  0.1454 -0.1659
10027WAT      O40827   6.157   6.431   3.694 -0.0257  0.0049 -0.4110
10027WAT     H140828   6.091   6.393   3.737 -0.3559 -0.2050 -1.0826
10027WAT     H240829   6.199   6.363   3.658  2.1372 -0.1275  2.0878
10027WAT    EPW40830   6.153   6.415   3.695  0.2450 -0.0457 -0.1411
10028WAT      O40831   3.302   7.072   4.631 -0.2365  0.3109 -0.4285
10028WAT     H140832   3.317   6.995   4.593 -0.3277 -0.2347  0.6044
10028WAT     H240833   3.373   7.085   4.680 -0.5818  0.4690  0.0446
10028WAT    EPW40834   3.314   7.062   4.633 -0.3009  0.2536 -0.2060
10029WAT      O40835   0.870   2.562   1.099 -0.3042  0.5998  0.2852
10029WAT     H140836   0.935   2.577   1.042 -0.0817 -0.5539  0.2057
10029WAT     H240837   0.850   2.641   1.129  2.5082  0.8518  1.8141
10029WAT    EPW40838   0.877   2.576   1.095  0.1441  0.4666  0.4993
10030WAT      O40839   6.513   0.857   6.679 -0.2471  0.3042 -0.1792
10030WAT     H140840   6.494   0.861   6.594  1.7725 -0.7307 -0.7219
10030WAT     H240841   6.535   0.774   6.692  2.8040  1.0986  0.5308
10030WAT    EPW40842   6.513   0.846   6.668  0.5020  0.2687 -0.1545
10031WAT      O40843   5.015   1.733   5.266 -0.5719 -0.2126 -0.2818
10031WAT     H140844   4.935   1.702   5.250  0.0823 -1.5171 -1.1841
10031WAT     H240845   5.025   1.723   5.352 -1.0412 -0.8848 -0.2997
10031WAT    EPW40846   5.004   1.727   5.276 -0.5446 -0.5046 -0.4177
10032WAT      O40847   5.954   1.955   3.028 -0.8586  0.1174 -0.1970
10032WAT     H140848   5.995   1.943   3.104  1.6935  0.8477 -1.3514
10032WAT     H240849   5.945   2.041   3.022 -0.2406  0.1407 -1.0772
10032WAT    EPW40850   5.959   1.966   3.038 -0.3903  0.2288 -0.4976
10033WAT      O40851   0.560   4.939   1.489 -0.2372 -0.1634 -0.5045
10033WAT     H140852   0.626   4.912   1.439  0.6130  2.2046 -0.8107
10033WAT     H240853   0.595   5.006   1.534 -1.6167 -0.7397  1.5722
10033WAT    EPW40854   0.575   4.945   1.488 -0.3154  0.1013 -0.2430
10034WAT      O40855   5.743   3.888   0.368  0.5793 -0.2758  0.0369
10034WAT     H140856   5.717   3.860   0.447 -2.7848  1.5880 -0.2211
10034WAT     H240857   5.692   3.844   0.313 -0.3908  1.6971 -0.7185
10034WAT    EPW40858   5.732   3.877   0.372 -0.0610  0.2910 -0.1128
10035WAT      O40859   1.660   1.640   0.477  0.0170 -0.7309  0.0324
10035WAT     H140860   1.578   1.616   0.491  0.1354 -0.5383  1.1403
10035WAT     H240861   1.683   1.680   0.551  0.4923  0.9595 -0.9657
10035WAT    EPW40862   1.652   1.642   0.490  0.1047 -0.4527  0.0486
10036WAT      O40863   7.115   5.319   7.205  0.0162  0.5732  0.2252
10036WAT     H140864   7.112   5.392   7.252  2.4229  0.7513  0.2299
10036WAT     H240865   7.159   5.342   7.134  1.5025 -0.9832  0.5728
10036WAT    EPW40866   7.121   5.333   7.202  0.5913  0.3696  0.2773
10037WAT      O40867   3.417   4.548   2.376 -0.3339 -0.7768 -0.4721
10037WAT     H140868   3.478   4.611   2.379 -0.3445 -0.7983  0.2859
10037WAT     H240869   3.344   4.591   2.356 -0.6470 -0.2947  1.5361
10037WAT    EPW40870   3.415   4.564   2.373 -0.3817 -0.7088 -0.0635
10038WAT      O40871   5.478   3.600   0.914  0.7576 -0.2141 -0.2609
10038WAT     H140872   5.543   3.575   0.861  1.9064 -0.0826  1.0261
10038WAT     H240873   5.498   3.562   0.990 -1.4147 -1.2615 -0.1538
10038WAT    EPW40874   5.491   3.591   0.917  0.6064 -0.3494 -0.0549
10039WAT      O40875   5.571   3.241   6.624 -0.4238  0.1178 -0.0618
10039WAT     H140876   5.571   3.164   6.664  0.1945 -0.3451 -0.9052
10039WAT     H240877   5.647   3.242   6.581  0.1911  1.7663  0.9511
10039WAT    EPW40878   5.582   3.230   6.623 -0.2416  0.2929 -0.0367
10040WAT      O40879   2.042   5.486   6.535 -0.5165  0.3635  0.1333
10040WAT     H140880   2.012   5.408   6.510 -1.2984 -0.1067  2.2693
10040WAT     H240881   2.102   5.466   6.595  0.0161  1.3999 -0.0377
10040WAT    EPW40882   2.046   5.472   6.540 -0.5533  0.4472  0.4235
10041WAT      O40883   6.762   2.490   1.421  0.4627 -0.1686 -0.1984
10041WAT     H140884   6.707   2.494   1.489  1.2514  0.6109  0.4045
10041WAT     H240885   6.789   2.572   1.411  2.4057 -0.7059  0.2550
10041WAT    EPW40886   6.758   2.503   1.430  0.8662 -0.1328 -0.0423
10042WAT      O40887   6.026   2.258   3.767  0.2144 -0.0431  0.1767
10042WAT     H140888   6.111   2.249   3.749  0.3982 -0.9555  1.4137
10042WAT     H240889   5.989   2.190   3.725  0.3900 -0.9261  1.3844
10042WAT    EPW40890   6.033   2.246   3.758  0.2675 -0.3083  0.5379
10043WAT      O40891   0.332   3.121   4.150 -0.4443  0.1994 -0.0481
10043WAT     H140892   0.330   3.192   4.099 -1.2835  0.8381  0.8295
10043WAT     H240893   0.271   3.138   4.210 -0.3781 -1.1064  0.4048
10043WAT    EPW40894   0.323   3.134   4.151 -0.5585  0.1008  0.1484
10044WAT      O40895   6.444   4.621   0.606 -0.2756 -0.5287 -0.1867
10044WAT     H140896   6.392   4.638   0.674 -0.1232 -0.5718 -0.0588
10044WAT     H240897   6.462   4.700   0.573  1.4019 -0.3193  1.1207
10044WAT    EPW40898   6.439   4.635   0.611 -0.0053 -0.5041  0.0253
10045WAT      O40899   5.066   4.600   3.439  0.0819  0.3129  0.2743
10045WAT     H140900   4.985   4.568   3.444  0.5274 -0.8085  0.6124
10045WAT     H240901   5.084   4.597   3.353  0.1851 -0.5567  0.3185
10045WAT    EPW40902   5.057   4.595   3.427  0.1629  0.0188  0.3308
10046WAT      O40903   3.220   5.054   1.940 -0.4947  0.2262 -0.3171
10046WAT     H140904   3.251   4.972   1.940 -0.0494  0.3870 -0.1106
10046WAT     H240905   3.239   5.083   1.860 -0.9081  0.0372 -0.4854
10046WAT    EPW40906   3.228   5.046   1.928 -0.4900  0.2220 -0.3115
10047WAT      O40907   4.494   5.286   2.371 -0.2929  0.6242 -0.4536
10047WAT     H140908   4.420   5.245   2.350 -0.2909  0.6901 -0.5915
10047WAT     H240909   4.530   5.304   2.294 -0.5240  1.3023 -0.4174
10047WAT    EPW40910   4.488   5.283   2.357 -0.3268  0.7341 -0.4686
10048WAT      O40911   0.733   4.606   0.224 -0.4956 -0.4439  1.3454
10048WAT     H140912   0.817   4.624   0.209 -0.6091 -0.8797  0.1037
10048WAT     H240913   0.733   4.582   0.308  0.9662 -2.2592  0.9143
10048WAT    EPW40914   0.746   4.605   0.234 -0.2964 -0.7764  1.0983
10049WAT      O40915   6.047   6.753   5.781 -0.2206  0.3390  0.1962
10049WAT     H140916   6.045   6.756   5.868  0.2153  0.9183  0.1908
10049WAT     H240917   6.068   6.835   5.758  1.2803 -0.1809 -0.3938
10049WAT    EPW40918   6.050   6.766   5.790  0.0655  0.3477  0.1082
10050WAT      O40919   5.082   6.905   5.424  0.0667  0.2744  0.4345
10050WAT     H140920   5.008   6.864   5.401  0.5688 -1.2666  1.3714
10050WAT     H240921   5.080   6.903   5.512  1.1997  0.2164  0.4757
10050WAT    EPW40922   5.071   6.899   5.434  0.3082  0.0382  0.5790
10051WAT      O40923   0.149   2.917   2.675 -0.5605 -0.1389 -0.4679
10051WAT     H140924   0.171   2.984   2.727 -0.1403 -0.2954 -0.4403
10051WAT     H240925   0.185   2.848   2.713 -1.9034 -0.5601  0.0927
10051WAT    EPW40926   0.158   2.917   2.688 -0.6968 -0.2242 -0.3810
10052WAT      O40927   0.768   5.321   1.597  0.7091  0.1063 -0.3609
10052WAT     H140928   0.823   5.268   1.555 -0.2076 -0.8980 -0.3410
10052WAT     H240929   0.717   5.353   1.534 -1.4286 -2.3026 -0.0300
10052WAT    EPW40930   0.768   5.318   1.582  0.2579 -0.3979 -0.3091
10053WAT      O40931   3.739   3.168   3.852 -0.3553 -0.3929  0.2257
10053WAT     H140932   3.795   3.101   3.855 -1.2245 -1.1770 -0.4262
10053WAT     H240933   3.745   3.197   3.770 -0.7466 -0.3399  0.2136
10053WAT    EPW40934   3.748   3.163   3.840 -0.5415 -0.5009  0.1276
10054WAT      O40935   5.243   5.393   0.668 -0.5198  0.4490  0.0040
10054WAT     H140936   5.320   5.395   0.708 -0.3587 -0.3256 -0.2617
10054WAT     H240937   5.262   5.414   0.585 -0.5982  0.2873 -0.0552
10054WAT    EPW40938   5.257   5.397   0.662 -0.5076  0.3107 -0.0440
10055WAT      O40939   6.795   2.101   4.969 -0.1847  0.0721 -0.3063
10055WAT     H140940   6.821   2.032   4.921 -0.5496 -0.4910  0.2886
10055WAT     H240941   6.825   2.083   5.048 -1.7028 -0.2313  0.2359
10055WAT    EPW40942   6.803   2.088   4.973 -0.4628 -0.0559 -0.1383
10056WAT      O40943   5.843   5.001   0.450  0.6273  0.1113  0.0050
10056WAT     H140944   5.869   5.034   0.527 -0.0604  0.3419  0.1482
10056WAT     H240945   5.850   5.068   0.396  0.5346  0.1121 -0.0051
10056WAT    EPW40946   5.848   5.016   0.453  0.5120  0.1455  0.0246
10057WAT      O40947   6.569   1.899   3.242 -0.4937  0.9775  0.4082
10057WAT     H140948   6.501   1.928   3.195  0.5542  2.8432 -0.0913
10057WAT     H240949   6.561   1.941   3.318 -1.1339 -0.5799  1.2418
10057WAT    EPW40950   6.558   1.910   3.246 -0.4335  1.0230  0.4576
10058WAT      O40951   4.996   5.407   5.849  0.0122  0.3428  0.3231
10058WAT     H140952   4.964   5.327   5.837 -0.9833  0.4776  1.8334
10058WAT     H240953   5.014   5.434   5.769 -0.7972 -0.9145 -0.3148
10058WAT    EPW40954   4.994   5.399   5.836 -0.2544  0.1770  0.4519
10059WAT      O40955   4.697   1.049   7.079 -0.8250  0.5973  0.0254
10059WAT     H140956   4.714   1.029   7.163 -1.1854  0.7570  0.1388
10059WAT     H240957   4.612   1.028   7.070 -0.6093 -0.0804 -0.4986
10059WAT    EPW40958   4.687   1.043   7.090 -0.8464  0.5208 -0.0353
10060WAT      O40959   4.122   4.606   0.469 -0.3452 -0.0110  0.0490
10060WAT     H140960   4.095   4.531   0.505  0.0809 -0.6190 -0.8621
10060WAT     H240961   4.209   4.602   0.477 -0.2739  0.0498 -0.6387
10060WAT    EPW40962   4.131   4.594   0.476 -0.2717 -0.0918 -0.1872
10061WAT      O40963   1.287   6.918   0.407 -0.0530 -0.6092 -0.0313
10061WAT     H140964   1.248   6.840   0.401  0.1975 -0.8577  1.3282
10061WAT     H240965   1.310   6.935   0.325 -0.6646 -1.6761 -0.4475
10061WAT    EPW40966   1.285   6.909   0.394 -0.1063 -0.8035  0.1080
10062WAT      O40967   6.104   0.905   6.237 -0.0290 -0.0793 -0.1196
10062WAT     H140968   6.062   0.981   6.246  0.0564 -0.2501  2.7392
10062WAT     H240969   6.040   0.846   6.235 -0.0340 -0.0680 -0.3413
10062WAT    EPW40970   6.088   0.907   6.238 -0.0171 -0.1028  0.2699
10063WAT      O40971   2.711   5.902   1.764  0.0016  0.0383  0.2780
10063WAT     H140972   2.634   5.865   1.780  0.6636 -1.5540 -0.0222
10063WAT     H240973   2.741   5.922   1.843 -0.0080 -0.8951  0.5313
10063WAT    EPW40974   2.704   5.899   1.778  0.0980 -0.3348  0.2711
10064WAT      O40975   6.965   7.052   2.471  0.6900 -0.2483 -0.1011
10064WAT     H140976   6.908   7.092   2.418  0.0944 -2.1749 -1.0073
10064WAT     H240977   7.029   7.110   2.479 -0.7647  1.4534 -0.1512
10064WAT    EPW40978   6.966   7.066   2.464  0.3871 -0.2815 -0.2424
10065WAT      O40979   1.589   3.489   2.324  0.0537  0.0290 -0.0275
10065WAT     H140980   1.622   3.441   2.259  1.0082 -1.0279  1.1848
10065WAT     H240981   1.651   3.548   2.340  0.1341 -0.1854  0.4327
10065WAT    EPW40982   1.603   3.491   2.316  0.2066 -0.1588  0.2195
10066WAT      O40983   4.824   1.617   1.806 -0.0710  0.0336 -0.4494
10066WAT     H140984   4.785   1.599   1.882  0.0987 -1.5204 -0.6908
10066WAT     H240985   4.761   1.607   1.747 -0.8004  3.3694 -0.4485
10066WAT    EPW40986   4.809   1.613   1.809 -0.1537  0.2968 -0.4849
10067WAT      O40987   2.724   1.657   2.391  0.4339  0.0347 -0.0295
10067WAT     H140988   2.760   1.601   2.448  2.0914  0.0801 -0.9556
10067WAT     H240989   2.734   1.618   2.314  1.1312  1.3306 -0.6378
10067WAT    EPW40990   2.731   1.643   2.388  0.7817  0.2328 -0.2561
10068WAT      O40991   4.708   2.901   1.167 -0.1485 -0.2236  0.1150
10068WAT     H140992   4.681   2.984   1.160  0.5884  0.1402  1.2129
10068WAT     H240993   4.715   2.889   1.253 -1.0346 -1.7151  0.0265
10068WAT    EPW40994   4.705   2.911   1.179 -0.1706 -0.3902  0.2641
10069WAT      O40995   0.258   1.230   5.455  0.7197 -0.0881 -0.3329
10069WAT     H140996   0.177   1.209   5.480  0.5051  1.3410  0.2466
10069WAT     H240997   0.307   1.205   5.522  0.4561  1.2385  0.3862
10069WAT    EPW40998   0.254   1.223   5.468  0.6491  0.3190 -0.1411
10070WAT      O40999   3.362   4.306   3.168  0.3003  0.4397  0.2642
10070WAT     H141000   3.367   4.320   3.254  0.1699 -0.2991  0.3975
10070WAT     H241001   3.295   4.357   3.144 -0.8606 -0.7089  0.9174
10070WAT    EPW41002   3.353   4.316   3.177  0.1095  0.1609  0.3804
10071WAT      O41003   0.626   4.930   4.605  0.2901  0.1413  0.4009
10071WAT     H141004   0.633   4.884   4.531  1.7121 -0.3791  0.8273
10071WAT     H241005   0.593   4.872   4.661 -0.3341  0.3984  0.3058
10071WAT    EPW41006   0.622   4.915   4.602  0.4080  0.1024  0.4498
10072WAT      O41007   3.351   6.412   6.232 -0.2828 -0.1592  0.9959
10072WAT     H141008   3.422   6.457   6.210 -0.7326  0.4303  0.7341
10072WAT     H241009   3.304   6.468   6.279 -1.9432  0.5035 -1.2799
10072WAT    EPW41010   3.354   6.427   6.236 -0.5945  0.0258  0.6211
10073WAT      O41011   0.758   3.525   0.104  0.3858  0.5861 -0.5986
10073WAT     H141012   0.747   3.471   0.036 -0.6482  1.0969 -0.8592
10073WAT     H241013   0.774   3.602   0.066 -1.2381  1.1020 -0.3233
10073WAT    EPW41014   0.759   3.528   0.088 -0.0068  0.7378 -0.5964
10074WAT      O41015   2.498   3.064   0.097 -0.4777  0.4188 -0.6082
10074WAT     H141016   2.538   3.118   0.042  1.4459  0.7233  0.9680
10074WAT     H241017   2.539   3.078   0.173 -0.6895 -2.3756  0.1355
10074WAT    EPW41018   2.510   3.074   0.100 -0.2249  0.0510 -0.2655
10075WAT      O41019   2.071   4.455   5.343 -0.6966  0.2929  0.0775
10075WAT     H141020   2.119   4.491   5.406 -0.4250 -2.7350  1.7420
10075WAT     H241021   2.126   4.399   5.305 -1.6559  0.0779 -1.0469
10075WAT    EPW41022   2.086   4.452   5.346 -0.7982 -0.1862  0.1573
10076WAT      O41023   7.032   1.603   1.606 -0.0395  0.2638  0.4554
10076WAT     H141024   7.020   1.688   1.620  1.3026  0.4654  0.4740
10076WAT     H241025   7.087   1.600   1.538 -1.9481 -0.6507 -1.1367
10076WAT    EPW41026   7.038   1.615   1.598 -0.1232  0.1585  0.2229
10077WAT      O41027   3.524   6.101   2.497 -0.4502  0.6264  0.1222
10077WAT     H141028   3.529   6.025   2.540  0.9550 -0.0751 -1.2047
10077WAT     H241029   3.439   6.109   2.480 -0.6845 -0.3842  0.7363
10077WAT    EPW41030   3.512   6.091   2.501 -0.2773  0.3735  0.0169
10078WAT      O41031   0.295   6.759   0.240 -0.5110  0.2718 -0.4314
10078WAT     H141032   0.266   6.678   0.256 -0.7272  0.3894 -0.2289
10078WAT     H241033   0.374   6.746   0.207 -1.1417 -0.1083 -1.8829
10078WAT    EPW41034   0.302   6.745   0.237 -0.6361  0.2331 -0.6159
10079WAT      O41035   3.378   3.428   3.757  0.2963 -0.2771 -0.2977
10079WAT     H141036   3.395   3.353   3.798 -1.6272 -0.8844 -0.5100
10079WAT     H241037   3.341   3.403   3.682 -2.4142  0.8284  0.5425
10079WAT    EPW41038   3.375   3.413   3.752 -0.3882 -0.2035 -0.2049
10080WAT      O41039   5.191   3.271   3.192  0.0943  0.1281 -0.6367
10080WAT     H141040   5.150   3.263   3.269  0.7366  1.8698 -0.0711
10080WAT     H241041   5.252   3.210   3.194 -1.1471 -1.1783 -0.6480
10080WAT    EPW41042   5.194   3.261   3.203  0.0058  0.1924 -0.5548
10081WAT      O41043   7.225   4.004   4.267  0.1518  0.0236 -0.1689
10081WAT     H141044   7.268   3.976   4.196  0.6523  0.6217 -0.1041
10081WAT     H241045   7.141   3.986   4.248 -0.0225  2.2162 -1.9376
10081WAT    EPW41046   7.219   3.997   4.253  0.2000  0.4358 -0.4206
10082WAT      O41047   2.120   6.494   0.559  0.0291 -0.1225  0.0792
10082WAT     H141048   2.064   6.539   0.510 -1.5817 -2.3181 -0.2484
10082WAT     H241049   2.102   6.411   0.539  2.4942 -0.9584  1.0083
10082WAT    EPW41050   2.109   6.488   0.549  0.1553 -0.5704  0.1680
10083WAT      O41051   1.349   0.803   1.680 -0.1773  0.1739 -0.1961
10083WAT     H141052   1.403   0.797   1.612 -1.4411  1.3645 -1.3726
10083WAT     H241053   1.402   0.820   1.747  1.1767 -1.7628 -0.7070
10083WAT    EPW41054   1.365   0.805   1.680 -0.1640  0.0637 -0.4454
10084WAT      O41055   7.236   6.633   4.024 -0.3266  0.4646  0.0288
10084WAT     H141056   7.314   6.626   3.985 -0.4553  1.6990 -0.4787
10084WAT     H241057   7.257   6.642   4.109  0.0243 -0.2726  0.0350
10084WAT    EPW41058   7.251   6.633   4.031 -0.2938  0.5380 -0.0453
10085WAT      O41059   6.492   0.774   2.947  0.2505  0.1520 -0.1348
10085WAT     H141060   6.426   0.758   2.892  0.5413  0.8724 -0.7065
10085WAT     H241061   6.557   0.724   2.917 -0.4421 -1.6874  1.2950
10085WAT    EPW41062   6.492   0.764   2.935  0.1911 -0.0133 -0.0080
10086WAT      O41063   1.829   3.287   0.881  0.0172  0.4006  0.1204
10086WAT     H141064   1.780   3.215   0.873  0.9913 -0.4054  1.0325
10086WAT     H241065   1.789   3.331   0.945  1.0694 -0.8470  1.7440
10086WAT    EPW41066   1.816   3.283   0.889  0.3165  0.0972  0.4950
10087WAT      O41067   1.587   5.854   2.121 -0.0120  0.9303 -0.0381
10087WAT     H141068   1.542   5.832   2.050 -0.4206 -0.8854  0.7369
10087WAT     H241069   1.669   5.864   2.092  0.1891 -1.6123 -0.5201
10087WAT    EPW41070   1.593   5.852   2.106 -0.0426  0.2865  0.0052
10088WAT      O41071   2.663   4.301   3.188  0.3293  0.1060 -0.0120
10088WAT     H141072   2.657   4.219   3.217 -1.0537  0.0145 -0.4896
10088WAT     H241073   2.659   4.348   3.262 -0.3218 -0.2176  0.1699
10088WAT    EPW41074   2.661   4.296   3.203  0.0288  0.0447 -0.0557
10089WAT      O41075   3.859   6.748   2.026  0.3217  0.1087  0.3333
10089WAT     H141076   3.932   6.776   2.064  1.2708 -1.3175 -0.3753
10089WAT     H241077   3.825   6.821   1.991  0.6738  1.0201  1.7824
10089WAT    EPW41078   3.864   6.763   2.027  0.5140  0.0326  0.4427
10090WAT      O41079   4.519   1.024   3.210 -0.1992  0.0979  0.1175
10090WAT     H141080   4.439   0.999   3.186 -0.4415  1.2690 -0.3342
10090WAT     H241081   4.507   1.105   3.241  0.4905 -0.4476  1.9321
10090WAT    EPW41082   4.505   1.032   3.211 -0.1331  0.1903  0.3188
10091WAT      O41083   6.700   2.142   2.756  0.1281  0.1988  0.4026
10091WAT     H141084   6.704   2.182   2.834  0.9660  0.6360  0.1414
10091WAT     H241085   6.760   2.079   2.762  0.2164  0.2543  0.0988
10091WAT    EPW41086   6.709   2.139   2.769  0.2649  0.2715  0.3191
10092WAT      O41087   3.596   0.207   0.054 -0.0170 -0.0939  0.1735
10092WAT     H141088   3.533   0.266   0.067  1.2507  1.4071 -0.2232
10092WAT     H241089   3.552   0.133   0.044 -1.7482  0.9268 -0.2957
10092WAT    EPW41090   3.580   0.205   0.055 -0.0855  0.2786  0.0456
10093WAT      O41091   2.445   6.839   6.837 -0.2508  0.1158 -0.7104
10093WAT     H141092   2.487   6.787   6.893 -0.0652  1.1848  0.1891
10093WAT     H241093   2.412   6.784   6.779 -0.3320 -1.0405  0.3825
10093WAT    EPW41094   2.446   6.823   6.837 -0.2354  0.1029 -0.4161
10094WAT      O41095   4.858   0.705   1.884 -1.0478 -0.2722 -0.5111
10094WAT     H141096   4.806   0.700   1.814  0.3887 -0.7133 -1.5859
10094WAT     H241097   4.938   0.695   1.852 -0.4179 -2.1700  1.3645
10094WAT    EPW41098   4.862   0.703   1.869 -0.7425 -0.6177 -0.3928
10095WAT      O41099   4.247   0.122   1.202 -0.3753  0.1369 -0.0458
10095WAT     H141100   4.273   0.040   1.214  0.5692  0.5367  0.7491
10095WAT     H241101   4.322   0.166   1.190 -0.7761  1.0587  0.6706
10095WAT    EPW41102   4.262   0.117   1.202 -0.2950  0.3322  0.1774
10096WAT      O41103   1.362   6.241   5.433 -0.0396 -0.0613 -0.7846
10096WAT     H141104   1.446   6.221   5.422 -0.1549 -1.1184  0.1599
10096WAT     H241105   1.362   6.329   5.430  1.3852  0.0625  0.9710
10096WAT    EPW41106   1.374   6.251   5.431  0.1538 -0.1992 -0.3857
10097WAT      O41107   0.362   0.990   2.974  0.2653  0.1729 -0.0680
10097WAT     H141108   0.377   1.040   3.044  0.9296 -0.9757  0.6499
10097WAT     H241109   0.275   0.983   2.972  0.1454  1.5305 -0.3293
10097WAT    EPW41110   0.351   0.996   2.984  0.3457  0.2037 -0.0005
10098WAT      O41111   4.810   4.576   7.066  0.0541 -0.2355  0.1428
10098WAT     H141112   4.876   4.597   7.012 -1.5064  0.0411 -1.7286
10098WAT     H241113   4.841   4.507   7.110  2.0640  0.6723  0.2850
10098WAT    EPW41114   4.825   4.569   7.065  0.1205 -0.0605 -0.1127
10099WAT      O41115   1.965   2.012   1.574 -0.6402  0.1373 -0.2611
10099WAT     H141116   2.028   1.952   1.581  0.5470  1.4525  1.1661
10099WAT     H241117   1.910   1.991   1.638  0.2482  1.0203  0.8479
10099WAT    EPW41118   1.966   2.000   1.585 -0.3336  0.4620  0.1136
10100WAT      O41119   6.529   3.055   1.396 -0.2171  0.0359  0.3519
10100WAT     H141120   6.442   3.048   1.401 -0.0430 -1.9288  2.0948
10100WAT     H241121   6.552   2.984   1.351  0.4066  2.1233 -2.9770
10100WAT    EPW41122   6.519   3.044   1.390 -0.0993  0.0540  0.1176
10101WAT      O41123   0.382   5.477   3.877 -0.2358  0.8479 -0.2316
10101WAT     H141124   0.299   5.494   3.857 -0.4226  1.8739  1.2370
10101WAT     H241125   0.424   5.491   3.802 -1.2261  1.5979 -0.6773
10101WAT    EPW41126   0.376   5.482   3.863 -0.4097  1.1103 -0.0805
10102WAT      O41127   1.962   3.747   5.226 -0.4112 -0.1376 -0.3551
10102WAT     H141128   2.032   3.715   5.267  0.3316  1.4319 -0.3295
10102WAT     H241129   1.914   3.677   5.210  1.0350 -1.2262 -0.1119
10102WAT    EPW41130   1.965   3.732   5.230 -0.0878 -0.0666 -0.3154
10103WAT      O41131   4.117   2.859   5.260 -0.3162  0.4775 -0.5203
10103WAT     H141132   4.166   2.852   5.188  0.8827  0.2586  0.2926
10103WAT     H241133   4.174   2.849   5.325 -1.2621  1.3732  0.4860
10103WAT    EPW41134   4.133   2.857   5.259 -0.2788  0.5775 -0.2516
10104WAT      O41135   4.413   0.363   1.717  0.0463  0.3876  0.2246
10104WAT     H141136   4.378   0.432   1.679 -0.3260  0.4089  0.5993
10104WAT     H241137   4.393   0.373   1.802 -1.8746 -1.2480  0.0480
10104WAT    EPW41138   4.405   0.375   1.724 -0.2924  0.1491  0.2538
10105WAT      O41139   5.409   0.309   2.646 -0.5123 -0.5283 -0.3312
10105WAT     H141140   5.378   0.368   2.702 -1.4305  0.3938 -1.7684
10105WAT     H241141   5.453   0.254   2.698  2.0508  2.4043  0.9340
10105WAT    EPW41142   5.411   0.309   2.662 -0.2693  0.0411 -0.3566
10106WAT      O41143   6.298   1.241   5.390 -0.1928 -0.0743  0.8900
10106WAT     H141144   6.240   1.234   5.325  0.0069  0.7187  0.6099
10106WAT     H241145   6.256   1.208   5.459 -0.5970 -0.4598  0.4642
10106WAT    EPW41146   6.283   1.235   5.390 -0.2230 -0.0141  0.7857
10107WAT      O41147   7.093   6.961   5.936  0.2038 -0.1086  1.0267
10107WAT     H141148   7.102   7.019   6.000  0.5678  1.0305  0.0036
10107WAT     H241149   7.146   6.896   5.959  1.0620  0.7090  1.4155
10107WAT    EPW41150   7.102   6.960   5.949  0.3844  0.1805  0.9330
10108WAT      O41151   0.505   5.193   0.369  0.2860 -0.3306  0.8915
10108WAT     H141152   0.512   5.249   0.435 -0.3134 -0.9810  1.5354
10108WAT     H241153   0.419   5.187   0.356  0.3739 -0.6135  0.4088
10108WAT    EPW41154   0.493   5.200   0.377  0.2104 -0.4685  0.9153
10109WAT      O41155   1.793   5.788   4.384 -0.0267  0.1110  0.5720
10109WAT     H141156   1.738   5.838   4.338 -0.5469  0.8396  1.9488
10109WAT     H241157   1.741   5.730   4.423  0.4233 -0.5486  0.2187
10109WAT    EPW41158   1.777   5.787   4.383 -0.0371  0.1212  0.7232
10110WAT      O41159   0.811   3.928   2.831  0.0763 -0.0238  0.5623
10110WAT     H141160   0.819   4.015   2.825  1.2406 -0.1904 -0.8821
10110WAT     H241161   0.893   3.900   2.827 -0.3783 -1.3384 -2.7105
10110WAT    EPW41162   0.824   3.937   2.830  0.1812 -0.2426 -0.1345
10111WAT      O41163   2.427   4.408   1.988 -0.1615  0.0891 -0.7705
10111WAT     H141164   2.425   4.326   2.018 -1.0705  0.1975 -0.4874
10111WAT     H241165   2.447   4.455   2.059  1.1319  0.0559 -1.0984
10111WAT    EPW41166   2.430   4.403   2.003 -0.1047  0.1002 -0.7771
10112WAT      O41167   3.463   6.668   1.586  0.3192 -0.6429 -0.4555
10112WAT     H141168   3.457   6.607   1.523 -0.5122 -0.0567 -0.9765
10112WAT     H241169   3.382   6.701   1.588  0.4784 -0.3142  0.5908
10112WAT    EPW41170   3.450   6.664   1.577  0.2199 -0.5077 -0.3779
10113WAT      O41171   5.994   0.342   0.181 -0.3432 -0.3104 -0.6291
10113WAT     H141172   5.926   0.312   0.135  0.4731 -1.9773 -0.8310
10113WAT     H241173   6.042   0.384   0.122 -0.8772  0.3316 -0.6149
10113WAT    EPW41174   5.991   0.344   0.165 -0.3015 -0.4618 -0.6568
10114WAT      O41175   3.508   5.121   0.409 -0.1856 -0.8602 -0.4285
10114WAT     H141176   3.493   5.053   0.356  2.1658  0.4782 -3.0345
10114WAT     H241177   3.485   5.190   0.361 -1.2182  0.3441  1.6519
10114WAT    EPW41178   3.502   5.121   0.394  0.0092 -0.4846 -0.5062
10115WAT      O41179   7.266   1.022   3.923  0.3021 -0.3441  0.5169
10115WAT     H141180   7.313   1.094   3.905 -0.4596  0.2556  0.8645
10115WAT     H241181   7.281   0.971   3.854  0.5626  0.3102  0.0725
10115WAT    EPW41182   7.275   1.025   3.910  0.2281 -0.1589  0.5026
10116WAT      O41183   7.076   5.240   4.731  0.2352  0.2236  0.0773
10116WAT     H141184   7.052   5.255   4.814  1.4201 -0.8328  0.6405
10116WAT     H241185   7.154   5.279   4.725  0.2112  0.1846 -0.5112
10116WAT    EPW41186   7.084   5.248   4.742  0.4067  0.0618  0.0736
10117WAT      O41187   3.834   5.573   1.866  0.0416  0.0110 -0.1164
10117WAT     H141188   3.827   5.651   1.905 -0.1944 -0.1506  0.1635
10117WAT     H241189   3.809   5.517   1.927 -0.5166 -0.2288 -0.5562
10117WAT    EPW41190   3.830   5.576   1.881 -0.0757 -0.0483 -0.1400
10118WAT      O41191   2.270   2.297   2.989  0.0846  0.3358 -0.0456
10118WAT     H141192   2.202   2.262   3.031 -1.3301  1.2718 -1.4430
10118WAT     H241193   2.326   2.315   3.053 -0.2598 -1.9180  0.9988
10118WAT    EPW41194   2.268   2.295   3.004 -0.1752  0.1411 -0.0978
10119WAT      O41195   5.642   1.394   3.729 -0.1348  0.3294 -0.1831
10119WAT     H141196   5.610   1.444   3.792  0.3604  0.0371  0.3145
10119WAT     H241197   5.602   1.422   3.657 -2.8671 -1.1620  0.6195
10119WAT    EPW41198   5.632   1.405   3.727 -0.4653  0.0659  0.0090
10120WAT      O41199   2.653   6.811   2.852 -0.0041 -0.2667 -0.3739
10120WAT     H141200   2.607   6.737   2.857 -0.6679  0.1754  0.0940
10120WAT     H241201   2.598   6.868   2.816  0.2925  0.1755 -0.1390
10120WAT    EPW41202   2.638   6.809   2.847 -0.0583 -0.1361 -0.2701
10121WAT      O41203   3.332   3.526   2.148  0.7579  0.5564  0.0722
10121WAT     H141204   3.387   3.589   2.121  0.9503  0.1241 -0.5753
10121WAT     H241205   3.373   3.492   2.217  0.6261  1.1768  0.4597
10121WAT    EPW41206   3.346   3.530   2.154  0.7668  0.5842  0.0338
10122WAT      O41207   6.329   4.433   1.326  0.1842  0.4444  0.2373
10122WAT     H141208   6.391   4.372   1.321 -1.4987 -1.3812  0.3707
10122WAT     H241209   6.346   4.474   1.402 -0.6930 -2.3430  2.0962
10122WAT    EPW41210   6.340   4.430   1.337 -0.1940 -0.2370  0.5316
10123WAT      O41211   3.393   3.839   5.699 -0.2780 -0.3677 -0.2218
10123WAT     H141212   3.322   3.792   5.718 -0.2127 -1.5404 -2.5235
10123WAT     H241213   3.378   3.868   5.618  1.8546 -0.7098 -0.8159
10123WAT    EPW41214   3.380   3.836   5.690  0.0467 -0.5915 -0.6496
10124WAT      O41215   6.560   0.271   4.406 -0.4671 -0.1720  0.2249
10124WAT     H141216   6.473   0.260   4.405 -0.9153  2.4708  1.6874
10124WAT     H241217   6.578   0.295   4.324 -1.1172 -0.7075 -0.0883
10124WAT    EPW41218   6.550   0.273   4.394 -0.6293  0.1393  0.3947
10125WAT      O41219   5.685   1.857   0.291 -0.1987  0.3657 -0.1165
10125WAT     H141220   5.737   1.894   0.351 -1.0768  0.1185  0.8218
10125WAT     H241221   5.695   1.909   0.222  0.6306  0.8212  0.3188
10125WAT    EPW41222   5.694   1.870   0.290 -0.2059  0.3965  0.0864
10126WAT      O41223   4.152   2.286   5.155  0.5342  0.1126  0.0938
10126WAT     H141224   4.154   2.364   5.195 -0.8492 -0.0655  0.5408
10126WAT     H241225   4.210   2.239   5.201  1.5888  0.9228 -0.3511
10126WAT    EPW41226   4.161   2.291   5.168  0.4856  0.2060  0.0941
10127WAT      O41227   1.061   1.031   5.256 -0.4322 -0.3140 -0.7787
10127WAT     H141228   1.065   1.098   5.200  0.1206 -0.6368 -1.1395
10127WAT     H241229   1.110   1.058   5.323 -1.2658  0.1584 -0.3451
10127WAT    EPW41230   1.069   1.045   5.258 -0.4737 -0.2919 -0.7679
10128WAT      O41231   5.642   0.556   6.125  0.1805  0.3516  0.3695
10128WAT     H141232   5.666   0.477   6.095 -1.5626  0.3553 -1.2141
10128WAT     H241233   5.597   0.537   6.197 -0.9503 -0.2189 -0.4526
10128WAT    EPW41234   5.639   0.542   6.131 -0.2440  0.2678  0.0141
10129WAT      O41235   1.837   6.782   3.142 -0.4061  0.7072 -0.3787
10129WAT     H141236   1.799   6.705   3.161 -0.9397  0.8345 -0.8663
10129WAT     H241237   1.787   6.840   3.183  0.1114  0.7817  0.1461
10129WAT    EPW41238   1.824   6.779   3.151 -0.4085  0.7370 -0.3732
10130WAT      O41239   1.090   2.750   6.794 -0.2825  0.3012 -0.0633
10130WAT     H141240   1.136   2.818   6.825 -0.0009  0.3330 -0.5398
10130WAT     H241241   1.084   2.697   6.862 -0.3779  0.7384  0.2765
10130WAT    EPW41242   1.096   2.753   6.808 -0.2550  0.3705 -0.0835
10131WAT      O41243   5.444   5.198   2.334  0.6889  0.0026  0.3953
10131WAT     H141244   5.472   5.169   2.411  0.5503 -0.8170  0.1514
10131WAT     H241245   5.406   5.128   2.298 -2.6345  1.2204  1.1324
10131WAT    EPW41246   5.442   5.183   2.340  0.1775  0.0614  0.4682
10132WAT      O41247   2.996   0.669   6.425  0.4113  0.5349 -0.0064
10132WAT     H141248   3.064   0.614   6.430 -0.1521 -0.1141  0.8862
10132WAT     H241249   2.989   0.686   6.340  2.4813  1.6341 -0.0268
10132WAT    EPW41250   3.005   0.663   6.413  0.6338  0.6014  0.1225
10133WAT      O41251   0.770   1.153   3.532 -0.5334 -0.1489 -0.0025
10133WAT     H141252   0.775   1.237   3.557  0.7081 -0.2260  0.0629
10133WAT     H241253   0.730   1.114   3.599 -2.3649  0.5797 -0.5910
10133WAT    EPW41254   0.765   1.160   3.546 -0.6206 -0.0526 -0.0798
10134WAT      O41255   7.121   2.177   2.238 -0.3750 -0.7102 -0.2183
10134WAT     H141256   7.126   2.186   2.151  0.2064  0.7322 -0.0597
10134WAT     H241257   7.047   2.132   2.249 -1.2992  0.4183 -1.4012
10134WAT    EPW41258   7.110   2.172   2.227 -0.4256 -0.3304 -0.3696
10135WAT      O41259   6.176   1.672   2.625  0.2340 -0.7774 -0.0041
10135WAT     H141260   6.186   1.591   2.657 -0.2834 -0.5616  0.7270
10135WAT     H241261   6.093   1.674   2.599  0.7686 -1.1133 -1.8980
10135WAT    EPW41262   6.166   1.660   2.626  0.2365 -0.7951 -0.1758
10136WAT      O41263   2.803   1.237   2.449 -0.1012 -0.0648  0.3684
10136WAT     H141264   2.717   1.234   2.442 -0.3461 -1.9079  2.9193
10136WAT     H241265   2.816   1.306   2.502  0.0967  0.6320 -0.5542
10136WAT    EPW41266   2.792   1.247   2.456 -0.1082 -0.2342  0.6090
10137WAT      O41267   3.541   2.046   4.020 -0.1740 -0.4270  0.1179
10137WAT     H141268   3.506   2.062   4.098  1.6058 -0.3469  0.9607
10137WAT     H241269   3.597   1.980   4.036  2.6173  1.6548 -0.3109
10137WAT    EPW41270   3.544   2.039   4.034  0.5012 -0.1076  0.1790
10138WAT      O41271   6.225   3.645   5.876  0.0883 -0.4236  0.6622
10138WAT     H141272   6.146   3.650   5.839 -0.8519 -2.3380  2.2630
10138WAT     H241273   6.241   3.560   5.879  1.3646 -0.1732  2.0825
10138WAT    EPW41274   6.216   3.633   5.871  0.1379 -0.6694  1.1085
10139WAT      O41275   5.612   1.448   6.329  0.5506 -0.0098 -0.4087
10139WAT     H141276   5.626   1.517   6.278 -1.5039  0.8960  0.1611
10139WAT     H241277   5.569   1.393   6.277 -1.0148  0.6723  0.0933
10139WAT    EPW41278   5.608   1.450   6.314  0.0159  0.2248 -0.2503
10140WAT      O41279   5.493   2.586   5.683 -0.2837 -0.5293 -0.0589
10140WAT     H141280   5.503   2.592   5.769 -1.3188 -0.1780  0.0525
10140WAT     H241281   5.418   2.543   5.674 -2.2863  2.7031 -0.6846
10140WAT    EPW41282   5.483   2.581   5.694 -0.7324  0.0001 -0.1349
10141WAT      O41283   6.827   5.733   6.839 -0.0544  0.0522 -0.3787
10141WAT     H141284   6.787   5.676   6.787  1.7819 -0.6932 -1.0783
10141WAT     H241285   6.884   5.684   6.883 -0.4489  0.9336  1.1828
10141WAT    EPW41286   6.830   5.718   6.838  0.1586  0.0723 -0.2514
10142WAT      O41287   0.719   3.497   4.938 -0.6346 -0.3665  0.5363
10142WAT     H141288   0.751   3.568   4.898 -1.0016  0.0869  1.0337
10142WAT     H241289   0.638   3.490   4.906 -0.8735 -0.0981  1.0709
10142WAT    EPW41290   0.711   3.506   4.927 -0.7241 -0.2599  0.6888
10143WAT      O41291   0.733   5.356   3.559  0.3012 -0.2879 -0.1155
10143WAT     H141292   0.716   5.390   3.480 -0.2255  0.6254  0.3778
10143WAT     H241293   0.692   5.279   3.556 -0.5273  0.1463 -0.4104
10143WAT    EPW41294   0.724   5.349   3.547  0.1010 -0.0888 -0.0862
10144WAT      O41295   6.512   0.155   5.988 -0.1450  0.4144 -0.9598
10144WAT     H141296   6.468   0.092   5.946 -0.0344 -0.0666 -0.3588
10144WAT     H241297   6.456   0.222   5.987 -1.1588 -0.3723  0.3298
10144WAT    EPW41298   6.497   0.155   5.981 -0.2784  0.2271 -0.6805
10145WAT      O41299   1.577   2.441   0.283  0.5008 -0.3482 -0.2464
10145WAT     H141300   1.639   2.449   0.344 -1.8402  0.4931  2.1866
10145WAT     H241301   1.588   2.511   0.232  1.3909 -0.1088  0.2610
10145WAT    EPW41302   1.588   2.452   0.284  0.2865 -0.1886  0.1880
10146WAT      O41303   5.685   2.820   4.682  0.2501  0.1052  0.3566
10146WAT     H141304   5.715   2.761   4.739 -1.1039 -0.5251  0.4606
10146WAT     H241305   5.722   2.894   4.708  2.3427 -0.7274 -0.0343
10146WAT    EPW41306   5.695   2.822   4.695  0.3592 -0.1109  0.3142
10147WAT      O41307   5.748   2.443   0.817  0.6270  0.5913 -0.2770
10147WAT     H141308   5.716   2.362   0.821  2.1048  0.0308  2.0685
10147WAT     H241309   5.702   2.487   0.876  0.1295  1.4084 -1.2301
10147WAT    EPW41310   5.737   2.438   0.826  0.7718  0.6292 -0.0713
10148WAT      O41311   0.862   6.116   0.684 -0.2222  0.4014 -0.2762
10148WAT     H141312   0.888   6.064   0.619 -2.3766 -0.8611 -0.2125
10148WAT     H241313   0.880   6.070   0.756  0.5611  1.0598 -0.0270
10148WAT    EPW41314   0.868   6.101   0.685 -0.4247  0.3122 -0.2300
10149WAT      O41315   3.472   6.200   6.671  0.4843 -0.2557  0.5139
10149WAT     H141316   3.499   6.251   6.736 -1.6241 -1.2574  2.3089
10149WAT     H241317   3.397   6.167   6.701 -0.6257 -0.7407 -2.4623
10149WAT    EPW41318   3.465   6.202   6.685  0.0089 -0.4754  0.3394
10150WAT      O41319   5.177   1.131   4.462  0.1325 -0.0045  0.6292
10150WAT     H141320   5.125   1.136   4.532 -2.7871  1.0072 -1.4118
10150WAT     H241321   5.150   1.060   4.421  1.5951 -0.4154  0.2986
10150WAT    EPW41322   5.166   1.122   4.467 -0.0827  0.0842  0.2788
10151WAT      O41323   4.716   4.493   5.671 -0.5098  0.1286  0.4081
10151WAT     H141324   4.736   4.527   5.593 -1.3384 -3.0047 -1.3788
10151WAT     H241325   4.751   4.548   5.728  0.6871  2.2661 -2.1853
10151WAT    EPW41326   4.724   4.506   5.668 -0.4554 -0.0185 -0.2389
10152WAT      O41327   6.958   2.680   6.615 -0.5964  0.3267  0.2290
10152WAT     H141328   6.987   2.751   6.657  0.0056 -0.8157  1.8587
10152WAT     H241329   6.964   2.702   6.531  1.3728  1.5376  0.6224
10152WAT    EPW41330   6.963   2.694   6.609 -0.2166  0.3368  0.5279
10153WAT      O41331   2.610   7.185   2.725  0.5218 -0.1956  0.2461
10153WAT     H141332   2.597   7.175   2.639  0.1376  0.9586  0.1559
10153WAT     H241333   2.695   7.206   2.730  0.7550 -1.0911  0.2370
10153WAT    EPW41334   2.621   7.187   2.713  0.4995 -0.1574  0.2314
10154WAT      O41335   5.276   6.287   4.992 -0.0994 -0.9823  0.4355
10154WAT     H141336   5.310   6.342   4.933 -2.2752 -0.7274 -0.6647
10154WAT     H241337   5.240   6.340   5.051  0.2436 -1.2495  0.8927
10154WAT    EPW41338   5.276   6.303   4.992 -0.3701 -0.9841  0.3405
10155WAT      O41339   5.350   5.007   6.039 -0.2365 -0.0645  0.1160
10155WAT     H141340   5.377   4.924   6.040  3.2475  0.9163 -0.5935
10155WAT     H241341   5.323   5.019   5.957 -0.9919 -0.5286  0.2868
10155WAT    EPW41342   5.350   4.997   6.027  0.1666  0.0118  0.0364
10156WAT      O41343   3.576   6.409   0.259 -0.4337  0.1132 -0.1051
10156WAT     H141344   3.649   6.380   0.220 -0.2477  0.5028 -0.0553
10156WAT     H241345   3.581   6.375   0.339  0.5953  1.5373  0.4869
10156WAT    EPW41346   3.588   6.400   0.265 -0.2543  0.3811 -0.0103
10157WAT      O41347   4.969   7.195   5.390  0.1231  0.3190  0.4446
10157WAT     H141348   5.042   7.156   5.417 -0.0319 -0.6671 -0.4755
10157WAT     H241349   4.998   7.254   5.332  0.3957  1.9619  2.1502
10157WAT    EPW41350   4.984   7.198   5.385  0.1405  0.4160  0.5607
10158WAT      O41351   0.002   5.728   4.026 -0.4719  0.1140  0.2805
10158WAT     H141352   0.051   5.796   4.000 -1.5954 -0.1267 -2.9930
10158WAT     H241353   0.033   5.662   3.978  0.4285 -1.7616  3.1948
10158WAT    EPW41354   0.014   5.728   4.015 -0.5049 -0.1986  0.2275
10159WAT      O41355   1.138   6.398   4.195 -0.3456  0.3265  0.0121
10159WAT     H141356   1.055   6.391   4.219 -0.8864 -0.0821 -1.7907
10159WAT     H241357   1.133   6.424   4.112  1.3509  1.2293  0.1362
10159WAT    EPW41358   1.125   6.401   4.186 -0.1749  0.3995 -0.2359
10160WAT      O41359   5.182   2.146   2.975 -0.3903 -0.1817 -0.4530
10160WAT     H141360   5.195   2.107   2.898 -0.3335  0.5835 -0.8368
10160WAT     H241361   5.262   2.154   3.008 -0.3360  0.1926 -0.6680
10160WAT    EPW41362   5.196   2.141   2.968 -0.3739 -0.0134 -0.5414
10161WAT      O41363   3.953   1.753   2.143 -0.2503  0.1670  0.0632
10161WAT     H141364   3.958   1.837   2.166  1.2605 -0.5288  2.8041
10161WAT     H241365   4.013   1.745   2.081  0.2005  0.9867  0.3749
10161WAT    EPW41366   3.963   1.764   2.137  0.0395  0.1853  0.5141
10162WAT      O41367   3.464   1.058   3.310 -0.0056 -0.3544  0.7577
10162WAT     H141368   3.392   1.106   3.325  1.0152  0.8373  2.0799
10162WAT     H241369   3.465   1.052   3.223 -1.4090  0.0815  0.6768
10162WAT    EPW41370   3.454   1.064   3.299 -0.0621 -0.1140  0.9411
10163WAT      O41371   4.414   2.637   2.818  0.2093  0.7424 -0.5409
10163WAT     H141372   4.413   2.550   2.810  0.0011  0.6978 -0.0551
10163WAT     H241373   4.462   2.663   2.750 -1.6809  0.4004 -2.1310
10163WAT    EPW41374   4.421   2.628   2.807 -0.1007  0.6853 -0.7041
10164WAT      O41375   2.670   2.246   3.019 -0.3023  0.2805  0.0604
10164WAT     H141376   2.658   2.331   3.038  0.4231  0.5043 -0.4499
10164WAT     H241377   2.695   2.248   2.936 -2.0491 -0.5702 -0.5392
10164WAT    EPW41378   2.672   2.259   3.009 -0.4532  0.1879 -0.1036
10165WAT      O41379   7.222   6.625   6.255  0.0449 -0.3092  0.3890
10165WAT     H141380   7.147   6.588   6.231 -0.0412 -0.3720  0.7470
10165WAT     H241381   7.237   6.684   6.193  0.5817 -1.4645 -0.6164
10165WAT    EPW41382   7.213   6.628   6.242  0.1115 -0.4892  0.2934
10166WAT      O41383   7.028   0.894   0.512  0.5781  0.1219 -0.2271
10166WAT     H141384   6.941   0.888   0.511  0.6691 -1.8873 -1.5505
10166WAT     H241385   7.043   0.974   0.481 -0.7971 -0.4906 -2.7388
10166WAT    EPW41386   7.017   0.905   0.507  0.3884 -0.2653 -0.7936
10167WAT      O41387   1.146   5.854   0.488 -0.2789  0.0619 -0.2339
10167WAT     H141388   1.133   5.805   0.559  0.5409 -0.3147 -0.3226
10167WAT     H241389   1.155   5.795   0.424  2.1083  0.1885 -0.1236
10167WAT    EPW41390   1.146   5.838   0.489  0.1948  0.0250 -0.2307
10168WAT      O41391   1.973   2.644   6.813 -0.5400 -0.0824 -0.0659
10168WAT     H141392   1.921   2.583   6.848 -1.2257  0.4151 -0.1980
10168WAT     H241393   2.052   2.624   6.845 -1.0964  0.2128  1.5711
10168WAT    EPW41394   1.977   2.632   6.823 -0.7235  0.0347  0.1564
10169WAT      O41395   3.652   1.558   5.278  0.5474 -1.0436  0.1060
10169WAT     H141396   3.604   1.631   5.272 -0.6519 -1.5397  2.5695
10169WAT     H241397   3.734   1.587   5.272  0.0630  0.2735 -0.6330
10169WAT    EPW41398   3.657   1.573   5.276  0.2987 -0.9223  0.3608
10170WAT      O41399   1.904   0.264   5.894 -0.4369  0.0482 -0.4228
10170WAT     H141400   1.917   0.268   5.980  0.7370 -0.3820 -0.5639
10170WAT     H241401   1.839   0.321   5.880  0.4091  1.2910  0.5525
10170WAT    EPW41402   1.896   0.273   5.904 -0.1385  0.1682 -0.2996
10171WAT      O41403   2.308   5.461   1.872  0.2708  0.3663  0.3216
10171WAT     H141404   2.379   5.410   1.869  1.8398  2.4804 -0.1033
10171WAT     H241405   2.300   5.480   1.957 -0.5097 -0.7413  0.5292
10171WAT    EPW41406   2.317   5.456   1.884  0.3873  0.5150  0.2895
10172WAT      O41407   4.654   6.556   2.165 -0.5828  0.1661 -0.1555
10172WAT     H141408   4.698   6.549   2.090 -1.2179 -0.1488 -0.5135
10172WAT     H241409   4.573   6.530   2.143 -0.9447  0.7138  0.4812
10172WAT    EPW41410   4.648   6.551   2.151 -0.7301  0.2005 -0.1144
10173WAT      O41411   3.552   5.485   5.419 -0.4885 -0.3940  0.2411
10173WAT     H141412   3.578   5.424   5.362 -0.9915 -1.8749  1.5144
10173WAT     H241413   3.619   5.541   5.421  0.1112 -1.0381 -0.7687
10173WAT    EPW41414   3.566   5.484   5.411 -0.4742 -0.7079  0.2800
10174WAT      O41415   2.987   3.331   1.537  0.3262  0.0160  0.1995
10174WAT     H141416   3.048   3.328   1.475  1.8798  0.3707  1.6504
10174WAT     H241417   2.967   3.247   1.551 -0.1735 -0.0597 -0.8648
10174WAT    EPW41418   2.993   3.318   1.530  0.4819  0.0572  0.2566
10175WAT      O41419   6.742   0.554   6.871 -0.0401  0.5749  0.5231
10175WAT     H141420   6.684   0.501   6.910 -0.1794  0.5754  0.3182
10175WAT     H241421   6.762   0.611   6.934  0.7904 -0.2436  1.0237
10175WAT    EPW41422   6.736   0.555   6.886  0.0620  0.4541  0.5668
10176WAT      O41423   1.802   3.202   6.519  0.1244 -0.7480 -0.1330
10176WAT     H141424   1.728   3.167   6.488 -1.2386  0.4505  1.5686
10176WAT     H241425   1.814   3.160   6.594 -0.7155  1.2593  1.2097
10176WAT    EPW41426   1.793   3.190   6.526 -0.2010 -0.2744  0.3167
10177WAT      O41427   1.028   4.457   6.766  0.2853 -0.3697  0.5886
10177WAT     H141428   1.049   4.512   6.701 -0.6110 -0.3683  0.2762
10177WAT     H241429   1.096   4.461   6.820  1.4563 -1.0476 -0.7902
10177WAT    EPW41430   1.041   4.466   6.764  0.3259 -0.4696  0.3388
10178WAT      O41431   5.624   6.625   3.364 -0.2588  0.0607 -0.0819
10178WAT     H141432   5.623   6.664   3.442  0.0197 -0.8617  0.4002
10178WAT     H241433   5.562   6.666   3.319  0.8481  1.9184 -0.0383
10178WAT    EPW41434   5.615   6.637   3.369 -0.0542  0.1988 -0.0042
10179WAT      O41435   4.431   0.883   6.905 -0.5228 -0.1908  0.3074
10179WAT     H141436   4.434   0.914   6.987 -0.4037 -2.0865  1.0636
10179WAT     H241437   4.507   0.842   6.896  0.1376  1.2636 -1.3461
10179WAT    EPW41438   4.443   0.882   6.916 -0.4077 -0.2560  0.1749
10180WAT      O41439   4.971   0.880   4.078  0.0170 -0.0165 -0.4167
10180WAT     H141440   4.951   0.924   4.151  0.2701 -2.6314  1.3531
10180WAT     H241441   4.893   0.853   4.048  0.0457 -0.5410 -0.0249
10180WAT    EPW41442   4.956   0.882   4.084  0.0586 -0.4803 -0.0974
10181WAT      O41443   3.847   3.993   3.645  0.1663  0.2499  0.1201
10181WAT     H141444   3.867   3.981   3.561 -0.6916 -0.4550 -0.0065
10181WAT     H241445   3.804   3.920   3.666  0.0117  0.5980  1.0609
10181WAT    EPW41446   3.843   3.980   3.636  0.0167  0.1972  0.2404
10182WAT      O41447   4.475   2.049   4.035  0.5931 -0.2089 -0.3858
10182WAT     H141448   4.392   2.056   4.060  0.3531 -0.4137 -1.0930
10182WAT     H241449   4.471   2.053   3.948  1.1956 -1.4859 -0.4958
10182WAT    EPW41450   4.462   2.051   4.026  0.6466 -0.4278 -0.5065
10183WAT      O41451   1.202   5.236   1.008  0.3766 -0.4736 -0.2724
10183WAT     H141452   1.281   5.200   1.016  0.4002 -0.3926 -0.1289
10183WAT     H241453   1.216   5.309   0.963  0.5312  0.0157  0.5342
10183WAT    EPW41454   1.216   5.242   1.003  0.4029 -0.3894 -0.1320
10184WAT      O41455   6.411   3.340   1.730  0.2218 -0.1302  0.4268
10184WAT     H141456   6.411   3.307   1.811 -1.1822 -1.3824 -0.0286
10184WAT     H241457   6.424   3.425   1.742  3.9494 -0.6953  1.6988
10184WAT    EPW41458   6.413   3.347   1.744  0.5650 -0.3986  0.5474
10185WAT      O41459   6.965   4.285   1.129 -0.1569  0.0720 -0.1857
10185WAT     H141460   6.922   4.317   1.060 -0.5243  4.3869  1.7371
10185WAT     H241461   6.906   4.290   1.194  1.2549 -0.3900  1.1885
10185WAT    EPW41462   6.950   4.290   1.129 -0.0026  0.6411  0.3014
10186WAT      O41463   2.944   3.864   6.689 -0.5477 -0.0792 -0.1709
10186WAT     H141464   3.023   3.861   6.725 -0.5601  2.0122  0.1147
10186WAT     H241465   2.895   3.817   6.743  0.6089 -2.1780 -0.8221
10186WAT    EPW41466   2.949   3.857   6.702 -0.3787 -0.0803 -0.2249
10187WAT      O41467   7.141   2.452   4.418 -0.1679  0.0890  0.2879
10187WAT     H141468   7.212   2.482   4.377  0.1799 -2.2922 -1.0240
10187WAT     H241469   7.093   2.524   4.430  1.5908  1.4839 -0.5432
10187WAT    EPW41470   7.144   2.467   4.414  0.1433 -0.0567 -0.0287
10188WAT      O41471   5.453   0.042   5.895 -0.3869  0.6245  0.2322
10188WAT     H141472   5.410   0.098   5.844 -2.1315  0.5595  1.5324
10188WAT     H241473   5.390   0.006   5.943  0.9008 -1.1887  0.6511
10188WAT    EPW41474   5.437   0.045   5.895 -0.4544  0.3470  0.4861
10189WAT      O41475   3.606   0.811   2.285 -0.0802  0.0030 -0.1515
10189WAT     H141476   3.626   0.858   2.356  1.1890  0.0785 -0.5275
10189WAT     H241477   3.618   0.867   2.219 -0.5167 -0.2746 -0.4712
10189WAT    EPW41478   3.611   0.826   2.285  0.0428 -0.0268 -0.2542
10190WAT      O41479   3.635   2.034   2.392 -0.2826 -0.5015 -0.3788
10190WAT     H141480   3.682   2.038   2.465  0.3872  1.4118 -0.8539
10190WAT     H241481   3.553   2.031   2.420 -0.0882  1.2215  0.5064
10190WAT    EPW41482   3.630   2.034   2.407 -0.1549  0.0356 -0.3182
10191WAT      O41483   1.638   4.288   1.600  0.8066 -0.7896 -0.4326
10191WAT     H141484   1.719   4.283   1.569  1.2567 -0.0289  0.5840
10191WAT     H241485   1.593   4.324   1.535  1.4101 -0.6332 -0.7673
10191WAT    EPW41486   1.643   4.293   1.586  0.9622 -0.6541 -0.3319
10192WAT      O41487   4.853   1.142   6.516 -0.0235  0.2434 -0.1192
10192WAT     H141488   4.772   1.168   6.534 -0.3331 -1.5108  1.3043
10192WAT     H241489   4.850   1.122   6.431 -1.1018  0.1290 -0.0604
10192WAT    EPW41490   4.841   1.143   6.506 -0.2286 -0.0326  0.0997
10193WAT      O41491   1.115   2.564   0.964 -0.3852 -0.1379  0.3704
10193WAT     H141492   1.121   2.608   0.889 -1.8401 -0.7896 -0.1649
10193WAT     H241493   1.115   2.480   0.939  1.9019 -0.5075  1.3385
10193WAT    EPW41494   1.116   2.558   0.950 -0.2623 -0.2888  0.4343
10194WAT      O41495   1.544   2.809   2.140 -0.1376  0.2252  0.3328
10194WAT     H141496   1.568   2.805   2.223 -0.7873 -2.1162  0.4660
10194WAT     H241497   1.547   2.726   2.113 -2.2716  0.5826 -1.2759
10194WAT    EPW41498   1.548   2.796   2.148 -0.5488 -0.0679  0.1149
10195WAT      O41499   1.123   0.277   6.223  0.0721  0.1263 -0.2496
10195WAT     H141500   1.109   0.274   6.309  0.8649 -2.1459 -0.1260
10195WAT     H241501   1.189   0.334   6.215  1.0052 -0.7447  0.8447
10195WAT    EPW41502   1.131   0.285   6.235  0.3271 -0.3380 -0.0697
10196WAT      O41503   2.113   2.711   5.181  0.1899  0.3618 -0.2663
10196WAT     H141504   2.178   2.747   5.136  0.1188 -0.6180 -1.1783
10196WAT     H241505   2.137   2.627   5.189  0.8620  0.7046  2.6989
10196WAT    EPW41506   2.126   2.704   5.176  0.2786  0.2677  0.0370
10197WAT      O41507   7.227   4.508   2.340  0.0085  0.0736  0.3239
10197WAT     H141508   7.175   4.496   2.271 -0.4502 -0.4107  0.7376
10197WAT     H241509   7.209   4.439   2.391  0.1247  0.5634  1.0532
10197WAT    EPW41510   7.216   4.496   2.337 -0.0421  0.0744  0.4927
10198WAT      O41511   3.286   0.760   2.209  0.1120 -0.3213  0.1498
10198WAT     H141512   3.251   0.681   2.216 -1.0538  0.1217 -0.3894
10198WAT     H241513   3.363   0.745   2.169 -0.2360 -1.1438 -0.2361
10198WAT    EPW41514   3.292   0.746   2.204 -0.1116 -0.3773  0.0131
10199WAT      O41515   1.318   5.592   6.120  0.2599  0.2633  0.2009
10199WAT     H141516   1.275   5.610   6.047  0.7824 -0.3530 -0.2772
10199WAT     H241517   1.379   5.655   6.124 -0.4396  0.9250  0.6885
10199WAT    EPW41518   1.321   5.604   6.110  0.2338  0.2700  0.2023
10200WAT      O41519   2.196   1.959   2.073  0.3378  0.0807  0.1219
10200WAT     H141520   2.197   1.902   2.139  0.1250  1.3132  1.2439
10200WAT     H241521   2.201   2.037   2.113 -1.3529  0.9542 -1.2013
10200WAT    EPW41522   2.197   1.962   2.088  0.0566  0.3918  0.0922
10201WAT      O41523   5.915   5.748   0.543  0.2492  0.1327 -0.1569
10201WAT     H141524   5.925   5.690   0.480 -1.0626 -0.3583  0.0546
10201WAT     H241525   5.986   5.798   0.537  1.0508 -1.0425 -0.8011
10201WAT    EPW41526   5.927   5.747   0.533  0.1738 -0.1134 -0.2208
10202WAT      O41527   3.966   5.475   3.184  0.3473  0.5344 -0.0876
10202WAT     H141528   4.014   5.543   3.158  1.7287  0.3289  1.7524
10202WAT     H241529   3.900   5.512   3.227  0.2982  0.7356 -0.3285
10202WAT    EPW41530   3.964   5.490   3.186  0.5441  0.5338  0.1486
10203WAT      O41531   2.630   7.187   6.477 -0.0134 -0.3591  0.5569
10203WAT     H141532   2.659   7.143   6.407  0.1383 -0.8272  0.9038
10203WAT     H241533   2.627   7.126   6.539  2.2878  0.5143  1.6503
10203WAT    EPW41534   2.634   7.171   6.476  0.3489 -0.2993  0.7697
10204WAT      O41535   5.623   5.648   4.279 -0.3823 -0.0948  0.1755
10204WAT     H141536   5.643   5.689   4.204 -1.2759  0.9388  0.4696
10204WAT     H241537   5.608   5.714   4.334  1.1293 -0.8385  1.5311
10204WAT    EPW41538   5.624   5.664   4.276 -0.2910 -0.0520  0.4192
10205WAT      O41539   6.969   3.699   1.590 -0.5558 -0.0041 -0.0639
10205WAT     H141540   7.022   3.672   1.527 -0.2933  1.8194 -0.6856
10205WAT     H241541   7.021   3.704   1.660 -0.1437  0.7559 -0.4172
10205WAT    EPW41542   6.984   3.696   1.591 -0.4562  0.3775 -0.2079
10206WAT      O41543   5.484   5.412   0.773  0.1261 -0.1696 -0.1887
10206WAT     H141544   5.534   5.459   0.719  0.3058  0.2349  0.3157
10206WAT     H241545   5.514   5.331   0.765 -0.1315 -0.1921 -1.0140
10206WAT    EPW41546   5.495   5.407   0.764  0.1146 -0.1132 -0.2361
10207WAT      O41547   0.286   3.974   5.630 -0.3151  0.1542  0.0605
10207WAT     H141548   0.369   3.984   5.653  0.2934  1.8560 -2.3999
10207WAT     H241549   0.243   4.028   5.684  0.2470 -0.3168  0.9837
10207WAT    EPW41550   0.292   3.984   5.641 -0.1422  0.3360 -0.1666
10208WAT      O41551   0.414   2.244   4.634  0.5352  0.4807  0.2749
10208WAT     H141552   0.473   2.248   4.570  0.9872 -0.4774  0.6147
10208WAT     H241553   0.409   2.326   4.663  1.7407  0.5751  0.2673
10208WAT    EPW41554   0.422   2.256   4.629  0.7800  0.3531  0.3240
10209WAT      O41555   4.976   2.127   1.868 -0.2784 -0.0682 -0.5836
10209WAT     H141556   5.026   2.161   1.930 -2.7416 -0.7714  2.0052
10209WAT     H241557   4.972   2.043   1.888  0.0033 -0.6381 -2.6492
10209WAT    EPW41558   4.983   2.120   1.880 -0.6006 -0.2563 -0.5063
10210WAT      O41559   5.884   0.291   2.409 -0.4238  0.3887 -0.1527
10210WAT     H141560   5.844   0.313   2.334  1.2224 -0.1955 -1.2676
10210WAT     H241561   5.830   0.234   2.445 -0.1962 -1.2266 -2.1503
10210WAT    EPW41562   5.870   0.286   2.403 -0.1470  0.0638 -0.6125
10211WAT      O41563   3.297   5.361   6.880 -0.0087 -0.5420 -0.1321
10211WAT     H141564   3.334   5.426   6.836 -1.6510 -0.1771 -1.0729
10211WAT     H241565   3.362   5.327   6.926  1.5415 -0.1648 -1.9422
10211WAT    EPW41566   3.312   5.366   6.880 -0.0223 -0.4323 -0.5385
10212WAT      O41567   6.789   1.429   0.319  0.4983 -0.3075 -0.2810
10212WAT     H141568   6.765   1.497   0.370  1.7991 -0.4141  0.5084
10212WAT     H241569   6.800   1.364   0.376 -1.0741 -1.3383 -1.0673
10212WAT    EPW41570   6.787   1.430   0.335  0.4582 -0.4755 -0.2805
10213WAT      O41571   2.517   1.698   6.325  0.1577 -0.4454  0.1766
10213WAT     H141572   2.539   1.780   6.303  0.8137 -0.3518  1.1524
10213WAT     H241573   2.587   1.651   6.302 -0.6399 -0.9312 -1.4119
10213WAT    EPW41574   2.531   1.704   6.318  0.1368 -0.5033  0.0861
10214WAT      O41575   1.371   0.016   6.563 -0.0395 -0.1973  0.0491
10214WAT     H141576   1.363   0.033   6.478 -0.2164 -1.3232 -0.1731
10214WAT     H241577   1.448  -0.026   6.569 -0.1047 -0.2703  0.4241
10214WAT    EPW41578   1.382   0.012   6.552 -0.0753 -0.3744  0.0717
10215WAT      O41579   6.676   6.734   7.068 -0.1981  0.2651  0.0876
10215WAT     H141580   6.710   6.744   6.989  1.1801 -0.1016  0.6153
10215WAT     H241581   6.735   6.687   7.111  0.3875  2.6361  2.1389
10215WAT    EPW41582   6.689   6.729   7.063  0.0920  0.5612  0.4686
10216WAT      O41583   6.473   5.013   2.011  0.0957 -0.7884 -0.8796
10216WAT     H141584   6.488   4.927   2.019 -1.1661 -1.1876 -2.3299
10216WAT     H241585   6.552   5.045   1.994  1.2546 -1.0950  2.9112
10216WAT    EPW41586   6.487   5.005   2.010  0.0805 -0.8927 -0.5339
10217WAT      O41587   6.669   1.154   1.466 -0.0406  0.4764  0.2506
10217WAT     H141588   6.588   1.124   1.483 -0.9830  2.2754 -0.8231
10217WAT     H241589   6.671   1.159   1.379  2.1421 -1.7822  0.0407
10217WAT    EPW41590   6.657   1.150   1.455  0.1426  0.4085  0.0610
10218WAT      O41591   0.073   1.268   5.030  0.2746  0.1720  0.4558
10218WAT     H141592   0.021   1.288   4.963 -0.1887  1.0396  1.0525
10218WAT     H241593   0.153   1.285   5.000  0.1377 -0.1357 -0.1025
10218WAT    EPW41594   0.077   1.273   5.016  0.1859  0.2547  0.4615
10219WAT      O41595   6.127   0.182   2.685  0.3966 -0.0595  0.3593
10219WAT     H141596   6.062   0.145   2.729  1.2739 -0.5086  1.3243
10219WAT     H241597   6.182   0.208   2.748  1.5184 -0.4030 -0.4471
10219WAT    EPW41598   6.125   0.180   2.701  0.6919 -0.1766  0.3827
10220WAT      O41599   2.694   0.631   5.724  0.4475  0.3512  0.1639
10220WAT     H141600   2.748   0.567   5.750 -1.1524 -1.0333  0.2816
10220WAT     H241601   2.632   0.588   5.679 -0.1753  1.9514 -0.5854
10220WAT    EPW41602   2.693   0.615   5.721  0.1191  0.3831  0.0706
10221WAT      O41603   5.999   0.166   3.722  0.0255 -0.6566  0.4236
10221WAT     H141604   5.934   0.205   3.679 -0.6610 -0.0418  1.9603
10221WAT     H241605   6.013   0.093   3.675 -1.4966 -0.6096 -0.1719
10221WAT    EPW41606   5.991   0.161   3.709 -0.3007 -0.5588  0.5627
10222WAT      O41607   2.343   6.462   4.083  0.1433  0.0718 -0.2547
10222WAT     H141608   2.395   6.413   4.134  0.4970  2.1170  1.4873
10222WAT     H241609   2.270   6.469   4.129 -0.6489 -0.4240 -1.3955
10222WAT    EPW41610   2.340   6.456   4.097  0.0785  0.3007 -0.1659
10223WAT      O41611   2.088   2.122   6.298 -0.8219 -0.0763 -0.0754
10223WAT     H141612   2.070   2.197   6.339 -1.1122 -0.0608 -0.2316
10223WAT     H241613   2.067   2.061   6.357 -1.0260 -0.0474 -0.1169
10223WAT    EPW41614   2.082   2.124   6.313 -0.8949 -0.0698 -0.1046
10224WAT      O41615   1.404   4.067   2.210  0.1856 -0.0221  0.5106
10224WAT     H141616   1.369   3.993   2.241  0.4336  0.0735  1.0083
10224WAT     H241617   1.467   4.086   2.267  0.0366  0.6453  0.4546
10224WAT    EPW41618   1.408   4.059   2.223  0.2002  0.0906  0.5758
10225WAT      O41619   3.186   2.019   4.603 -0.8371  0.4576 -0.3488
10225WAT     H141620   3.100   2.029   4.594 -1.6527 -3.5816  0.7169
10225WAT     H241621   3.203   1.949   4.553  1.7760  0.8927 -0.1972
10225WAT    EPW41622   3.176   2.010   4.594 -0.5716 -0.0748 -0.1690
10226WAT      O41623   3.121   6.023   1.661  0.0554 -0.4276  0.2696
10226WAT     H141624   3.194   6.021   1.614 -0.9446 -0.0952 -1.3671
10226WAT     H241625   3.145   5.989   1.738  2.1168  0.4914  0.0867
10226WAT    EPW41626   3.135   6.018   1.665  0.2122 -0.2427  0.0008
10227WAT      O41627   1.973   6.979   5.939  0.3091  0.6091  0.4721
10227WAT     H141628   1.914   6.924   5.906 -0.4490  1.0815  1.0074
10227WAT     H241629   1.965   7.050   5.889  3.5145 -0.7251 -2.3563
10227WAT    EPW41630   1.963   6.981   5.926  0.6706  0.4818  0.1333
10228WAT      O41631   3.789   0.938   1.507 -0.0595 -0.5621 -0.2365
10228WAT     H141632   3.730   0.892   1.551 -0.9293 -0.0215 -0.8213
10228WAT     H241633   3.799   1.010   1.555 -0.3490 -0.3682 -0.4679
10228WAT    EPW41634   3.782   0.942   1.520 -0.2308 -0.4536 -0.3570
10229WAT      O41635   6.543   5.883   6.552  0.3150 -0.4143 -0.0099
10229WAT     H141636   6.504   5.837   6.615 -0.0499 -1.8315 -1.2052
10229WAT     H241637   6.625   5.854   6.552  0.0953 -1.0865 -0.7387
10229WAT    EPW41638   6.549   5.872   6.561  0.2286 -0.7230 -0.2942
10230WAT      O41639   4.607   5.970   5.277  0.2617 -0.2926 -0.1582
10230WAT     H141640   4.587   6.034   5.221  1.0062  0.3026  0.2403
10230WAT     H241641   4.536   5.920   5.276  0.0720 -0.0295 -1.2695
10230WAT    EPW41642   4.593   5.972   5.269  0.3436 -0.1658 -0.2635
10231WAT      O41643   0.338   2.490   0.924  0.2028  0.8328 -0.4351
10231WAT     H141644   0.355   2.573   0.904  0.9630  1.1432  1.2767
10231WAT     H241645   0.405   2.467   0.975  0.2487 -0.9961 -1.2365
10231WAT    EPW41646   0.351   2.499   0.929  0.3219  0.6085 -0.3006
10232WAT      O41647   0.943   2.806   5.620 -0.1678  0.4496  0.5106
10232WAT     H141648   0.930   2.889   5.644  1.9074  0.4269  1.9430
10232WAT     H241649   1.029   2.800   5.609 -0.2546 -1.5271  0.4910
10232WAT    EPW41650   0.954   2.817   5.622  0.1259  0.1543  0.7193
10233WAT      O41651   6.885   1.491   0.054  0.1938 -0.2102 -0.6072
10233WAT     H141652   6.970   1.503   0.070  0.0296  2.0697 -1.1512
10233WAT     H241653   6.853   1.465   0.131  1.0625  0.9509  0.1834
10233WAT    EPW41654   6.893   1.489   0.068  0.2978  0.2981 -0.5708
10234WAT      O41655   6.222   1.453   5.833  0.3944 -0.1767  0.0841
10234WAT     H141656   6.139   1.474   5.851  0.3072 -1.3084  1.0894
10234WAT     H241657   6.218   1.367   5.815  1.1739  0.0042 -1.1112
10234WAT    EPW41658   6.209   1.443   5.833  0.4967 -0.3172  0.0560
10235WAT      O41659   1.531   2.020   0.030  0.1360  0.2322  0.2790
10235WAT     H141660   1.495   1.999  -0.046  1.8479 -0.2391 -0.4403
10235WAT     H241661   1.616   2.017   0.015  0.6829 -2.5815  2.8502
10235WAT    EPW41662   1.538   2.017   0.017  0.4697 -0.2531  0.5525
10236WAT      O41663   3.116   3.807   2.488  0.2341  0.6856  0.0380
10236WAT     H141664   3.048   3.858   2.472  0.5552  1.4643  0.9773
10236WAT     H241665   3.170   3.859   2.533 -0.0974 -0.8994  2.4615
10236WAT    EPW41666   3.114   3.822   2.493  0.2326  0.5665  0.5348
10237WAT      O41667   3.684   6.327   2.514  0.7260  0.3068  0.8269
10237WAT     H141668   3.705   6.316   2.430  1.6239 -1.9845  1.2642
10237WAT     H241669   3.629   6.261   2.530  1.8370 -0.3189  2.3796
10237WAT    EPW41670   3.679   6.316   2.504  1.0227 -0.1241  1.1209
10238WAT      O41671   6.562   4.589   1.717  0.6263 -0.0896 -0.1623
10238WAT     H141672   6.562   4.675   1.701  0.1920 -0.2440 -1.0827
10238WAT     H241673   6.491   4.561   1.676 -0.2283 -0.6477  1.6201
10238WAT    EPW41674   6.552   4.597   1.709  0.4359 -0.1949 -0.0349
10239WAT      O41675   1.339   7.066   2.574 -0.4267 -0.0180 -0.3349
10239WAT     H141676   1.402   7.023   2.531  0.7983  1.5359 -0.1903
10239WAT     H241677   1.378   7.092   2.647 -1.3549  0.6685 -0.0629
10239WAT    EPW41678   1.354   7.063   2.578 -0.3828  0.3129 -0.2734
10240WAT      O41679   0.944   4.834   6.689  0.5659 -0.5868  0.2307
10240WAT     H141680   0.892   4.793   6.746 -2.2889  2.0162 -0.2078
10240WAT     H241681   0.919   4.801   6.612 -0.5254  0.6687  0.0181
10240WAT    EPW41682   0.932   4.823   6.686 -0.0171 -0.0168  0.1345
10241WAT      O41683   3.728   3.411   0.660 -0.0570  0.1322  0.0421
10241WAT     H141684   3.672   3.388   0.597 -0.7572  1.0724  0.2928
10241WAT     H241685   3.740   3.338   0.706 -0.8257 -0.1594 -0.2086
10241WAT    EPW41686   3.722   3.397   0.657 -0.2740  0.2280  0.0421
10242WAT      O41687   2.407   6.452   6.517  0.3784 -0.6286 -0.4600
10242WAT     H141688   2.344   6.508   6.496 -2.4490 -1.9661  3.3890
10242WAT     H241689   2.378   6.375   6.488  2.7317 -0.7432 -2.9077
10242WAT    EPW41690   2.394   6.449   6.510  0.3084 -0.8431 -0.2530
10243WAT      O41691   3.136   1.562   3.410  0.3704  0.0780 -0.5301
10243WAT     H141692   3.083   1.567   3.479  0.8355  0.2916 -0.1827
10243WAT     H241693   3.209   1.602   3.437  0.6241  0.0009 -1.0819
10243WAT    EPW41694   3.139   1.569   3.424  0.4766  0.0982 -0.5603
10244WAT      O41695   4.265   6.591   3.931  0.0858 -0.5699 -0.6364
10244WAT     H141696   4.310   6.606   3.857  2.6245 -1.8936  0.5333
10244WAT     H241697   4.314   6.628   3.992 -1.8577  0.2938  0.4902
10244WAT    EPW41698   4.279   6.599   3.929  0.1737 -0.6379 -0.2972
10245WAT      O41699   5.405   4.249   5.102 -0.2327  0.2088  0.9566
10245WAT     H141700   5.472   4.302   5.082 -0.9793  0.8454  0.0234
10245WAT     H241701   5.437   4.198   5.164  0.8592  1.0670  1.1375
10245WAT    EPW41702   5.420   4.249   5.108 -0.1817  0.4296  0.8455
10246WAT      O41703   2.752   4.170   1.782  0.4194  0.5250 -0.2757
10246WAT     H141704   2.737   4.190   1.866 -0.4234  2.4759 -0.8144
10246WAT     H241705   2.787   4.244   1.750  1.9972 -0.6393 -1.3617
10246WAT    EPW41706   2.755   4.184   1.790  0.5279  0.6412 -0.5157
10247WAT      O41707   7.063   1.990   0.961 -0.1048 -0.2012 -0.1594
10247WAT     H141708   7.029   1.910   0.951  1.6889 -1.1656  0.7993
10247WAT     H241709   7.149   1.975   0.961  0.3085  1.8285 -0.4843
10247WAT    EPW41710   7.071   1.976   0.959  0.2212 -0.0439 -0.0658
10248WAT      O41711   1.322   0.517   4.495  0.3183 -0.4497  0.0660
10248WAT     H141712   1.277   0.591   4.487  0.7425 -0.1876  0.0731
10248WAT     H241713   1.366   0.527   4.569  1.2356 -0.2275 -0.4884
10248WAT    EPW41714   1.322   0.530   4.504  0.5165 -0.3781 -0.0148
10249WAT      O41715   5.850   2.059   5.009  0.2636  0.2929  0.3533
10249WAT     H141716   5.828   2.016   5.082  0.6016  0.5494  0.6151
10249WAT     H241717   5.806   2.135   5.017  1.8463  1.1622  1.2962
10249WAT    EPW41718   5.840   2.064   5.021  0.5474  0.4592  0.5312
10250WAT      O41719   1.364   1.047   3.995  0.8054 -0.1653  0.4011
10250WAT     H141720   1.425   1.013   3.943  0.2047 -1.5395  0.5711
10250WAT     H241721   1.321   0.978   4.025  1.1920  0.5661  2.8402
10250WAT    EPW41722   1.367   1.032   3.991  0.7737 -0.2602  0.7865
10251WAT      O41723   5.434   2.948   2.063 -0.1328 -0.1117  0.0347
10251WAT     H141724   5.456   2.909   2.138  0.3814  0.1802  0.0433
10251WAT     H241725   5.445   3.033   2.081 -1.0187  0.0358 -0.0502
10251WAT    EPW41726   5.439   2.955   2.077 -0.1877 -0.0468  0.0234
10252WAT      O41727   1.235   3.599   4.725 -0.0655 -0.1153  0.1102
10252WAT     H141728   1.268   3.602   4.806  1.8488  0.5695 -0.6365
10252WAT     H241729   1.215   3.682   4.709 -0.7406 -0.3001 -0.0101
10252WAT    EPW41730   1.237   3.612   4.734  0.1175 -0.0414 -0.0179
10253WAT      O41731   6.523   1.557   6.212  0.2487  0.5233  0.0954
10253WAT     H141732   6.499   1.517   6.286  0.9727 -1.4257 -0.6672
10253WAT     H241733   6.589   1.609   6.238 -0.8488  1.4775  1.1377
10253WAT    EPW41734   6.529   1.559   6.227  0.1935  0.3763  0.1367
10254WAT      O41735   5.106   2.651   3.576  0.7916 -0.1893 -0.1356
10254WAT     H141736   5.133   2.662   3.659  1.5974 -0.7680 -0.3050
10254WAT     H241737   5.112   2.565   3.564 -1.4112 -0.4061 -0.1222
10254WAT    EPW41738   5.111   2.640   3.587  0.5852 -0.3068 -0.1587
10255WAT      O41739   2.540   0.042   2.477 -0.8922  0.0215 -0.1082
10255WAT     H141740   2.524   0.127   2.473 -0.5305  0.1177  0.4957
10255WAT     H241741   2.568   0.023   2.396  0.6230  0.8067  0.2048
10255WAT    EPW41742   2.542   0.051   2.464 -0.6150  0.1517  0.0273
10256WAT      O41743   0.241   6.413   6.641  0.8741  0.0777  0.1858
10256WAT     H141744   0.176   6.433   6.586  0.4641 -1.9203 -0.1162
10256WAT     H241745   0.230   6.471   6.706 -2.9610 -1.6773  1.4665
10256WAT    EPW41746   0.230   6.425   6.643  0.2471 -0.4767  0.3303
10257WAT      O41747   2.077   1.086   1.055 -0.0975 -0.6131  0.3756
10257WAT     H141748   2.055   1.020   1.108 -0.4972 -0.0191  0.9568
10257WAT     H241749   2.051   1.157   1.098 -0.2815 -0.1047 -0.5361
10257WAT    EPW41750   2.070   1.087   1.069 -0.1837 -0.4503  0.3268
10258WAT      O41751   4.737   2.772   7.370  0.7572 -0.1631  0.0087
10258WAT     H141752   4.673   2.781   7.312 -0.0898 -0.3584  0.8807
10258WAT     H241753   4.808   2.798   7.327 -0.2454  2.3597 -0.2701
10258WAT    EPW41754   4.738   2.777   7.355  0.4840  0.1807  0.0963
10259WAT      O41755   1.517   5.534   3.398 -0.3108 -0.2628 -0.0835
10259WAT     H141756   1.547   5.592   3.456 -0.0249  0.9151 -1.3700
10259WAT     H241757   1.499   5.583   3.328 -0.4787 -1.6849 -1.0563
10259WAT    EPW41758   1.518   5.550   3.396 -0.2933 -0.2989 -0.4173
10260WAT      O41759   4.922   6.461   3.673  0.0340  0.0774  0.1250
10260WAT     H141760   4.994   6.469   3.722  0.4967 -0.1981 -0.4941
10260WAT     H241761   4.888   6.385   3.699 -0.3285  0.4666  0.7979
10260WAT    EPW41762   4.928   6.451   3.684  0.0488  0.0942  0.1329
10261WAT      O41763   0.570   5.229   5.812  0.3399 -0.4424 -1.0742
10261WAT     H141764   0.628   5.182   5.768  0.0222 -1.1744 -0.7237
10261WAT     H241765   0.619   5.281   5.862  0.7142 -1.7508 -0.0308
10261WAT    EPW41766   0.586   5.230   5.813  0.3483 -0.7438 -0.8683
10262WAT      O41767   2.246   2.678   6.188  0.1451 -0.5224  0.0731
10262WAT     H141768   2.192   2.690   6.121  1.6213  0.3071 -1.0359
10262WAT     H241769   2.236   2.594   6.208  0.2014 -1.0024 -1.7103
10262WAT    EPW41770   2.237   2.668   6.181  0.3715 -0.4708 -0.3542
10263WAT      O41771   6.779   3.527   0.180  0.6733  0.3826 -0.6561
10263WAT     H141772   6.792   3.528   0.093  3.2645 -0.0549 -0.3501
10263WAT     H241773   6.860   3.519   0.212 -0.2740  0.0834  1.8077
10263WAT    EPW41774   6.793   3.526   0.172  0.9162  0.2738 -0.2469
10264WAT      O41775   6.842   5.455   4.321 -0.8973  0.0809 -0.2865
10264WAT     H141776   6.823   5.440   4.405  0.8582 -2.3023 -0.2144
10264WAT     H241777   6.790   5.400   4.278  0.6058 -1.2354 -0.4983
10264WAT    EPW41778   6.832   5.445   4.327 -0.4159 -0.4656 -0.3071
10265WAT      O41779   0.239   5.909   6.703  0.2857 -0.9092  0.2181
10265WAT     H141780   0.272   5.968   6.649 -1.5692 -0.1308 -0.1230
10265WAT     H241781   0.198   5.853   6.650 -0.9431 -0.5293  0.7336
10265WAT    EPW41782   0.238   5.909   6.688 -0.1698 -0.7381  0.2439
10266WAT      O41783   5.094   1.523   0.042 -0.3249 -0.0866 -0.2119
10266WAT     H141784   5.118   1.601   0.071  0.1048  0.0468 -0.9123
10266WAT     H241785   5.071   1.480   0.115 -0.5977  0.6961  0.1674
10266WAT    EPW41786   5.094   1.528   0.057 -0.3017  0.0487 -0.2593
10267WAT      O41787   6.376   3.246   0.829 -0.4664 -0.0882 -0.0428
10267WAT     H141788   6.306   3.277   0.790  0.4808  2.6702  0.2404
10267WAT     H241789   6.367   3.272   0.912  1.3920  1.4261 -0.2451
10267WAT    EPW41790   6.365   3.254   0.836 -0.0520  0.5430 -0.0308
10268WAT      O41791   3.934   4.759   0.032  0.0332 -0.0912  0.4349
10268WAT     H141792   3.871   4.698   0.030 -0.9014  0.8523  0.2091
10268WAT     H241793   4.006   4.715   0.008 -0.8957 -0.7975 -1.2672
10268WAT    EPW41794   3.935   4.743   0.028 -0.2421 -0.0562  0.1501
10269WAT      O41795   6.119   5.155   5.239  0.5907 -0.0423  0.1736
10269WAT     H141796   6.159   5.222   5.202  2.3486 -0.8086  0.5921
10269WAT     H241797   6.053   5.137   5.184 -0.4103  2.4260  0.4299
10269WAT    EPW41798   6.115   5.162   5.225  0.7025  0.2091  0.2733
10270WAT      O41799   4.462   6.258   2.412  0.2202  0.0651  0.0176
10270WAT     H141800   4.459   6.334   2.454  2.5108  1.7951 -2.5983
10270WAT     H241801   4.477   6.200   2.476 -0.7622  1.8668  2.0180
10270WAT    EPW41802   4.464   6.260   2.428  0.4134  0.5868 -0.0733
10271WAT      O41803   6.045   3.473   2.448 -0.0920  0.2765  0.6073
10271WAT     H141804   5.979   3.420   2.427  0.0998 -0.9277  2.7818
10271WAT     H241805   6.116   3.424   2.438  0.2783  0.8110  0.5676
10271WAT    EPW41806   6.046   3.458   2.443 -0.0090  0.1776  0.9226
10272WAT      O41807   6.846   1.544   7.174 -0.4731 -0.1529  0.5196
10272WAT     H141808   6.925   1.562   7.143 -0.8701  3.0679  1.0414
10272WAT     H241809   6.861   1.527   7.258 -0.3220  0.8983  0.7232
10272WAT    EPW41810   6.860   1.544   7.182 -0.5094  0.4782  0.6268
10273WAT      O41811   1.377   2.089   2.133 -0.3070 -0.5806 -0.0285
10273WAT     H141812   1.309   2.034   2.142  1.1206 -2.3788  0.3180
10273WAT     H241813   1.360   2.129   2.057 -0.5157 -2.9019 -1.3095
10273WAT    EPW41814   1.364   2.087   2.123 -0.1269 -1.1892 -0.1665
10274WAT      O41815   2.998   2.154   6.416  0.0703 -0.4914  0.5090
10274WAT     H141816   2.969   2.179   6.338 -0.3733  2.0104  1.3871
10274WAT     H241817   3.084   2.167   6.411  0.2008 -1.3745  0.1380
10274WAT    EPW41818   3.007   2.159   6.404  0.0241 -0.2523  0.5839
10275WAT      O41819   2.675   4.608   2.708 -0.0064  0.0374 -0.5367
10275WAT     H141820   2.706   4.527   2.710  0.2701  0.0680  2.7172
10275WAT     H241821   2.731   4.651   2.657  1.8174 -1.1807  0.3361
10275WAT    EPW41822   2.688   4.602   2.701  0.3039 -0.1380  0.0729
10276WAT      O41823   5.525   3.899   0.895  0.4050  0.4152 -0.2220
10276WAT     H141824   5.499   3.940   0.968  1.7527  0.3059  0.3355
10276WAT     H241825   5.486   3.821   0.901 -1.2426  1.1426 -0.7212
10276WAT    EPW41826   5.515   3.893   0.906  0.3607  0.5065 -0.2134
10277WAT      O41827   3.052   2.540   7.209  0.7504 -0.3633  0.2055
10277WAT     H141828   3.040   2.585   7.136  2.1184  0.1255  0.2584
10277WAT     H241829   2.978   2.553   7.253  1.8388  3.8418  1.2431
10277WAT    EPW41830   3.039   2.549   7.205  1.1133  0.3301  0.3666
10278WAT      O41831   3.071   7.157   7.018  0.4172  0.2490 -0.3795
10278WAT     H141832   3.016   7.122   6.960  0.8515  1.1344 -1.3624
10278WAT     H241833   3.149   7.129   6.991  0.4429 -2.4125  1.9876
10278WAT    EPW41834   3.074   7.148   7.005  0.4852 -0.0134 -0.1750
10279WAT      O41835   0.682   6.141   3.673 -0.1053 -0.4991 -0.2499
10279WAT     H141836   0.630   6.210   3.679  0.2833  0.0551 -2.4922
10279WAT     H241837   0.635   6.077   3.710 -1.4102  0.4642 -0.1628
10279WAT    EPW41838   0.667   6.141   3.679 -0.2406 -0.2750 -0.5682
10280WAT      O41839   2.854   7.026   2.538  0.2397 -0.7199  0.1286
10280WAT     H141840   2.869   7.091   2.482  0.1139 -1.5034 -0.8379
10280WAT     H241841   2.838   6.958   2.487 -1.9605 -1.0147  1.1109
10280WAT    EPW41842   2.854   7.026   2.522 -0.1039 -0.8792  0.1309
10281WAT      O41843   3.761   1.632   6.252 -0.2395  0.4833  0.0050
10281WAT     H141844   3.757   1.650   6.337 -0.4503 -1.6830  0.5097
10281WAT     H241845   3.684   1.594   6.235  0.0149  0.3889 -1.0158
10281WAT    EPW41846   3.749   1.629   6.262 -0.2331  0.1494 -0.0712
10282WAT      O41847   2.299   1.548   6.450  0.1118 -0.4014 -0.1477
10282WAT     H141848   2.344   1.484   6.487 -0.2023 -1.0949 -0.9352
10282WAT     H241849   2.355   1.583   6.393 -0.2850 -1.1868 -1.0415
10282WAT    EPW41850   2.314   1.544   6.447  0.0068 -0.6199 -0.3961
10283WAT      O41851   6.904   6.748   5.971  0.0733  0.5806 -0.1370
10283WAT     H141852   6.960   6.807   5.939  1.8320 -0.4412  0.8981
10283WAT     H241853   6.953   6.703   6.028 -1.8104 -0.4148  0.7588
10283WAT    EPW41854   6.920   6.750   5.975  0.0549  0.2826  0.1482
10284WAT      O41855   0.118   4.961   3.882 -0.7493  0.1249 -0.0261
10284WAT     H141856   0.206   4.961   3.879 -0.7365 -0.9570  0.0373
10284WAT     H241857   0.097   5.033   3.838  0.1405 -0.4029 -1.3950
10284WAT    EPW41858   0.128   4.971   3.875 -0.6160 -0.1129 -0.2190
10285WAT      O41859   3.703   0.274   2.044 -0.0218 -0.6901  0.5534
10285WAT     H141860   3.729   0.355   2.024 -2.2063 -0.0302  0.1592
10285WAT     H241861   3.709   0.272   2.131  0.2761 -0.2080  0.5505
10285WAT    EPW41862   3.708   0.286   2.054 -0.3005 -0.5214  0.4947
10286WAT      O41863   1.922   5.968   4.572  0.1807 -0.2539 -0.6637
10286WAT     H141864   1.895   5.907   4.516  0.6836 -0.1629 -1.0116
10286WAT     H241865   2.009   5.960   4.571  0.2156  0.0303 -0.2128
10286WAT    EPW41866   1.931   5.958   4.564  0.2602 -0.1985 -0.6484
10287WAT      O41867   2.292   0.663   3.381  0.0053  0.5665  0.8451
10287WAT     H141868   2.359   0.656   3.325 -1.9632  0.7511 -1.6681
10287WAT     H241869   2.263   0.581   3.388  0.1590  0.5650  1.5566
10287WAT    EPW41870   2.298   0.649   3.374 -0.2628  0.5935  0.5790
10288WAT      O41871   6.165   2.246   5.674 -0.3470  0.2852 -0.6455
10288WAT     H141872   6.106   2.211   5.729 -0.0814 -0.1885 -0.6601
10288WAT     H241873   6.159   2.331   5.690 -0.2094  0.1444  0.1850
10288WAT    EPW41874   6.155   2.253   5.684 -0.2874  0.1944 -0.5250
10289WAT      O41875   1.563   2.861   7.111 -0.4937 -0.0922 -0.3246
10289WAT     H141876   1.542   2.918   7.049 -0.3617 -0.6603 -0.9062
10289WAT     H241877   1.523   2.788   7.086 -0.4138 -0.3395  0.2482
10289WAT    EPW41878   1.554   2.859   7.098 -0.4624 -0.2126 -0.3259
10290WAT      O41879   5.099   4.251   6.402 -0.3128  0.1701  0.2735
10290WAT     H141880   5.036   4.287   6.450 -1.9803 -1.4036 -0.5923
10290WAT     H241881   5.133   4.191   6.455 -1.8523 -1.2587 -0.2511
10290WAT    EPW41882   5.094   4.247   6.417 -0.7866 -0.2734  0.0681
10291WAT      O41883   4.384   1.482   5.393  0.2340  0.2218  0.2472
10291WAT     H141884   4.444   1.466   5.455  1.4207  1.3103 -0.5663
10291WAT     H241885   4.362   1.565   5.406 -0.6097  0.0294  0.1120
10291WAT    EPW41886   4.390   1.492   5.404  0.2847  0.3542  0.1071
10292WAT      O41887   1.442   4.036   6.207  0.0976  0.2345  0.1424
10292WAT     H141888   1.403   4.042   6.284  0.8554 -0.0361  0.5563
10292WAT     H241889   1.394   4.087   6.155 -1.7964 -1.3959  0.2039
10292WAT    EPW41890   1.429   4.045   6.211 -0.0702 -0.0463  0.2126
10293WAT      O41891   0.422   0.323   4.566 -0.4394  0.3675 -0.1770
10293WAT     H141892   0.469   0.366   4.507 -0.6586 -0.5344 -1.0297
10293WAT     H241893   0.483   0.287   4.618 -0.0500 -1.8996 -2.0455
10293WAT    EPW41894   0.438   0.324   4.565 -0.4142 -0.1006 -0.5790
10294WAT      O41895   5.662   2.646   2.486  0.1861 -0.4553 -0.2871
10294WAT     H141896   5.706   2.678   2.554 -0.4399 -2.0536  0.9408
10294WAT     H241897   5.724   2.631   2.426  1.2209 -1.6753  1.0153
10294WAT    EPW41898   5.677   2.648   2.487  0.2465 -0.8716  0.0867
10295WAT      O41899   3.583   1.735   7.202 -0.2709 -0.0567  0.0075
10295WAT     H141900   3.659   1.723   7.161  1.0404  1.0744  1.9107
10295WAT     H241901   3.553   1.655   7.215 -0.4105 -0.4741 -2.4415
10295WAT    EPW41902   3.590   1.722   7.198 -0.0978  0.0487 -0.0731
10296WAT      O41903   6.277   4.499   6.938  0.0502 -0.1540  0.1944
10296WAT     H141904   6.342   4.441   6.939 -0.4770 -0.7501  0.0347
10296WAT     H241905   6.227   4.475   7.005 -1.1907 -1.0727 -1.0273
10296WAT    EPW41906   6.280   4.487   6.948 -0.2110 -0.3777 -0.0096
10297WAT      O41907   2.812   4.680   2.922  0.0253  0.3198  0.4943
10297WAT     H141908   2.763   4.661   2.852 -0.0313 -1.0201  0.8793
10297WAT     H241909   2.819   4.767   2.919 -1.1462  0.4037 -0.3927
10297WAT    EPW41910   2.806   4.690   2.911 -0.1561  0.1343  0.4201
10298WAT      O41911   4.200   3.472   5.482  0.2100 -0.3129 -0.5180
10298WAT     H141912   4.173   3.510   5.409 -1.6684 -0.2408  0.1531
10298WAT     H241913   4.139   3.411   5.497  0.2272  0.0618  1.2847
10298WAT    EPW41914   4.187   3.468   5.473 -0.0649 -0.2469 -0.1526
10299WAT      O41915   7.142   0.716   6.412  0.5229 -1.0855  0.0055
10299WAT     H141916   7.189   0.651   6.446 -0.0736 -0.6357  1.7531
10299WAT     H241917   7.069   0.715   6.458 -0.0476 -0.0017 -0.8373
10299WAT    EPW41918   7.138   0.706   6.424  0.3505 -0.8590  0.1391
10300WAT      O41919   4.049   0.112   2.536 -0.2447  0.2065  0.2256
10300WAT     H141920   3.962   0.109   2.524 -0.2182  0.9608 -0.2482
10300WAT     H241921   4.079   0.050   2.483 -0.2418  2.5233 -2.8109
10300WAT    EPW41922   4.040   0.103   2.526 -0.2404  0.6602 -0.2930
10301WAT      O41923   4.427   7.188   4.036 -0.3466  0.4203 -0.1242
10301WAT     H141924   4.422   7.156   4.117  1.2268 -0.6435 -0.4002
10301WAT     H241925   4.491   7.248   4.042 -0.4828  0.6069 -0.4889
10301WAT    EPW41926   4.436   7.192   4.049 -0.1343  0.2907 -0.2189
10302WAT      O41927   3.800   5.247   0.059  0.6547  0.1802 -0.2589
10302WAT     H141928   3.721   5.222   0.034 -0.0363  1.2091  0.7805
10302WAT     H241929   3.847   5.174   0.056 -1.0764 -1.1592  1.9610
10302WAT    EPW41930   3.795   5.233   0.055  0.2969  0.1344  0.2225
10303WAT      O41931   6.743   5.272   0.900  1.1188 -0.3343  0.5496
10303WAT     H141932   6.773   5.317   0.831  1.5594  1.3488  1.7596
10303WAT     H241933   6.742   5.190   0.872  1.4577  0.2612 -1.3997
10303WAT    EPW41934   6.747   5.267   0.886  1.2339  0.0023  0.4404
10304WAT      O41935   3.657   6.898   1.664  0.0948  0.1857 -0.1989
10304WAT     H141936   3.583   6.852   1.663 -0.9922  1.8828 -0.1020
10304WAT     H241937   3.686   6.891   1.582  0.6887 -1.7406  0.1112
10304WAT    EPW41938   3.650   6.890   1.652  0.0219  0.1518 -0.1388
10305WAT      O41939   0.649   3.142   2.673 -0.3500 -0.4624 -0.1997
10305WAT     H141940   0.603   3.192   2.617 -1.0930 -2.4515 -1.4619
10305WAT     H241941   0.604   3.148   2.748 -0.2739  0.9176 -0.2396
10305WAT    EPW41942   0.636   3.151   2.676 -0.4485 -0.5524 -0.3920
10306WAT      O41943   1.917   3.278   1.175  0.0695  0.3805  0.3358
10306WAT     H141944   1.949   3.344   1.127  0.4708  0.5164  0.7858
10306WAT     H241945   1.914   3.310   1.256 -1.4067  0.4404  0.2870
10306WAT    EPW41946   1.921   3.292   1.180 -0.0893  0.4094  0.3950
10307WAT      O41947   0.810   0.467   4.416 -0.5771  0.3307 -0.2600
10307WAT     H141948   0.820   0.394   4.370 -0.8891  1.2337 -1.8641
10307WAT     H241949   0.727   0.490   4.400  0.0636  2.0439 -1.4558
10307WAT    EPW41950   0.799   0.460   4.407 -0.5285  0.7172 -0.6736
10308WAT      O41951   5.977   1.255   4.437 -0.1824  0.2644  0.1638
10308WAT     H141952   5.902   1.291   4.408 -0.4436  0.3056  0.8629
10308WAT     H241953   5.977   1.275   4.522 -0.4712 -1.6326  0.6502
10308WAT    EPW41954   5.966   1.263   4.445 -0.2636 -0.0098  0.3389
10309WAT      O41955   5.729   6.837   5.986 -0.5549  0.5590 -0.4147
10309WAT     H141956   5.800   6.811   6.030 -1.3438 -2.1841 -0.5657
10309WAT     H241957   5.755   6.835   5.903 -0.0491  2.4252 -0.3543
10309WAT    EPW41958   5.743   6.833   5.980 -0.5967  0.4295 -0.4281
10310WAT      O41959   5.976   1.479   5.616 -0.8696 -0.0181 -0.2244
10310WAT     H141960   5.956   1.434   5.545 -1.6063 -1.2888  0.7368
10310WAT     H241961   5.950   1.560   5.598 -2.5161 -0.6434 -0.8252
10310WAT    EPW41962   5.969   1.484   5.603 -1.2216 -0.2982 -0.1711
10311WAT      O41963   6.166   2.780   0.045 -0.4276 -0.5853 -0.0743
10311WAT     H141964   6.159   2.715   0.101  0.4734 -0.7898 -0.1877
10311WAT     H241965   6.252   2.786   0.029 -0.3914  1.0941  0.4923
10311WAT    EPW41966   6.178   2.772   0.051 -0.2892 -0.3674 -0.0074
10312WAT      O41967   1.601   5.460   1.912 -0.4923  0.0186 -0.0517
10312WAT     H141968   1.646   5.483   1.983 -0.3733  0.0701 -0.1449
10312WAT     H241969   1.645   5.392   1.880 -0.8296 -0.3306  0.2104
10312WAT    EPW41970   1.614   5.453   1.918 -0.5246 -0.0254 -0.0267
10313WAT      O41971   2.395   6.052   7.066  0.2111  0.1218  0.2286
10313WAT     H141972   2.323   6.102   7.070  1.2182  1.5800  1.2055
10313WAT     H241973   2.445   6.094   7.008  1.0838  0.2748  1.0752
10313WAT    EPW41974   2.391   6.065   7.058  0.4888  0.3598  0.4980
10314WAT      O41975   2.265   4.725   4.585  0.2338  0.0842 -0.1155
10314WAT     H141976   2.252   4.697   4.503  0.0021  0.5236 -0.2290
10314WAT     H241977   2.246   4.810   4.581 -0.1009  0.0425  0.4651
10314WAT    EPW41978   2.260   4.733   4.572  0.1502  0.1430 -0.0465
10315WAT      O41979   1.694   6.294   2.298 -0.0244  0.0556  0.1580
10315WAT     H141980   1.648   6.344   2.352 -0.2712  1.0862 -0.9788
10315WAT     H241981   1.738   6.351   2.248 -0.2518 -0.8414 -1.1179
10315WAT    EPW41982   1.694   6.309   2.298 -0.0945  0.0753 -0.1984
10316WAT      O41983   5.866   5.606   5.489  0.2434  0.4017 -0.5685
10316WAT     H141984   5.889   5.690   5.497  0.4136  0.1887  2.0316
10316WAT     H241985   5.930   5.563   5.529 -0.9717 -0.7793  0.2062
10316WAT    EPW41986   5.879   5.612   5.496  0.0891  0.1958 -0.0700
10317WAT      O41987   6.120   6.687   0.075  0.0286 -0.0894 -0.2903
10317WAT     H141988   6.146   6.624   0.131  0.0099  0.2782  0.1394
10317WAT     H241989   6.033   6.678   0.074  0.0294 -0.1031 -0.2612
10317WAT    EPW41990   6.111   6.676   0.083  0.0260 -0.0371 -0.2225
10318WAT      O41991   0.569   6.763   2.072 -0.5895  0.2261 -0.3310
10318WAT     H141992   0.533   6.706   2.017  0.4329 -0.4218 -0.3706
10318WAT     H241993   0.507   6.777   2.131 -1.4725  0.4274 -1.2889
10318WAT    EPW41994   0.555   6.756   2.073 -0.5689  0.1602 -0.4784
10319WAT      O41995   2.962   4.878   6.606 -0.4813 -0.3698 -0.0953
10319WAT     H141996   2.966   4.956   6.568  1.5437 -1.4282 -2.3153
10319WAT     H241997   3.024   4.882   6.668  1.1916 -0.8148 -1.6488
10319WAT    EPW41998   2.972   4.890   6.610  0.0650 -0.5919 -0.6527
10320WAT      O41999   4.853   3.764   0.628 -0.0152  0.6338  0.5190
10320WAT     H142000   4.812   3.829   0.669  0.7377  2.2025 -1.0962
10320WAT     H242001   4.861   3.793   0.546  3.0930 -0.1372  0.4192
10320WAT    EPW42002   4.848   3.778   0.622  0.5552  0.7516  0.2657
10321WAT      O42003   5.309   1.830   4.647  0.0076  0.0584  0.2114
10321WAT     H142004   5.286   1.804   4.728  1.7114  1.1158  1.0939
10321WAT     H242005   5.396   1.823   4.647  0.0781  0.5894 -1.3653
10321WAT    EPW42006   5.318   1.825   4.659  0.2697  0.2930  0.1089
10322WAT      O42007   3.191   3.060   6.662 -0.3622  0.1421 -0.0035
10322WAT     H142008   3.192   2.979   6.695  0.8002 -0.3159 -1.1002
10322WAT     H242009   3.209   3.048   6.578  0.9328  1.6356  0.0302
10322WAT    EPW42010   3.193   3.046   6.655  0.0008  0.2951 -0.1605
10323WAT      O42011   6.100   4.260   2.193  0.0430 -0.0528  0.5495
10323WAT     H142012   6.104   4.216   2.118 -0.1155 -1.2146  1.1993
10323WAT     H242013   6.158   4.219   2.244 -1.5383 -0.8106  1.8177
10323WAT    EPW42014   6.109   4.247   2.190 -0.2140 -0.3363  0.8328
10324WAT      O42015   1.886   1.436   0.801 -0.0285 -0.1774  0.0886
10324WAT     H142016   1.895   1.456   0.717 -0.2034 -0.3052  0.0368
10324WAT     H242017   1.957   1.390   0.819  0.2991  0.3480  0.1675
10324WAT    EPW42018   1.898   1.432   0.791 -0.0060 -0.1187  0.0926
10325WAT      O42019   0.012   0.219   3.328  0.4835 -0.3634  0.4335
10325WAT     H142020  -0.010   0.161   3.266  0.1987 -0.6582  0.8122
10325WAT     H242021   0.058   0.171   3.385  3.3417  0.4411 -0.9624
10325WAT    EPW42022   0.016   0.204   3.327  0.8636 -0.2881  0.2832
10326WAT      O42023   2.664   1.729   3.456 -0.2351 -0.3405 -0.2073
10326WAT     H142024   2.672   1.663   3.400 -0.8730 -0.3513 -0.2924
10326WAT     H242025   2.744   1.765   3.457  0.3139 -1.5160  0.3478
10326WAT    EPW42026   2.677   1.724   3.448 -0.2482 -0.5158 -0.1378
10327WAT      O42027   0.542   3.816   0.962 -0.6417  0.6737 -0.5067
10327WAT     H142028   0.568   3.761   0.900  1.3927  0.3554  0.5523
10327WAT     H242029   0.609   3.872   0.970 -1.3010  1.3490  0.6560
10327WAT    EPW42030   0.556   3.816   0.954 -0.4385  0.7264 -0.1785
10328WAT      O42031   7.161   4.551   0.197 -0.2801  0.0594  0.7228
10328WAT     H142032   7.217   4.486   0.180 -0.9420 -0.2593 -0.3295
10328WAT     H242033   7.189   4.616   0.145 -1.6260 -0.5365 -0.8336
10328WAT    EPW42034   7.174   4.551   0.187 -0.5767 -0.0757  0.3375
10329WAT      O42035   2.976   3.224   6.633  0.1737 -0.6076  0.4362
10329WAT     H142036   3.057   3.193   6.629  0.5022  0.1281  1.0596
10329WAT     H242037   2.951   3.230   6.550  0.4861 -1.5356  0.2734
10329WAT    EPW42038   2.984   3.220   6.620  0.2683 -0.6360  0.5042
10330WAT      O42039   2.440   2.610   3.338 -0.3120 -0.5378  0.2767
10330WAT     H142040   2.382   2.675   3.337 -0.7252 -0.8932  1.0106
10330WAT     H242041   2.408   2.553   3.395  0.7209 -0.7692  0.6558
10330WAT    EPW42042   2.427   2.611   3.346 -0.2205 -0.6245  0.4411
10331WAT      O42043   4.337   0.392   3.181 -0.8600  0.3516 -0.1183
10331WAT     H142044   4.291   0.450   3.228 -1.2319 -0.3629  0.4289
10331WAT     H242045   4.351   0.433   3.105 -0.3589  1.4895  0.5576
10331WAT    EPW42046   4.332   0.407   3.177 -0.8409  0.4141  0.0624
10332WAT      O42047   4.947   2.208   2.272 -0.4492 -0.3769 -0.2482
10332WAT     H142048   4.982   2.255   2.337 -3.3798  0.7067  0.7436
10332WAT     H242049   4.930   2.131   2.309  0.7512 -0.9076 -0.7333
10332WAT    EPW42050   4.950   2.204   2.287 -0.7048 -0.2952 -0.1734
10333WAT      O42051   2.136   6.235   1.494 -0.1271 -0.1070  0.1460
10333WAT     H142052   2.058   6.273   1.501  0.0300  0.3555 -0.5218
10333WAT     H242053   2.124   6.176   1.430 -0.2152 -0.8063  0.7830
10333WAT    EPW42054   2.123   6.232   1.485 -0.1169 -0.1420  0.1414
10334WAT      O42055   5.772   5.095   1.304  0.2311 -0.3594  0.5144
10334WAT     H142056   5.805   5.021   1.334  0.2212 -0.0858  1.2144
10334WAT     H242057   5.823   5.156   1.340  1.3123 -0.0559 -1.3573
10334WAT    EPW42058   5.785   5.093   1.314  0.3893 -0.2742  0.3413
10335WAT      O42059   7.005   2.276   1.390  0.2709  0.4406  0.3499
10335WAT     H142060   6.964   2.290   1.466 -0.6690 -1.2558  0.2100
10335WAT     H242061   7.084   2.249   1.414 -0.2952 -0.9272  0.7957
10335WAT    EPW42062   7.010   2.274   1.405  0.0484 -0.0121  0.3951
10336WAT      O42063   2.550   6.124   7.328  0.5528  0.3566  0.4912
10336WAT     H142064   2.485   6.100   7.275 -0.1364 -0.9650  1.8717
10336WAT     H242065   2.618   6.133   7.273  0.1836 -2.1756 -0.5428
10336WAT    EPW42066   2.551   6.122   7.312  0.3965 -0.2127  0.5424
10337WAT      O42067   1.397   1.214   3.733  0.4482 -0.0666  0.1401
10337WAT     H142068   1.455   1.153   3.754  0.5189  0.2490  0.8776
10337WAT     H242069   1.321   1.182   3.762  0.0837 -0.8648 -1.5663
10337WAT    EPW42070   1.394   1.201   3.740  0.4048 -0.1379 -0.0030
10338WAT      O42071   3.886   1.113   1.934  0.1998  0.3544  0.1330
10338WAT     H142072   3.903   1.195   1.960  1.7976  0.2480 -0.4559
10338WAT     H242073   3.871   1.122   1.848  0.1806  0.0559  0.1061
10338WAT    EPW42074   3.886   1.127   1.925  0.4330  0.2946  0.0421
10339WAT      O42075   2.489   3.463   0.274 -0.1873 -0.2107 -0.0215
10339WAT     H142076   2.459   3.428   0.200 -0.3316 -2.0321  0.8322
10339WAT     H242077   2.572   3.435   0.276 -0.6393 -1.5336  1.2502
10339WAT    EPW42078   2.497   3.454   0.263 -0.2754 -0.6752  0.2925
10340WAT      O42079   4.929   0.183   5.581 -0.5014 -0.2626  0.1688
10340WAT     H142080   4.934   0.244   5.519 -2.5775  0.8202  0.9740
10340WAT     H242081   4.913   0.110   5.536 -1.3246  0.3946 -0.6474
10340WAT    EPW42082   4.927   0.181   5.565 -0.9297 -0.0055  0.1672
10341WAT      O42083   2.220   4.555   6.283  0.1923  0.1553  0.2242
10341WAT     H142084   2.168   4.624   6.299  2.2619  2.0046 -0.5143
10341WAT     H242085   2.295   4.576   6.324  0.4130 -2.4691  1.3798
10341WAT    EPW42086   2.223   4.569   6.292  0.5306  0.0408  0.2858
10342WAT      O42087   6.459   6.560   6.460  0.4043  0.0958 -0.1381
10342WAT     H142088   6.542   6.581   6.477 -0.0562  1.6002  0.4311
10342WAT     H242089   6.455   6.475   6.479  2.3446 -0.5789 -2.3454
10342WAT    EPW42090   6.471   6.550   6.466  0.6229  0.2183 -0.3801
10343WAT      O42091   6.859   6.399   4.333 -0.3603  0.1365 -0.0933
10343WAT     H142092   6.824   6.341   4.278  0.0234  0.2097 -0.4220
10343WAT     H242093   6.835   6.476   4.299 -1.8950  0.1752  1.0168
10343WAT    EPW42094   6.850   6.402   4.320 -0.5304  0.1530  0.0221
10344WAT      O42095   5.167   6.946   2.872 -0.2594 -0.0273  0.1026
10344WAT     H142096   5.089   6.976   2.848  0.4868  0.8699 -1.3921
10344WAT     H242097   5.155   6.860   2.881 -1.0418 -0.1498 -1.7614
10344WAT    EPW42098   5.154   6.938   2.870 -0.2647  0.0872 -0.3936
10345WAT      O42099   3.049   3.755   0.182 -0.5255  0.6834  0.5057
10345WAT     H142100   3.107   3.810   0.147 -1.9238  0.6905 -2.0085
10345WAT     H242101   3.085   3.676   0.169 -1.3408  0.6365 -1.7250
10345WAT    EPW42102   3.063   3.751   0.175 -0.8525  0.6775 -0.1952
10346WAT      O42103   3.756   0.116   4.082 -0.2714  0.1274  0.0605
10346WAT     H142104   3.725   0.164   4.148 -2.7559 -1.6470  0.3468
10346WAT     H242105   3.694   0.123   4.021 -1.1368 -3.0475  0.3691
10346WAT    EPW42106   3.742   0.124   4.083 -0.7663 -0.6037  0.1484
10347WAT      O42107   2.431   6.967   2.726  0.4385 -0.1344 -0.0523
10347WAT     H142108   2.473   6.942   2.654  1.2726  0.1436  0.3273
10347WAT     H242109   2.469   7.042   2.748  0.3259 -0.3066  0.7786
10347WAT    EPW42110   2.442   6.974   2.719  0.5451 -0.1188  0.1265
10348WAT      O42111   0.251   4.352   3.326 -0.6822  0.4322 -0.0924
10348WAT     H142112   0.203   4.288   3.291 -2.0799  0.6472  1.3129
10348WAT     H242113   0.259   4.328   3.410  3.3684 -0.5603 -0.5325
10348WAT    EPW42114   0.245   4.339   3.333 -0.2903  0.3174  0.0502
10349WAT      O42115   7.186   6.899   7.354 -0.5147 -0.2936 -0.4857
10349WAT     H142116   7.111   6.912   7.397  0.2556 -1.2593  1.2724
10349WAT     H242117   7.247   6.917   7.415  0.6411 -1.5988 -1.2125
10349WAT    EPW42118   7.184   6.904   7.370 -0.2302 -0.6291 -0.3333
10350WAT      O42119   1.165   3.002   6.905  0.2715 -0.0536  0.0863
10350WAT     H142120   1.240   2.985   6.945  0.9565  0.5357 -0.9268
10350WAT     H242121   1.181   3.074   6.859 -0.3398 -0.9212 -1.5855
10350WAT    EPW42122   1.178   3.010   6.904  0.2824 -0.0947 -0.3103
10351WAT      O42123   2.621   1.733   5.320  0.6462 -0.0179  0.6413
10351WAT     H142124   2.559   1.769   5.369  0.8453 -0.7238  1.4372
10351WAT     H242125   2.578   1.704   5.250  0.3513  0.9607  0.3996
10351WAT    EPW42126   2.606   1.734   5.317  0.6320  0.0224  0.7231
10352WAT      O42127   4.031   2.337   1.788  0.0538  0.1005 -0.2855
10352WAT     H142128   4.055   2.328   1.705 -0.1802 -0.7078 -0.2708
10352WAT     H242129   3.993   2.416   1.790  1.4438  0.8164 -0.6045
10352WAT    EPW42130   4.029   2.348   1.776  0.2246  0.0868 -0.3305
10353WAT      O42131   1.513   1.955   0.785 -0.4658 -0.1397 -0.2927
10353WAT     H142132   1.562   1.987   0.850 -3.2428  1.4622  1.1848
10353WAT     H242133   1.484   2.026   0.744 -0.4468 -1.0881 -2.0601
10353WAT    EPW42134   1.516   1.970   0.789 -0.8732 -0.0432 -0.3355
10354WAT      O42135   2.424   4.592   2.609  0.5649  0.0455 -0.2039
10354WAT     H142136   2.435   4.580   2.524  1.8078  1.1195 -0.2299
10354WAT     H242137   2.505   4.600   2.639  0.2260 -1.3276  1.2721
10354WAT    EPW42138   2.438   4.591   2.601  0.6984  0.0013  0.0103
10355WAT      O42139   4.397   3.859   2.876  0.3813 -0.3392 -0.0870
10355WAT     H142140   4.407   3.888   2.794  3.0302  0.6191  0.4781
10355WAT     H242141   4.359   3.926   2.916 -0.9701 -0.8291 -0.4855
10355WAT    EPW42142   4.393   3.873   2.869  0.5730 -0.2700 -0.0624
10356WAT      O42143   3.832   6.291   3.012  0.6774  0.0557 -0.6187
10356WAT     H142144   3.887   6.292   3.080  0.4772 -1.6850 -0.3963
10356WAT     H242145   3.765   6.340   3.039  0.1797 -1.3620  0.8382
10356WAT    EPW42146   3.831   6.299   3.026  0.5743 -0.4109 -0.3706
10357WAT      O42147   3.049   5.780   3.738  0.1867  0.2129 -0.7526
10357WAT     H142148   3.080   5.732   3.804 -1.4431 -1.9166 -1.3906
10357WAT     H242149   2.976   5.737   3.715  0.1678  1.4197 -3.2832
10357WAT    EPW42150   3.042   5.766   3.744 -0.0568  0.0766 -1.2207
10358WAT      O42151   5.428   2.452   7.158 -0.0180 -0.1551 -0.8154
10358WAT     H142152   5.397   2.384   7.113 -0.8059  0.0871 -0.6613
10358WAT     H242153   5.356   2.500   7.174  0.6806  1.4589 -2.1718
10358WAT    EPW42154   5.413   2.449   7.154 -0.0312  0.1191 -0.9930
10359WAT      O42155   0.324   1.477   1.406  0.4994  0.0631 -0.3958
10359WAT     H142156   0.297   1.552   1.371  0.7078  0.4854  0.3210
10359WAT     H242157   0.273   1.417   1.368 -1.2235  0.7889  0.6181
10359WAT    EPW42158   0.312   1.479   1.395  0.2757  0.2327 -0.1401
10360WAT      O42159   6.217   1.488   3.036  0.1199  0.7828  0.5960
10360WAT     H142160   6.298   1.502   3.065  0.5765 -1.0203  0.3192
10360WAT     H242161   6.220   1.405   3.007 -1.5847  0.9665 -0.2198
10360WAT    EPW42162   6.230   1.478   3.036 -0.0644  0.5436  0.4346
10361WAT      O42163   7.044   6.721   0.560 -0.5478 -0.4157 -0.0968
10361WAT     H142164   7.019   6.777   0.498  1.8381 -1.7965 -2.5384
10361WAT     H242165   7.123   6.696   0.534  0.2226 -1.8011  3.1072
10361WAT    EPW42166   7.052   6.726   0.547 -0.0815 -0.8243  0.0158
10362WAT      O42167   0.987   3.049   5.897 -0.1849  1.1087  0.4487
10362WAT     H142168   0.938   3.056   5.825  1.1334  2.0619 -0.4225
10362WAT     H242169   0.934   3.075   5.961 -1.6377 -0.5023 -0.0238
10362WAT    EPW42170   0.972   3.054   5.896 -0.2048  1.0115  0.2502
10363WAT      O42171   1.452   6.679   5.071 -0.1231 -0.2259  0.3674
10363WAT     H142172   1.418   6.609   5.031  1.1862 -0.6755 -0.0147
10363WAT     H242173   1.522   6.698   5.023  0.3924  0.4194  1.3403
10363WAT    EPW42174   1.458   6.671   5.058  0.1465 -0.1970  0.4547
10364WAT      O42175   4.475   3.709   0.179 -0.3981 -0.0901 -0.2669
10364WAT     H142176   4.505   3.653   0.238 -0.4925  0.4507  0.3085
10364WAT     H242177   4.489   3.669   0.103  1.4883 -0.0108 -0.0217
10364WAT    EPW42178   4.481   3.695   0.177 -0.1334  0.0015 -0.1457
10365WAT      O42179   1.952   2.307   4.573 -0.6431 -0.6597  0.1011
10365WAT     H142180   1.884   2.260   4.600 -1.3924 -0.2452 -0.9923
10365WAT     H242181   1.929   2.332   4.492 -1.7748  4.1961  1.5602
10365WAT    EPW42182   1.938   2.304   4.565 -0.9210  0.1189  0.1551
10366WAT      O42183   6.608   2.408   4.903 -0.1009 -0.7809 -0.5210
10366WAT     H142184   6.604   2.322   4.915  1.5003 -0.8264 -0.0632
10366WAT     H242185   6.685   2.430   4.938 -0.6839  0.9122 -0.2014
10366WAT    EPW42186   6.619   2.398   4.910  0.0495 -0.5375 -0.4062
10367WAT      O42187   0.553   5.664   1.306 -0.3962  0.5300  0.3221
10367WAT     H142188   0.545   5.741   1.346 -0.7942 -0.4775  2.2777
10367WAT     H242189   0.471   5.645   1.283 -0.9472 -0.8697  3.0371
10367WAT    EPW42190   0.540   5.673   1.308 -0.5364  0.1744  1.0121
10368WAT      O42191   1.236   0.599   2.053  0.5481  0.5155  0.2435
10368WAT     H142192   1.322   0.587   2.066  0.7250  0.1797 -1.0868
10368WAT     H242193   1.223   0.565   1.974 -0.7986  0.6723  0.3878
10368WAT    EPW42194   1.247   0.592   2.044  0.3753  0.4891  0.0683
10369WAT      O42195   5.159   4.055   0.423  0.0143 -0.1116 -0.4882
10369WAT     H142196   5.204   4.037   0.350  1.4054  3.2545 -0.6680
10369WAT     H242197   5.222   4.070   0.482 -1.0736 -1.9840  1.2792
10369WAT    EPW42198   5.175   4.055   0.421  0.0591  0.1091 -0.2537
10370WAT      O42199   4.514   7.061   4.272  0.3411  0.0630  0.8312
10370WAT     H142200   4.588   7.024   4.302  0.3506 -0.7973 -0.1823
10370WAT     H242201   4.453   7.003   4.293  0.1222  0.2142  0.6059
10370WAT    EPW42202   4.516   7.047   4.280  0.3102 -0.0418  0.6482
10371WAT      O42203   2.271   1.827   4.906 -0.0858  0.4682  0.3393
10371WAT     H142204   2.237   1.749   4.923 -1.0865  0.4628 -1.4826
10371WAT     H242205   2.237   1.848   4.829 -0.1166  2.8726  0.9308
10371WAT    EPW42206   2.261   1.819   4.898 -0.2382  0.8226  0.1575
10372WAT      O42207   2.895   3.797   0.522 -0.1609  0.0187  0.0942
10372WAT     H142208   2.857   3.834   0.453 -2.1131 -2.1660 -0.1213
10372WAT     H242209   2.845   3.823   0.589  0.9759  1.0954  0.5768
10372WAT    EPW42210   2.882   3.807   0.522 -0.2814 -0.1450  0.1337
10373WAT      O42211   1.015   2.329   0.606 -0.5356 -0.3266 -0.2067
10373WAT     H142212   1.005   2.416   0.608 -0.0195 -0.2405 -0.8589
10373WAT     H242213   1.100   2.318   0.621 -0.6656 -0.7474  0.2390
10373WAT    EPW42214   1.026   2.341   0.608 -0.4786 -0.3761 -0.2372
10374WAT      O42215   5.562   0.516   4.922  0.3732 -0.1627  0.0322
10374WAT     H142216   5.625   0.562   4.961  1.1722 -2.0246  1.0727
10374WAT     H242217   5.500   0.510   4.984 -0.5216  0.9879 -0.7137
10374WAT    EPW42218   5.562   0.522   4.937  0.3591 -0.2678  0.0757
10375WAT      O42219   0.216   5.012   4.206  0.2153  0.1932  0.5817
10375WAT     H142220   0.268   4.999   4.138 -3.5063 -0.0533 -2.6118
10375WAT     H242221   0.186   5.093   4.193  0.0909  0.5015  2.5394
10375WAT    EPW42222   0.219   5.022   4.194 -0.3528  0.2023  0.3992
10376WAT      O42223   2.187   0.845   3.186  0.0768  0.1782 -0.2143
10376WAT     H142224   2.208   0.828   3.269  0.5951  0.2235 -0.3291
10376WAT     H242225   2.264   0.863   3.150 -0.1181 -0.1006 -0.7672
10376WAT    EPW42226   2.202   0.845   3.193  0.1246  0.1437 -0.3129
10377WAT      O42227   2.686   2.673   6.356 -0.2414  0.0177  0.3549
10377WAT     H142228   2.722   2.619   6.414  2.4265  0.9828 -0.2652
10377WAT     H242229   2.675   2.623   6.285 -1.2330 -0.5479  0.8767
10377WAT    EPW42230   2.690   2.657   6.354  0.0062  0.0767  0.3404
10378WAT      O42231   2.178   3.124   3.947  0.4354 -0.3821  0.2238
10378WAT     H142232   2.194   3.064   3.886  2.7555  0.1278  0.2105
10378WAT     H242233   2.258   3.157   3.965 -0.3374  0.5205  2.4560
10378WAT    EPW42234   2.192   3.120   3.941  0.6640 -0.1734  0.5516
10379WAT      O42235   7.073   0.425   4.459 -0.5285 -0.4383 -0.4758
10379WAT     H142236   7.143   0.374   4.457 -1.6216 -1.9929 -0.4043
10379WAT     H242237   7.021   0.388   4.518 -0.4524  2.0700  1.3433
10379WAT    EPW42238   7.075   0.412   4.467 -0.6787 -0.2974 -0.1965
10380WAT      O42239   2.376   0.346   3.050 -0.1906 -0.5426 -0.2373
10380WAT     H142240   2.395   0.318   2.970  1.6828 -1.5124  0.4837
10380WAT     H242241   2.449   0.330   3.095 -0.3558  2.0158  1.1602
10380WAT    EPW42242   2.390   0.339   3.045  0.0617 -0.3079  0.0757
10381WAT      O42243   3.141   3.472   6.295 -0.2769  0.7661 -0.5363
10381WAT     H142244   3.214   3.425   6.286 -0.8579 -0.2931  0.1286
10381WAT     H242245   3.136   3.485   6.381 -2.2501 -1.4711 -0.2337
10381WAT    EPW42246   3.151   3.467   6.306 -0.6542  0.2791 -0.3934
10382WAT      O42247   4.338   4.554   1.758  0.3455  0.9206  0.0188
10382WAT     H142248   4.317   4.538   1.674 -0.4717 -2.7013  0.7585
10382WAT     H242249   4.421   4.580   1.753  0.5063  0.2430 -1.9082
10382WAT    EPW42250   4.347   4.555   1.745  0.2485  0.2855 -0.1566
10383WAT      O42251   0.115   5.118   6.314  0.6551  0.5749 -0.0973
10383WAT     H142252   0.107   5.200   6.344  0.4194  1.0454 -1.3734
10383WAT     H242253   0.033   5.093   6.301  0.7206  0.0567  0.4641
10383WAT    EPW42254   0.102   5.127   6.317  0.6300  0.5679 -0.2029
10384WAT      O42255   0.984   6.624   5.827 -0.1954 -0.1815  0.1502
10384WAT     H142256   1.042   6.684   5.804 -0.1900 -0.7977 -1.5507
10384WAT     H242257   0.908   6.659   5.804 -0.5368  0.5154  2.1420
10384WAT    EPW42258   0.981   6.638   5.821 -0.2450 -0.1696  0.1932
10385WAT      O42259   4.518   2.517   4.470 -0.2465  0.1182  0.2838
10385WAT     H142260   4.477   2.526   4.546 -1.4871  1.8989 -0.5460
10385WAT     H242261   4.581   2.577   4.474 -1.3253  1.3723 -0.6857
10385WAT    EPW42262   4.522   2.527   4.482 -0.5891  0.5665  0.0180
10386WAT      O42263   0.320   5.658   6.865 -0.0743  0.4242 -0.7433
10386WAT     H142264   0.313   5.726   6.811  0.9783  0.1683 -1.2339
10386WAT     H242265   0.314   5.589   6.812 -0.4550  0.1408 -0.3379
10386WAT    EPW42266   0.318   5.658   6.850  0.0250  0.3445 -0.7559
10387WAT      O42267   5.898   1.637   6.896 -0.1679  0.0491  0.1047
10387WAT     H142268   5.886   1.648   6.981  0.0992  0.3395  0.1109
10387WAT     H242269   5.928   1.556   6.889  1.3290  0.5349  0.4646
10387WAT    EPW42270   5.901   1.627   6.907  0.0927  0.1638  0.1588
10388WAT      O42271   2.914   4.194   2.498  0.1153  0.4866 -0.2150
10388WAT     H142272   2.985   4.231   2.465 -0.0065  0.8317 -0.0991
10388WAT     H242273   2.912   4.115   2.461  1.1624  0.0547  0.6031
10388WAT    EPW42274   2.924   4.188   2.488  0.2520  0.4738 -0.0770
10389WAT      O42275   2.788   2.416   0.959  0.0982  0.3077 -0.0136
10389WAT     H142276   2.868   2.427   0.926 -0.1229 -1.0038 -1.0198
10389WAT     H242277   2.788   2.468   1.030  1.2050  1.7362 -1.0061
10389WAT    EPW42278   2.800   2.425   0.965  0.2291  0.3250 -0.3089
10390WAT      O42279   4.815   1.817   1.514 -0.1436  0.2843 -0.3505
10390WAT     H142280   4.893   1.855   1.504 -0.6805  1.1769 -1.3207
10390WAT     H242281   4.765   1.880   1.548 -0.1769 -0.6389  1.4673
10390WAT    EPW42282   4.819   1.832   1.518 -0.2279  0.2798 -0.2253
10391WAT      O42283   6.720   2.520   4.506  0.1867  0.3969 -0.6827
10391WAT     H142284   6.739   2.435   4.513  0.1394  0.1897 -2.5481
10391WAT     H242285   6.796   2.560   4.521  0.1562  0.0598  0.4472
10391WAT    EPW42286   6.734   2.513   4.509  0.1752  0.3165 -0.7913
10392WAT      O42287   4.648   6.871   6.943 -0.0612 -0.0067 -0.0251
10392WAT     H142288   4.661   6.955   6.966 -0.9708  0.0091  0.4856
10392WAT     H242289   4.637   6.830   7.019 -2.1915 -0.1197 -0.3279
10392WAT    EPW42290   4.648   6.878   6.957 -0.5103 -0.0211  0.0056
10393WAT      O42291   3.199   1.917   7.277 -0.1932  0.0911 -0.8400
10393WAT     H142292   3.159   1.974   7.225 -1.1381 -0.3778 -0.6481
10393WAT     H242293   3.261   1.965   7.316 -0.9855  1.0051 -0.6589
10393WAT    EPW42294   3.202   1.933   7.275 -0.4498  0.1568 -0.7849
10394WAT      O42295   4.331   3.136   5.524 -0.2262  0.0402 -0.3127
10394WAT     H142296   4.254   3.147   5.562 -0.0875 -2.4155  0.8640
10394WAT     H242297   4.320   3.065   5.475  0.5614  1.2350 -2.3967
10394WAT    EPW42298   4.318   3.127   5.522 -0.0894 -0.1461 -0.4467
10395WAT      O42299   7.131   5.175   0.084  0.6082  0.1575  0.3214
10395WAT     H142300   7.127   5.201   0.001  1.2136  0.5341  0.4022
10395WAT     H242301   7.144   5.250   0.128 -0.6209  0.0895  0.8529
10395WAT    EPW42302   7.132   5.190   0.078  0.5161  0.2031  0.4119
10396WAT      O42303   4.992   1.433   0.936 -0.0797  0.2056  0.9006
10396WAT     H142304   5.057   1.482   0.966  0.3472 -0.4619  1.0679
10396WAT     H242305   5.014   1.352   0.959 -1.8140  0.1110  2.5627
10396WAT    EPW42306   5.005   1.428   0.944 -0.2728  0.0930  1.1708
10397WAT      O42307   0.312   1.753   1.321  0.2313 -0.5141 -0.1900
10397WAT     H142308   0.340   1.745   1.239 -1.9129 -0.5937 -0.9760
10397WAT     H242309   0.239   1.800   1.314  0.3903  0.1188  1.7755
10397WAT    EPW42310   0.306   1.759   1.308 -0.0620 -0.4324 -0.0158
10398WAT      O42311   1.061   1.779   5.345  0.0998 -0.1599  0.5318
10398WAT     H142312   1.148   1.777   5.331  0.0987 -0.9881  0.5951
10398WAT     H242313   1.032   1.711   5.298 -0.6776  0.8808 -0.5231
10398WAT    EPW42314   1.070   1.768   5.336 -0.0152 -0.1285  0.3853
10399WAT      O42315   3.101   4.073   3.232  0.2143 -0.1755  0.2192
10399WAT     H142316   3.048   4.142   3.221  0.6563  0.5609  2.2476
10399WAT     H242317   3.052   4.006   3.205 -0.5463  0.8183 -1.0095
10399WAT    EPW42318   3.086   4.074   3.226  0.1672  0.0801  0.3373
10400WAT      O42319   6.319   2.011   6.771  0.2676 -0.1118  0.0091
10400WAT     H142320   6.294   1.929   6.788 -0.0393  0.1551  0.9083
10400WAT     H242321   6.253   2.043   6.723 -0.3673  0.0775  0.9781
10400WAT    EPW42322   6.305   2.004   6.766  0.1285 -0.0444  0.2850
10401WAT      O42323   5.194   2.438   1.663 -0.1251  0.0982 -0.0171
10401WAT     H142324   5.200   2.524   1.652 -0.7090  0.1507  0.0596
10401WAT     H242325   5.243   2.423   1.734 -1.9271  0.7130  1.4520
10401WAT    EPW42326   5.202   2.448   1.672 -0.4775  0.1968  0.2112
10402WAT      O42327   3.825   1.732   2.496 -0.4583 -0.4824 -0.6612
10402WAT     H142328   3.892   1.678   2.511 -2.5427 -2.3826  3.2511
10402WAT     H242329   3.786   1.739   2.573 -3.5006  2.4093 -2.1812
10402WAT    EPW42330   3.829   1.725   2.509 -1.2156 -0.3359 -0.3078
10403WAT      O42331   0.854   1.881   2.860  0.6907  0.0706  0.3821
10403WAT     H142332   0.863   1.815   2.803 -1.8605 -1.6162  1.7264
10403WAT     H242333   0.794   1.932   2.822 -0.6639 -0.8095  1.2658
10403WAT    EPW42334   0.846   1.879   2.846  0.1137 -0.3086  0.7112
10404WAT      O42335   6.236   3.427   6.258 -0.0752 -0.1421 -0.2122
10404WAT     H142336   6.164   3.442   6.305  0.3652  2.2511 -0.1745
10404WAT     H242337   6.206   3.414   6.177 -0.5865  1.0006 -0.2312
10404WAT    EPW42338   6.221   3.427   6.253 -0.0857  0.3802 -0.2094
10405WAT      O42339   0.122   4.064   4.012  0.0084  0.5135  0.8910
10405WAT     H142340   0.195   4.041   4.055 -0.7567  1.3676  2.7567
10405WAT     H242341   0.076   3.990   4.009  0.1357  0.4126  1.4034
10405WAT    EPW42342   0.126   4.050   4.018 -0.0858  0.6248  1.2423
10406WAT      O42343   1.998   1.937   3.307 -0.0690 -0.1791  0.0137
10406WAT     H142344   2.070   1.891   3.290 -0.6388 -0.6107 -1.4135
10406WAT     H242345   1.960   1.893   3.373  0.7545 -0.1912  0.4816
10406WAT    EPW42346   2.003   1.923   3.314 -0.0315 -0.2446 -0.1280
10407WAT      O42347   0.042   0.383   5.582 -0.2543  0.3729 -0.6968
10407WAT     H142348   0.062   0.313   5.533 -2.6854 -1.9887  1.3841
10407WAT     H242349  -0.023   0.420   5.538  0.0737  0.5085 -1.0800
10407WAT    EPW42350   0.036   0.378   5.568 -0.5649  0.0441 -0.4460
10408WAT      O42351   6.611   1.447   4.214  0.4796  0.2600 -0.6636
10408WAT     H142352   6.645   1.520   4.181  0.2367  1.0424  0.7271
10408WAT     H242353   6.533   1.472   4.244 -0.0913 -0.8441 -1.1722
10408WAT    EPW42354   6.605   1.461   4.214  0.3594  0.2125 -0.5333
10409WAT      O42355   3.032   5.166   1.061  0.1281  0.2135  0.2741
10409WAT     H142356   2.988   5.100   1.098  1.1885  0.2030  1.6172
10409WAT     H242357   3.065   5.132   0.989  1.0899 -0.9140  1.2107
10409WAT    EPW42358   3.030   5.152   1.056  0.4268  0.0454  0.6109
10410WAT      O42359   4.254   6.135   1.108  0.5368 -0.6756  0.0256
10410WAT     H142360   4.300   6.194   1.062  1.0801 -1.9870 -1.1906
10410WAT     H242361   4.303   6.121   1.178  0.2164  0.5704  0.5309
10410WAT    EPW42362   4.268   6.142   1.111  0.5697 -0.6853 -0.0794
10411WAT      O42363   6.473   3.996   1.097 -0.2377 -0.2011  0.1758
10411WAT     H142364   6.535   3.943   1.129  1.7149  2.1000  0.5173
10411WAT     H242365   6.515   4.040   1.035 -2.1912 -0.0154 -1.0676
10411WAT    EPW42366   6.489   3.994   1.093 -0.2378  0.1662  0.0426
10412WAT      O42367   2.346   6.545   7.381 -0.3385  0.0776  0.4150
10412WAT     H142368   2.370   6.596   7.448  1.3281  1.5113 -1.1770
10412WAT     H242369   2.405   6.480   7.383  0.1595  0.5082 -0.0699
10412WAT    EPW42370   2.358   6.543   7.391 -0.0187  0.3530  0.1082
10413WAT      O42371   5.687   2.388   4.182  0.6412 -0.3600 -0.1514
10413WAT     H142372   5.736   2.399   4.111  1.4127  0.8831  0.5423
10413WAT     H242373   5.742   2.356   4.241  0.8765  1.6734  0.8401
10413WAT    EPW42374   5.702   2.385   4.180  0.7899  0.1240  0.0975
10414WAT      O42375   3.666   2.466   3.023 -0.0473 -0.1510  0.2171
10414WAT     H142376   3.664   2.450   2.937  0.3882  1.1025 -0.0454
10414WAT     H242377   3.622   2.399   3.057  0.8362 -1.3345 -0.8679
10414WAT    EPW42378   3.659   2.454   3.015  0.1475 -0.1407  0.0180
10415WAT      O42379   0.541   1.777   5.652 -0.2354  0.5185 -0.3608
10415WAT     H142380   0.598   1.808   5.594  0.5990 -0.1062  0.0919
10415WAT     H242381   0.592   1.738   5.711 -1.1596 -1.0721 -0.5354
10415WAT    EPW42382   0.557   1.776   5.652 -0.2487  0.1912 -0.3197
10416WAT      O42383   3.337   5.826   2.584  0.4681  0.3649  0.5829
10416WAT     H142384   3.264   5.778   2.579 -0.0429  1.2182 -2.0420
10416WAT     H242385   3.390   5.778   2.634 -0.6553 -2.0431 -0.3737
10416WAT    EPW42386   3.334   5.812   2.590  0.2267  0.1353  0.0538
10417WAT      O42387   1.759   1.899   1.320 -0.1238  0.2096 -0.0396
10417WAT     H142388   1.811   1.831   1.338  0.7379  1.3809  2.3072
10417WAT     H242389   1.812   1.955   1.280 -0.8539 -0.4428 -2.0411
10417WAT    EPW42390   1.774   1.897   1.317 -0.1043  0.2862  0.0114
10418WAT      O42391   6.560   3.000   4.982  0.0029  0.0404 -0.1223
10418WAT     H142392   6.630   3.019   4.934 -1.3489  0.5489 -2.0209
10418WAT     H242393   6.541   3.076   5.021  0.2394  0.0231  0.0278
10418WAT    EPW42394   6.567   3.014   4.981 -0.1618  0.1130 -0.3806
10419WAT      O42395   4.631   3.971   2.684  0.1217  0.2837  0.7052
10419WAT     H142396   4.588   3.903   2.650  1.0793 -0.1993  0.4235
10419WAT     H242397   4.597   4.039   2.641  1.8155 -0.3568 -1.9244
10419WAT    EPW42398   4.619   3.971   2.672  0.5134  0.1177  0.2751
10420WAT      O42399   5.953   1.655   6.298 -0.4844  0.8233  0.3218
10420WAT     H142400   5.997   1.670   6.224  0.7713 -2.3890  0.2408
10420WAT     H242401   6.010   1.675   6.361 -0.5910  1.0878  0.3315
10420WAT    EPW42402   5.968   1.660   6.296 -0.3147  0.3878  0.3112
10421WAT      O42403   1.861   5.051   2.675  0.4042  0.5625  0.3345
10421WAT     H142404   1.860   4.994   2.741  0.7808  0.4020  0.2045
10421WAT     H242405   1.821   5.008   2.610 -0.9250  1.1005  0.7518
10421WAT    EPW42406   1.855   5.036   2.675  0.2634  0.6183  0.3769
10422WAT      O42407   6.980   0.844   6.711  0.4108 -0.0651 -0.1027
10422WAT     H142408   6.960   0.783   6.651 -0.0459  0.4630 -0.4984
10422WAT     H242409   6.903   0.881   6.728  0.6943  0.4261  0.1178
10422WAT    EPW42410   6.966   0.840   6.705  0.3852  0.0855 -0.1286
10423WAT      O42411   0.264   5.032   6.872  0.1662 -0.0792  0.1120
10423WAT     H142412   0.241   5.110   6.903 -1.0840 -0.9271  1.4956
10423WAT     H242413   0.319   5.002   6.933  0.5803 -0.3148 -0.3743
10423WAT    EPW42414   0.269   5.039   6.886  0.0427 -0.2393  0.2445
10424WAT      O42415   7.037   2.295   3.016  0.0742  0.1216 -0.0714
10424WAT     H142416   7.039   2.300   3.103 -1.2382 -2.9080  0.2705
10424WAT     H242417   6.989   2.364   2.992 -1.1805 -0.0277  1.7953
10424WAT    EPW42418   7.030   2.306   3.025 -0.3050 -0.3480  0.2548
10425WAT      O42419   4.140   0.200   3.139 -0.3744  0.0076 -0.2102
10425WAT     H142420   4.141   0.154   3.213  0.2461 -2.2612 -1.5050
10425WAT     H242421   4.195   0.266   3.154  2.1047 -2.0662  0.4615
10425WAT    EPW42422   4.148   0.203   3.152  0.0835 -0.6339 -0.3022
10426WAT      O42423   7.221   2.658   5.036  0.3768  0.2462 -0.1124
10426WAT     H142424   7.254   2.733   5.007 -0.1144  0.2144 -0.7634
10426WAT     H242425   7.199   2.616   4.964 -1.2085  0.3167  0.3094
10426WAT    EPW42426   7.223   2.663   5.021  0.0701  0.2519 -0.1463
10427WAT      O42427   0.832   1.031   6.102  0.1152  0.2864  0.7041
10427WAT     H142428   0.757   0.987   6.090  0.0255  0.9804 -1.8744
10427WAT     H242429   0.890   0.968   6.121 -0.8856 -0.3668  1.7226
10427WAT    EPW42430   0.830   1.015   6.103 -0.0459  0.2924  0.4736
10428WAT      O42431   1.024   3.982   6.521 -0.3328 -0.6330 -0.4222
10428WAT     H142432   1.053   4.038   6.581  1.3671 -0.8908 -0.9496
10428WAT     H242433   0.979   3.923   6.568  0.1482 -0.3055  0.4852
10428WAT    EPW42434   1.022   3.981   6.537 -0.0106 -0.6227 -0.3661
10429WAT      O42435   6.430   7.081   0.073  0.4172 -0.2958 -0.0883
10429WAT     H142436   6.492   7.021   0.063  1.2681  0.5322  0.0833
10429WAT     H242437   6.356   7.036   0.064  0.9782 -1.6782  1.7012
10429WAT    EPW42438   6.428   7.065   0.070  0.6258 -0.3777  0.2014
10430WAT      O42439   1.527   0.821   7.216 -0.0700 -0.0323  0.7305
10430WAT     H142440   1.449   0.793   7.246  0.4354  0.5507  2.7707
10430WAT     H242441   1.567   0.747   7.194  0.5518 -0.9698  4.2901
10430WAT    EPW42442   1.521   0.806   7.217  0.0965 -0.0847  1.5577
10431WAT      O42443   0.662   5.105   2.414  0.4139 -0.0108  0.2489
10431WAT     H142444   0.607   5.155   2.369 -1.9351 -0.5638  2.3004
10431WAT     H242445   0.738   5.146   2.406  0.5393 -0.5848 -4.9440
10431WAT    EPW42446   0.665   5.118   2.406  0.0854 -0.1773 -0.2152
10432WAT      O42447   2.023   4.933   4.969 -0.1224  0.5600  0.0577
10432WAT     H142448   2.010   4.998   5.025  0.5533  0.4788  0.3183
10432WAT     H242449   2.105   4.945   4.942  0.7330 -1.3143  1.6329
10432WAT    EPW42450   2.033   4.944   4.973  0.1038  0.2711  0.3289
10433WAT      O42451   2.346   1.621   3.133 -0.5917 -0.3739  0.2715
10433WAT     H142452   2.317   1.701   3.152 -0.1151 -0.0634 -0.2944
10433WAT     H242453   2.278   1.581   3.097 -1.0936 -0.5151  1.3318
10433WAT    EPW42454   2.332   1.627   3.131 -0.5954 -0.3489  0.3446
10434WAT      O42455   4.863   4.870   2.622 -0.2140 -0.4835 -0.3399
10434WAT     H142456   4.821   4.939   2.588  1.7607  1.7123  1.3504
10434WAT     H242457   4.817   4.850   2.693 -0.3235 -0.3312 -0.3684
10434WAT    EPW42458   4.850   4.877   2.627  0.0615 -0.1366 -0.0944
10435WAT      O42459   4.500   5.612   0.357 -0.1375  0.5987 -0.5828
10435WAT     H142460   4.501   5.696   0.335  0.3380  0.8882  0.5056
10435WAT     H242461   4.423   5.584   0.328  0.0869  1.1721 -1.7864
10435WAT    EPW42462   4.489   5.620   0.349 -0.0341  0.7262 -0.5998
10436WAT      O42463   2.957   6.449   5.534 -0.2419 -0.0293  0.1432
10436WAT     H142464   3.032   6.493   5.539  0.9717 -2.0407  0.9875
10436WAT     H242465   2.971   6.392   5.469 -0.0561 -2.0023  1.8009
10436WAT    EPW42466   2.970   6.447   5.525 -0.0352 -0.6179  0.5128
10437WAT      O42467   4.628   3.500   3.567  0.8625  0.6577  0.2564
10437WAT     H142468   4.698   3.542   3.536  0.8022  1.6384  1.3593
10437WAT     H242469   4.608   3.443   3.504  1.9341  1.1821 -0.5876
10437WAT    EPW42470   4.635   3.498   3.553  1.0119  0.8801  0.2947
10438WAT      O42471   3.699   2.049   0.731 -0.2505  0.4391  0.3741
10438WAT     H142472   3.669   2.035   0.650  0.3855 -0.3788  0.2611
10438WAT     H242473   3.631   2.084   0.773 -0.4572  1.2948 -0.6280
10438WAT    EPW42474   3.685   2.052   0.725 -0.1871  0.4447  0.2094
10439WAT      O42475   3.401   2.170   5.243 -0.2102  0.6933  0.4549
10439WAT     H142476   3.325   2.132   5.224  0.5060 -1.0569  0.9203
10439WAT     H242477   3.413   2.226   5.177 -0.8835 -0.5681 -0.7951
10439WAT    EPW42478   3.392   2.173   5.231 -0.2038  0.2484  0.3390
10440WAT      O42479   0.514   7.085   5.567 -0.1285  0.1177 -0.0259
10440WAT     H142480   0.486   7.041   5.636  0.7085 -2.3107 -1.1278
10440WAT     H242481   0.524   7.167   5.597  1.2543 -1.0292  2.9931
10440WAT    EPW42482   0.511   7.091   5.581  0.1994 -0.4104  0.2573
10441WAT      O42483   2.633   2.603   3.777  0.4531 -0.2174 -0.0198
10441WAT     H142484   2.647   2.543   3.715  1.5897 -0.2555  0.2541
10441WAT     H242485   2.637   2.558   3.851  3.0920  0.3899  0.3175
10441WAT    EPW42486   2.635   2.588   3.779  1.0108 -0.1333  0.0705
10442WAT      O42487   4.364   1.598   4.999 -0.0125  0.1188  0.4565
10442WAT     H142488   4.317   1.612   4.926  0.7086  0.4071  0.0427
10442WAT     H242489   4.307   1.559   5.052 -0.7058  0.3913 -0.0674
10442WAT    EPW42490   4.348   1.595   4.996 -0.0084  0.2017  0.3180
10443WAT      O42491   4.985   4.421   1.311 -0.2725 -0.6787  0.7867
10443WAT     H142492   5.051   4.478   1.314 -0.9894  0.2483 -0.2684
10443WAT     H242493   4.947   4.438   1.234 -0.2144 -2.9328  0.1931
10443WAT    EPW42494   4.989   4.432   1.300 -0.3698 -0.8747  0.5431
10444WAT      O42495   6.961   1.915   5.411  0.1386  0.5638 -0.0895
10444WAT     H142496   6.994   1.846   5.452 -0.4076  0.2999 -0.0906
10444WAT     H242497   7.008   1.982   5.442 -0.2325  0.3668  0.9384
10444WAT    EPW42498   6.973   1.915   5.422  0.0031  0.4957  0.0622
10445WAT      O42499   0.066   6.176   3.954 -0.2271 -0.4952 -0.0380
10445WAT     H142500   0.123   6.178   3.888 -0.5937  1.3167 -0.3507
10445WAT     H242501   0.026   6.253   3.949 -1.1296 -0.8146  1.5594
10445WAT    EPW42502   0.069   6.188   3.944 -0.4145 -0.2747  0.1518
10446WAT      O42503   5.321   5.580   4.002  0.2047 -0.1846  0.0600
10446WAT     H142504   5.342   5.661   4.025  0.6582  0.0371 -1.0795
10446WAT     H242505   5.335   5.534   4.075  0.5928  0.6407  0.5232
10446WAT    EPW42506   5.326   5.585   4.016  0.3291 -0.0299 -0.0399
10447WAT      O42507   4.652   5.397   1.505 -0.1967 -0.3646  0.4814
10447WAT     H142508   4.670   5.434   1.428 -0.0615 -1.5370 -0.0577
10447WAT     H242509   4.632   5.315   1.485  1.4107 -1.1474  1.8392
10447WAT    EPW42510   4.652   5.391   1.491  0.0607 -0.6534  0.6024
10448WAT      O42511   2.487   4.385   7.239  0.4331 -0.0250 -0.1633
10448WAT     H142512   2.519   4.465   7.226  1.3633 -0.2544  0.5633
10448WAT     H242513   2.486   4.349   7.160 -0.7227  0.9493 -0.6151
10448WAT    EPW42514   2.492   4.391   7.226  0.3998  0.0850 -0.1227
10449WAT      O42515   1.121   6.986   1.757  0.2149 -0.6290  0.3775
10449WAT     H142516   1.144   6.943   1.830  1.2179 -0.1419  0.3726
10449WAT     H242517   1.182   7.048   1.750 -0.6957  0.2379 -0.0999
10449WAT    EPW42518   1.134   6.989   1.767  0.2285 -0.4290  0.3062
10450WAT      O42519   3.888   4.788   1.738  0.7261  0.1926 -0.1771
10450WAT     H142520   3.948   4.806   1.677  1.0583 -1.2146 -0.2801
10450WAT     H242521   3.846   4.719   1.707 -0.2982  0.5446  0.3771
10450WAT    EPW42522   3.891   4.781   1.724  0.6239  0.0367 -0.1104
10451WAT      O42523   2.543   5.503   5.132  0.1421  0.4049 -0.1509
10451WAT     H142524   2.586   5.569   5.170 -0.3326  0.5895  0.0789
10451WAT     H242525   2.514   5.456   5.200  0.4987 -0.0506 -0.3155
10451WAT    EPW42526   2.545   5.506   5.148  0.1247  0.3649 -0.1413
10452WAT      O42527   7.049   4.045   5.719  0.4559 -0.0781  0.0295
10452WAT     H142528   7.059   4.004   5.643 -1.2277 -0.6353  0.0652
10452WAT     H242529   6.989   3.997   5.761  0.6142  0.7721  1.3000
10452WAT    EPW42530   7.041   4.032   5.714  0.2305 -0.0348  0.2225
10453WAT      O42531   7.218   1.779   0.432  0.3171 -0.1100  0.8989
10453WAT     H142532   7.265   1.832   0.484  1.6756  0.4163 -0.7422
10453WAT     H242533   7.199   1.830   0.363 -1.1933 -0.8455  0.7431
10453WAT    EPW42534   7.222   1.794   0.429  0.2946 -0.1409  0.6335
10454WAT      O42535   4.148   4.550   3.814  0.2313 -0.2010  0.2919
10454WAT     H142536   4.159   4.622   3.861 -1.7484 -0.2757  0.9678
10454WAT     H242537   4.229   4.525   3.795  1.0038  1.2461  1.4994
10454WAT    EPW42538   4.161   4.557   3.818  0.0529  0.0018  0.5702
10455WAT      O42539   5.600   4.183   0.410  0.1820  0.8767 -0.7507
10455WAT     H142540   5.649   4.187   0.338  1.7467 -0.9017  0.1538
10455WAT     H242541   5.639   4.237   0.466 -0.0816  0.9935 -0.6740
10455WAT    EPW42542   5.613   4.191   0.407  0.3742  0.6312 -0.6058
10456WAT      O42543   4.886   2.323   3.167  0.2645  0.5236  0.5842
10456WAT     H142544   4.820   2.298   3.115 -0.1773  1.4300  0.6826
10456WAT     H242545   4.851   2.387   3.215  1.3752  1.4090  0.2493
10456WAT    EPW42546   4.871   2.329   3.166  0.3633  0.7883  0.5493
10457WAT      O42547   3.706   6.635   6.538 -0.0524 -0.1387  0.0534
10457WAT     H142548   3.686   6.698   6.595 -1.0112 -1.0016  0.7030
10457WAT     H242549   3.630   6.619   6.498  0.6629  0.6975 -1.7673
10457WAT    EPW42550   3.692   6.642   6.540 -0.0883 -0.1427 -0.1196
10458WAT      O42551   5.674   1.353   6.003  0.0603 -0.1740  0.3398
10458WAT     H142552   5.753   1.364   5.967  0.7489 -1.2747  1.4415
10458WAT     H242553   5.654   1.270   5.985 -1.3438  0.3453 -0.7857
10458WAT    EPW42554   5.683   1.342   5.995 -0.0454 -0.2599  0.3363
10459WAT      O42555   1.583   6.937   3.952  0.1202  0.1089 -0.0627
10459WAT     H142556   1.656   6.982   3.935  0.2853  0.5196  1.5356
10459WAT     H242557   1.587   6.923   4.038 -2.1793  1.0041  0.2582
10459WAT    EPW42558   1.595   6.941   3.962 -0.1951  0.3018  0.2208
10460WAT      O42559   0.045   3.795   4.756 -0.5671 -0.1735 -0.8132
10460WAT     H142560  -0.020   3.822   4.704 -1.1278 -1.8544 -1.0558
10460WAT     H242561   0.062   3.715   4.727  1.2175  0.0018 -0.3381
10460WAT    EPW42562   0.038   3.787   4.744 -0.3863 -0.3959 -0.7789
10461WAT      O42563   6.100   3.048   0.903 -0.1444  0.0771  0.2786
10461WAT     H142564   6.045   2.980   0.901  1.8885 -1.8349  2.5782
10461WAT     H242565   6.149   3.036   0.832  0.1321 -0.8323  0.6117
10461WAT    EPW42566   6.099   3.036   0.892  0.1968 -0.3397  0.6675
10462WAT      O42567   0.942   2.297   2.839  0.0583 -0.0396 -0.0874
10462WAT     H142568   0.913   2.271   2.761 -0.0746  0.6098 -0.2646
10462WAT     H242569   0.878   2.275   2.893  0.0825 -0.3522 -0.1852
10462WAT    EPW42570   0.928   2.290   2.835  0.0422  0.0101 -0.1280
10463WAT      O42571   1.125   3.602   3.249  0.0918  0.4323  0.1193
10463WAT     H142572   1.181   3.625   3.186 -0.6594  1.3944 -0.2122
10463WAT     H242573   1.164   3.631   3.321  1.2350 -1.1783  0.2211
10463WAT    EPW42574   1.139   3.609   3.250  0.1497  0.3365  0.0854
10464WAT      O42575   3.668   0.534   0.797 -0.0300 -0.0409 -0.5234
10464WAT     H142576   3.681   0.567   0.718 -2.8252  1.0450 -0.6218
10464WAT     H242577   3.681   0.602   0.850 -1.9009  0.2753 -0.4106
10464WAT    EPW42578   3.672   0.549   0.793 -0.7193  0.1662 -0.5213
10465WAT      O42579   2.155   3.965   0.442 -0.1855 -0.8186 -0.3435
10465WAT     H142580   2.089   3.999   0.396  0.3833  0.0484 -0.5301
10465WAT     H242581   2.212   3.940   0.380  0.6233  0.4321 -0.1272
10465WAT    EPW42582   2.153   3.966   0.426  0.0180 -0.5058 -0.3391
10466WAT      O42583   2.471   0.632   1.365  0.5663  0.2053 -0.1492
10466WAT     H142584   2.519   0.562   1.384  0.1010 -0.3794 -1.0857
10466WAT     H242585   2.452   0.665   1.444  0.4177 -0.9632  0.3205
10466WAT    EPW42586   2.476   0.627   1.380  0.4756 -0.0537 -0.2181
10467WAT      O42587   1.029   3.225   0.650 -0.5710 -0.0249 -0.1409
10467WAT     H142588   1.055   3.287   0.706 -2.0283 -0.6893  1.3685
10467WAT     H242589   1.049   3.150   0.692 -1.1551 -0.5470 -0.7828
10467WAT    EPW42590   1.036   3.223   0.665 -0.8726 -0.2002 -0.0128
10468WAT      O42591   6.544   5.018   5.127 -0.1255  0.2140 -0.6523
10468WAT     H142592   6.505   5.028   5.204 -0.5597 -1.7237 -0.5759
10468WAT     H242593   6.624   4.991   5.148 -0.7846 -2.0848 -0.8211
10468WAT    EPW42594   6.550   5.016   5.142 -0.2870 -0.4118 -0.6659
10469WAT      O42595   1.058   7.112   4.856  0.2173  0.3718  0.2759
10469WAT     H142596   1.081   7.036   4.892 -0.8547  0.2767  0.7917
10469WAT     H242597   0.988   7.136   4.901  0.7041  1.8257  0.3074
10469WAT    EPW42598   1.051   7.105   4.868  0.1308  0.5725  0.3568
10470WAT      O42599   0.747   0.142   2.541  0.4479 -0.6432  0.1477
10470WAT     H142600   0.819   0.189   2.556  0.7941 -0.8318 -0.8539
10470WAT     H242601   0.779   0.064   2.517 -0.0893 -0.7283 -0.2967
10470WAT    EPW42602   0.763   0.137   2.540  0.4197 -0.6836 -0.0659
10471WAT      O42603   4.573   5.279   4.040 -0.0686 -0.3799 -0.3717
10471WAT     H142604   4.522   5.337   3.999 -1.3710 -2.4374 -1.8162
10471WAT     H242605   4.645   5.276   3.989  0.2915  0.4089  0.0731
10471WAT    EPW42606   4.576   5.287   4.026 -0.2078 -0.5673 -0.5194
10472WAT      O42607   6.746   6.461   3.277  0.1261 -0.1649  0.1071
10472WAT     H142608   6.682   6.429   3.227  0.3098 -0.6812  0.1986
10472WAT     H242609   6.709   6.470   3.355  0.1329 -0.3711  0.1354
10472WAT    EPW42610   6.731   6.458   3.281  0.1543 -0.2716  0.1248
10473WAT      O42611   5.019   6.107   1.196 -0.1778 -0.5508 -0.6626
10473WAT     H142612   4.934   6.097   1.179 -0.1367 -0.2187 -1.0856
10473WAT     H242613   5.020   6.160   1.265 -0.3231 -1.0530 -0.2645
10473WAT    EPW42614   5.006   6.113   1.204 -0.1932 -0.5759 -0.6663
10474WAT      O42615   2.153   1.361   0.327 -0.4063  0.2224 -0.5470
10474WAT     H142616   2.092   1.393   0.381  0.5336  0.0918  0.6359
10474WAT     H242617   2.189   1.432   0.293  1.5127  0.5521  1.8905
10474WAT    EPW42618   2.149   1.376   0.330  0.0160  0.2518 -0.0122
10475WAT      O42619   0.019   0.058   6.980 -0.2093  0.2123 -0.0802
10475WAT     H142620  -0.061   0.086   6.960 -1.1010 -0.2957  2.3914
10475WAT     H242621   0.006  -0.024   7.006  1.0976  0.1496  0.4404
10475WAT    EPW42622   0.005   0.050   6.981 -0.1479  0.1280  0.3618
10476WAT      O42623   1.300   6.810   6.027 -0.5590 -0.0518 -0.2897
10476WAT     H142624   1.339   6.811   5.950 -1.1469  0.4535 -0.5870
10476WAT     H242625   1.292   6.894   6.048  1.2259 -0.1910  1.1729
10476WAT    EPW42626   1.304   6.822   6.019 -0.3822  0.0023 -0.1176
10477WAT      O42627   1.480   5.357   2.160 -0.4402 -0.4682 -0.1510
10477WAT     H142628   1.395   5.365   2.178 -0.2706  0.9868  0.1250
10477WAT     H242629   1.494   5.421   2.102  0.3586 -1.0275 -0.5802
10477WAT    EPW42630   1.469   5.368   2.154 -0.2971 -0.3359 -0.1736
10478WAT      O42631   2.905   4.312   0.912  0.2042  0.2084 -0.2460
10478WAT     H142632   2.858   4.377   0.947 -2.2258 -0.0825 -2.5852
10478WAT     H242633   2.894   4.246   0.968 -1.0784  0.5646 -0.0462
10478WAT    EPW42634   2.896   4.312   0.925 -0.3442  0.2180 -0.5620
10479WAT      O42635   0.298   3.959   0.901  0.5115  0.1703 -0.1530
10479WAT     H142636   0.366   3.916   0.936 -0.5131 -0.3301  1.2821
10479WAT     H242637   0.299   4.036   0.942 -0.3421 -0.1966  0.5734
10479WAT    EPW42638   0.308   3.964   0.912  0.2341  0.0422  0.1663
10480WAT      O42639   0.482   0.042   7.104  0.7857 -0.3045  0.3496
10480WAT     H142640   0.423   0.085   7.151 -0.5139 -1.5191 -0.0782
10480WAT     H242641   0.547   0.026   7.161 -0.6599 -1.5749  1.7379
10480WAT    EPW42642   0.483   0.046   7.120  0.3802 -0.6716  0.4915
10481WAT      O42643   6.182   0.901   2.921  0.0856  0.1273  0.4773
10481WAT     H142644   6.111   0.858   2.894  0.6566 -0.4917 -0.0450
10481WAT     H242645   6.201   0.864   2.998  0.6372 -0.6391 -0.0194
10481WAT    EPW42646   6.174   0.889   2.929  0.2514 -0.0773  0.3268
10482WAT      O42647   4.254   6.888   1.832  0.0729  0.0672  0.6877
10482WAT     H142648   4.265   6.816   1.784 -0.2716 -0.6243  1.6322
10482WAT     H242649   4.184   6.926   1.796  1.5402  1.1431 -1.2417
10482WAT    EPW42650   4.245   6.883   1.820  0.2388  0.1240  0.5422
10483WAT      O42651   1.365   0.343   0.265  0.3687  0.2548 -0.4964
10483WAT     H142652   1.344   0.259   0.271  1.7653 -0.0763  0.2628
10483WAT     H242653   1.448   0.342   0.237 -0.2720  1.4597 -2.7072
10483WAT    EPW42654   1.375   0.331   0.262  0.4804  0.3839 -0.7108
10484WAT      O42655   5.095   2.185   3.882 -0.2929 -0.1361 -0.1971
10484WAT     H142656   5.178   2.177   3.857  0.5452  0.0961  2.2322
10484WAT     H242657   5.084   2.271   3.892  0.0332 -0.2689  1.8487
10484WAT    EPW42658   5.106   2.196   3.880 -0.1209 -0.1214  0.4640
10485WAT      O42659   3.137   6.675   3.281 -0.4317  0.2184 -0.1742
10485WAT     H142660   3.082   6.637   3.226 -1.6505 -1.4719  2.0430
10485WAT     H242661   3.210   6.685   3.235 -1.6504 -0.2668 -2.3020
10485WAT    EPW42662   3.140   6.671   3.266 -0.7918 -0.1030 -0.1610
10486WAT      O42663   2.910   6.941   2.801  0.3406 -0.5015  0.0255
10486WAT     H142664   2.900   6.959   2.717  0.1854 -1.2494 -0.1259
10486WAT     H242665   2.831   6.912   2.825  0.4561 -0.5437  0.3614
10486WAT    EPW42666   2.897   6.939   2.792  0.3347 -0.6182  0.0528
10487WAT      O42667   6.275   6.386   7.022  0.8163  0.7254 -0.0392
10487WAT     H142668   6.341   6.329   7.018 -0.4692 -0.8359 -0.3187
10487WAT     H242669   6.268   6.416   6.940  1.0086  0.6883 -0.0688
10487WAT    EPW42670   6.283   6.382   7.009  0.6548  0.4892 -0.0848
10488WAT      O42671   7.108   5.600   4.519 -0.3402  0.0231  0.2248
10488WAT     H142672   7.097   5.610   4.433 -0.9728 -3.0643 -0.1681
10488WAT     H242673   7.181   5.553   4.524 -1.8227 -2.4012  1.0538
10488WAT    EPW42674   7.117   5.595   4.507 -0.6527 -0.7911  0.2893
10489WAT      O42675   7.270   2.513   0.321 -0.0235  0.5224  0.2286
10489WAT     H142676   7.256   2.594   0.351 -3.4650 -0.1508  0.8253
10489WAT     H242677   7.314   2.475   0.386  0.2140  1.4581  0.6323
10489WAT    EPW42678   7.275   2.519   0.335 -0.4968  0.5612  0.3764
10490WAT      O42679   3.383   5.188   5.391 -0.2812  0.1852 -0.1302
10490WAT     H142680   3.376   5.150   5.470 -1.7095 -0.3857 -0.4992
10490WAT     H242681   3.468   5.179   5.371  0.1869  0.6876  1.4939
10490WAT    EPW42682   3.395   5.181   5.400 -0.4230  0.1751  0.0552
10491WAT      O42683   4.157   5.416   6.791 -0.2872  0.0583 -0.1710
10491WAT     H142684   4.103   5.385   6.729 -0.9678  0.5343  0.1783
10491WAT     H242685   4.149   5.502   6.784  0.4512  0.1348 -0.1280
10491WAT    EPW42686   4.148   5.424   6.781 -0.2787  0.1399 -0.1131
10492WAT      O42687   0.852   6.261   5.766 -0.0764 -0.0329  0.0134
10492WAT     H142688   0.792   6.199   5.749  0.4571 -0.7856  0.7671
10492WAT     H242689   0.906   6.256   5.697 -1.0655  0.9075 -0.8509
10492WAT    EPW42690   0.851   6.251   5.753 -0.1437 -0.0052 -0.0030
10493WAT      O42691   4.798   5.711   4.255 -0.1502 -0.3244 -0.3793
10493WAT     H142692   4.745   5.641   4.251 -0.2733 -0.2576  0.0586
10493WAT     H242693   4.871   5.683   4.216 -0.2328 -0.6650 -0.2966
10493WAT    EPW42694   4.801   5.696   4.249 -0.1806 -0.3648 -0.3024
10494WAT      O42695   0.759   3.560   5.574 -0.4357  0.6474  0.3416
10494WAT     H142696   0.738   3.636   5.538 -0.7351 -0.2279 -1.4739
10494WAT     H242697   0.684   3.531   5.607 -1.0462 -0.1656 -1.6202
10494WAT    EPW42698   0.745   3.567   5.574 -0.5701  0.3980 -0.2164
10495WAT      O42699   5.354   4.320   7.297 -0.2348 -0.3756 -0.3561
10495WAT     H142700   5.429   4.348   7.331  0.4448 -0.3755 -1.7855
10495WAT     H242701   5.344   4.370   7.226 -0.6520 -1.5667 -1.1595
10495WAT    EPW42702   5.364   4.331   7.291 -0.1960 -0.5516 -0.6860
10496WAT      O42703   5.397   6.018   5.947 -0.0843  0.2527 -0.0943
10496WAT     H142704   5.462   6.046   5.896  0.2476  0.8224  0.6154
10496WAT     H242705   5.330   6.007   5.892  0.4901  0.0846 -0.7645
10496WAT    EPW42706   5.396   6.020   5.931  0.0496  0.3120 -0.0885
10497WAT      O42707   0.015   2.410   5.338 -0.0655 -0.4786  0.5904
10497WAT     H142708  -0.028   2.361   5.279  0.6719 -1.5020  0.8670
10497WAT     H242709  -0.048   2.459   5.373 -0.5815 -0.0915 -0.7946
10497WAT    EPW42710  -0.001   2.410   5.334 -0.0328 -0.5726  0.4267
10498WAT      O42711   1.974   5.130   3.626  0.3490 -0.0732  0.4606
10498WAT     H142712   1.918   5.067   3.606  1.1755 -0.5583 -0.4589
10498WAT     H242713   1.980   5.127   3.713 -0.7839 -0.2133  0.5425
10498WAT    EPW42714   1.967   5.120   3.636  0.3038 -0.1656  0.3369
10499WAT      O42715   1.606   0.170   6.427 -0.5202  0.5525  0.1362
10499WAT     H142716   1.616   0.085   6.447  0.7326  0.5254 -0.4942
10499WAT     H242717   1.579   0.206   6.502  2.1528  0.1387  1.4181
10499WAT    EPW42718   1.603   0.163   6.441  0.0597  0.4873  0.2325
10500WAT      O42719   5.336   1.407   5.514 -0.2888 -0.0732  0.1603
10500WAT     H142720   5.291   1.382   5.444 -2.4583  0.5353  1.2464
10500WAT     H242721   5.376   1.334   5.540  1.2043 -0.1434 -2.0683
10500WAT    EPW42722   5.335   1.393   5.508 -0.3887  0.0063 -0.0085
10501WAT      O42723   5.727   0.516   6.986  0.0321  0.2137  0.4319
10501WAT     H142724   5.759   0.510   7.067  0.6351  0.0758  0.1844
10501WAT     H242725   5.798   0.512   6.935  0.0988  4.0658 -0.0394
10501WAT    EPW42726   5.742   0.514   6.990  0.1310  0.7624  0.3257
10502WAT      O42727   0.470   5.386   3.180 -0.3537  1.1035 -0.0373
10502WAT     H142728   0.433   5.348   3.250  0.5472  0.5291  0.1371
10502WAT     H242729   0.541   5.337   3.165 -0.2882  1.5003 -1.0767
10502WAT    EPW42730   0.475   5.373   3.188 -0.2110  1.0773 -0.1651
10503WAT      O42731   4.500   3.884   3.447  0.3570 -0.1138 -0.4788
10503WAT     H142732   4.469   3.836   3.513 -0.1914 -0.1100 -0.7268
10503WAT     H242733   4.517   3.825   3.385  3.0316 -0.4268  0.3991
10503WAT    EPW42734   4.498   3.868   3.447  0.6711 -0.1595 -0.3858
10504WAT      O42735   5.576   3.883   2.671 -0.0115 -0.0087 -0.5935
10504WAT     H142736   5.601   3.967   2.664  2.6163 -0.8022 -1.9248
10504WAT     H242737   5.496   3.883   2.635  0.4748  1.7276 -1.8332
10504WAT    EPW42738   5.568   3.896   2.664  0.4486  0.1306 -0.9733
10505WAT      O42739   6.924   1.864   0.065  0.1025 -0.2294  0.0237
10505WAT     H142740   6.918   1.946   0.036  0.7166  0.2085  1.0919
10505WAT     H242741   7.006   1.858   0.093 -0.5429 -0.4945  2.0040
10505WAT    EPW42742   6.935   1.875   0.065  0.0979 -0.2039  0.4740
10506WAT      O42743   5.598   1.547   4.823  0.2148 -0.5937 -0.1946
10506WAT     H142744   5.657   1.608   4.841  1.1260 -0.5947 -2.7486
10506WAT     H242745   5.630   1.475   4.862  1.6548 -0.4586 -1.0467
10506WAT    EPW42746   5.612   1.545   4.831  0.5621 -0.5739 -0.6977
10507WAT      O42747   0.327   2.550   6.758 -0.1089 -0.2612  1.1544
10507WAT     H142748   0.375   2.484   6.788 -0.8906 -1.7051 -0.5668
10507WAT     H242749   0.268   2.563   6.821 -0.7584 -2.1366  1.0020
10507WAT    EPW42750   0.325   2.542   6.772 -0.3203 -0.7515  0.8777
10508WAT      O42751   3.565   2.220   3.176  0.4691  0.4316 -0.4738
10508WAT     H142752   3.617   2.213   3.245 -0.3144  1.1468  0.2055
10508WAT     H242753   3.488   2.242   3.210 -0.8732 -2.5698 -1.2383
10508WAT    EPW42754   3.561   2.222   3.191  0.1551  0.0939 -0.4864
10509WAT      O42755   6.091   0.981   4.463 -0.6294 -0.7785 -0.1402
10509WAT     H142756   6.085   0.960   4.548  0.2198  0.4207  0.2528
10509WAT     H242757   6.042   1.053   4.458 -0.8020 -0.9359 -0.7151
10509WAT    EPW42758   6.083   0.989   4.475 -0.5294 -0.6246 -0.1671
10510WAT      O42759   2.504   3.115   3.201 -0.5896 -0.2492  0.6231
10510WAT     H142760   2.560   3.049   3.208  0.2875  0.5605  1.4892
10510WAT     H242761   2.444   3.098   3.262 -2.1558 -1.8629 -1.2288
10510WAT    EPW42762   2.503   3.103   3.211 -0.6914 -0.3680  0.4775
10511WAT      O42763   0.512   2.060   1.551  0.0499  0.1350  0.2646
10511WAT     H142764   0.518   1.973   1.545 -0.0661  0.1995 -1.1420
10511WAT     H242765   0.583   2.082   1.598 -0.3870 -0.7663  1.3965
10511WAT    EPW42766   0.524   2.050   1.557 -0.0318  0.0114  0.2240
10512WAT      O42767   3.957   7.084   2.799  0.8927 -0.2492  0.0941
10512WAT     H142768   3.900   7.019   2.787  0.7998 -0.3740  1.0762
10512WAT     H242769   3.909   7.156   2.791  0.4487 -0.3628  1.4856
10512WAT    EPW42770   3.942   7.085   2.796  0.8134 -0.2844  0.4447
10513WAT      O42771   0.861   3.770   4.863  0.3305  0.4376 -0.4687
10513WAT     H142772   0.789   3.786   4.816 -1.2466 -2.2663  0.8213
10513WAT     H242773   0.835   3.785   4.945  0.5781 -2.3656  0.1930
10513WAT    EPW42774   0.847   3.775   4.868  0.1341 -0.3759 -0.1804
10514WAT      O42775   5.854   0.076   4.525  0.3382  0.6524 -0.2514
10514WAT     H142776   5.904   0.138   4.489  0.2543  0.5345 -0.5733
10514WAT     H242777   5.774   0.095   4.496  0.2400  0.6689  0.0274
10514WAT    EPW42778   5.850   0.088   4.515  0.3113  0.6374 -0.2578
10515WAT      O42779   2.578   5.596   6.128 -0.1231  0.2752 -0.1675
10515WAT     H142780   2.509   5.553   6.096 -0.2163 -0.9999  1.6091
10515WAT     H242781   2.635   5.595   6.062 -0.5025 -1.7678 -0.5459
10515WAT    EPW42782   2.576   5.589   6.114 -0.1929 -0.2150  0.0391
10516WAT      O42783   6.917   6.533   2.923  0.2789 -0.1116  0.0509
10516WAT     H142784   6.954   6.515   2.846  0.0727  1.4342 -0.4522
10516WAT     H242785   6.933   6.462   2.971 -0.5354 -1.5760 -1.7473
10516WAT    EPW42786   6.925   6.520   2.919  0.1282 -0.0995 -0.2891
10517WAT      O42787   7.157   6.978   1.587  0.2118  0.0690 -0.6808
10517WAT     H142788   7.161   7.050   1.637 -0.2484 -0.6133  0.3822
10517WAT     H242789   7.213   6.995   1.522 -0.0680  1.4862 -0.5938
10517WAT    EPW42790   7.166   6.991   1.585  0.1025  0.1776 -0.5109
10518WAT      O42791   0.104   3.236   7.302 -0.1565 -0.0612 -0.0748
10518WAT     H142792   0.025   3.201   7.287  0.7037 -1.1859 -2.3860
10518WAT     H242793   0.104   3.307   7.251  0.5572 -0.4328 -0.5957
10518WAT    EPW42794   0.092   3.241   7.292  0.0760 -0.2822 -0.4932
10519WAT      O42795   0.001   0.409   3.521  0.1185  0.6575  0.0554
10519WAT     H142796  -0.022   0.360   3.589  2.0119  0.1619  0.4027
10519WAT     H242797  -0.019   0.360   3.452  0.2427  0.1876  0.3486
10519WAT    EPW42798  -0.005   0.395   3.521  0.4165  0.5149  0.1500
10520WAT      O42799   1.624   6.652   1.430 -0.0640  0.3085 -0.1009
10520WAT     H142800   1.709   6.632   1.424 -0.0681 -0.0691  1.0054
10520WAT     H242801   1.619   6.701   1.501 -0.9589 -0.7139  0.5724
10520WAT    EPW42802   1.636   6.656   1.439 -0.1968  0.1017  0.1620
10521WAT      O42803   2.049   1.143   4.947 -0.0625  0.3571 -0.1303
10521WAT     H142804   2.038   1.110   4.867 -1.2958 -0.5719  0.3836
10521WAT     H242805   2.129   1.117   4.970  0.1909  0.3959 -0.9419
10521WAT    EPW42806   2.059   1.134   4.939 -0.2073  0.2256 -0.1743
10522WAT      O42807   4.176   3.445   7.335 -0.3024 -0.0140 -0.4129
10522WAT     H142808   4.211   3.508   7.286 -1.4103 -0.3733 -1.7190
10522WAT     H242809   4.208   3.372   7.300  0.4940 -0.2227  0.7109
10522WAT    EPW42810   4.185   3.444   7.323 -0.3484 -0.0979 -0.4398
10523WAT      O42811   5.121   0.460   2.005  0.0261 -0.1078  0.0778
10523WAT     H142812   5.158   0.408   1.946 -1.2651  0.6611 -1.4768
10523WAT     H242813   5.146   0.540   1.981 -0.5962  0.2256  0.5190
10523WAT    EPW42814   5.130   0.464   1.993 -0.2566  0.0551 -0.0867
10524WAT      O42815   2.281   4.027   3.015  0.0249 -0.0437 -0.1275
10524WAT     H142816   2.349   4.078   2.998  1.2792 -1.1134  1.3505
10524WAT     H242817   2.273   3.978   2.943  2.2343 -1.3341  0.3974
10524WAT    EPW42818   2.289   4.027   3.002  0.5365 -0.3923  0.1684
10525WAT      O42819   6.460   2.939   2.079  0.2191 -0.3372  0.1074
10525WAT     H142820   6.543   2.965   2.077  1.1150 -2.9134 -0.7305
10525WAT     H242821   6.437   2.937   1.995 -1.1509  1.4875  0.3920
10525WAT    EPW42822   6.469   2.942   2.067  0.1490 -0.4482  0.0256
10526WAT      O42823   5.945   0.486   6.843 -0.2687 -0.2768  0.0785
10526WAT     H142824   6.025   0.516   6.825 -0.1052  0.1023  1.3817
10526WAT     H242825   5.917   0.457   6.765  0.7525  0.4528 -0.5932
10526WAT    EPW42826   5.953   0.486   6.829 -0.0937 -0.1130  0.1718
10527WAT      O42827   2.576   5.062   5.704  0.5453  0.0729 -0.1019
10527WAT     H142828   2.524   5.110   5.653 -0.1347 -0.2979  0.2275
10527WAT     H242829   2.595   4.993   5.654  0.4859  0.0691 -0.1191
10527WAT    EPW42830   2.571   5.059   5.689  0.4361  0.0176 -0.0558
10528WAT      O42831   4.430   3.681   3.598 -0.1532  0.3883 -0.0251
10528WAT     H142832   4.362   3.635   3.628 -1.0649  0.0693 -2.3602
10528WAT     H242833   4.497   3.625   3.605 -0.2421  0.4613  1.6426
10528WAT    EPW42834   4.430   3.666   3.603 -0.3010  0.3520 -0.1237
10529WAT      O42835   1.313   0.333   4.248 -0.1937  0.6187  1.0921
10529WAT     H142836   1.267   0.408   4.249 -0.1351  0.6505  1.5413
10529WAT     H242837   1.253   0.273   4.228 -0.3070  0.7422  1.0528
10529WAT    EPW42838   1.297   0.335   4.245 -0.2018  0.6416  1.1527
10530WAT      O42839   6.559   3.339   3.410  0.5224  0.3433 -0.0077
10530WAT     H142840   6.615   3.340   3.343  0.3434 -0.8103 -0.1946
10530WAT     H242841   6.481   3.336   3.371  0.3008  1.8438  0.2524
10530WAT    EPW42842   6.556   3.339   3.395  0.4632  0.3946  0.0031
10531WAT      O42843   0.787   7.091   5.054 -0.1296  0.5735 -0.1430
10531WAT     H142844   0.759   7.132   5.126  0.0564  2.0966 -0.8991
10531WAT     H242845   0.713   7.069   5.013 -0.3424 -2.5606  1.6185
10531WAT    EPW42846   0.772   7.093   5.059 -0.1336  0.3355  0.0055
10532WAT      O42847   2.983   6.606   5.873 -0.4450 -0.3099 -0.8411
10532WAT     H142848   3.054   6.627   5.918 -1.5202 -0.2837  0.9263
10532WAT     H242849   2.917   6.631   5.924 -1.7381 -1.5766 -1.7809
10532WAT    EPW42850   2.984   6.613   5.887 -0.7949 -0.4931 -0.7189
10533WAT      O42851   6.470   6.883   1.021  0.1585 -0.5103 -0.1897
10533WAT     H142852   6.553   6.859   1.012  1.0822  2.7863 -2.5184
10533WAT     H242853   6.468   6.923   1.098  0.2222 -2.0632  0.6564
10533WAT    EPW42854   6.482   6.886   1.031  0.3043 -0.2528 -0.4087
10534WAT      O42855   2.072   5.192   6.416 -0.4917 -0.2822 -0.0743
10534WAT     H142856   2.110   5.115   6.405  0.3676  0.2002 -0.5599
10534WAT     H242857   2.111   5.243   6.357 -1.4499  0.3861 -0.1632
10534WAT    EPW42858   2.083   5.188   6.406 -0.5063 -0.1122 -0.1592
10535WAT      O42859   6.347   5.445   6.699  0.3190 -0.0094 -0.1570
10535WAT     H142860   6.346   5.532   6.709  0.1558  0.2484 -2.0282
10535WAT     H242861   6.356   5.415   6.780 -0.4774  1.7360  0.6308
10535WAT    EPW42862   6.348   5.454   6.712  0.1772  0.2866 -0.3171
10536WAT      O42863   1.021   7.198   3.563 -0.2303 -0.4191 -0.2016
10536WAT     H142864   0.972   7.217   3.493 -0.7636  1.1288  0.5273
10536WAT     H242865   0.966   7.212   3.630  0.4429 -1.3026  0.5537
10536WAT    EPW42866   1.005   7.203   3.563 -0.2096 -0.3210  0.0176
10537WAT      O42867   2.994   0.163   0.058 -0.0840  0.2999 -0.0702
10537WAT     H142868   2.976   0.090   0.014 -0.3659  1.1070 -1.3479
10537WAT     H242869   2.915   0.199   0.071  0.1308  0.9248 -0.4414
10537WAT    EPW42870   2.979   0.158   0.053 -0.0939  0.5114 -0.3138
10538WAT      O42871   0.005   0.660   0.685  0.5061  0.4481 -0.4042
10538WAT     H142872  -0.013   0.745   0.695  0.1708  0.5549 -1.6811
10538WAT     H242873  -0.064   0.630   0.640 -0.8076 -1.1522  2.4060
10538WAT    EPW42874  -0.008   0.668   0.680  0.2625  0.2275 -0.1777
10539WAT      O42875   2.689   4.554   1.875 -0.3106 -0.5987  0.0016
10539WAT     H142876   2.773   4.543   1.893 -0.1322 -0.4358 -0.7244
10539WAT     H242877   2.652   4.482   1.907  0.1495 -0.8332  0.0111
10539WAT    EPW42878   2.696   4.542   1.883 -0.2162 -0.6093 -0.1042
10540WAT      O42879   5.302   4.683   0.942 -0.0190 -0.0325  0.7084
10540WAT     H142880   5.281   4.636   0.872 -1.5245  0.9038  0.4729
10540WAT     H242881   5.377   4.648   0.969  0.0982 -1.0425 -0.7908
10540WAT    EPW42882   5.310   4.671   0.935 -0.2241 -0.0434  0.4521
10541WAT      O42883   2.432   4.722   6.363  0.2010  0.0081  0.2961
10541WAT     H142884   2.518   4.707   6.376  0.6203  0.8112 -1.2992
10541WAT     H242885   2.414   4.784   6.421  0.4743 -0.7390  1.2172
10541WAT    EPW42886   2.442   4.729   6.373  0.3033  0.0163  0.1965
10542WAT      O42887   2.043   6.256   2.881 -0.1936 -0.4749  0.0157
10542WAT     H142888   2.062   6.266   2.796  1.7430 -0.3329  0.4213
10542WAT     H242889   2.115   6.219   2.914 -0.8350 -0.3506  1.6366
10542WAT    EPW42890   2.057   6.252   2.873 -0.0023 -0.4356  0.3150
10543WAT      O42891   3.657   0.983   0.689  0.4955  0.1519 -0.3969
10543WAT     H142892   3.721   0.988   0.748  1.1844 -1.3359 -0.9647
10543WAT     H242893   3.604   1.048   0.710  1.4892  0.5572  0.9516
10543WAT    EPW42894   3.659   0.993   0.701  0.7440 -0.0080 -0.2816
10544WAT      O42895   4.764   1.384   3.358  0.8017 -0.2599 -0.5810
10544WAT     H142896   4.708   1.447   3.378  0.0790 -0.3565 -2.1230
10544WAT     H242897   4.788   1.352   3.435 -1.8272 -0.6946  0.1602
10544WAT    EPW42898   4.759   1.388   3.372  0.3066 -0.3384 -0.6993
10545WAT      O42899   5.156   4.374   3.576  0.9799 -0.8165 -0.1136
10545WAT     H142900   5.141   4.451   3.538  0.7266 -0.7617  0.0960
10545WAT     H242901   5.078   4.334   3.573  0.2055  0.2153  2.6903
10545WAT    EPW42902   5.142   4.380   3.570  0.8281 -0.6560  0.3316
10546WAT      O42903   5.443   3.661   1.673  0.6446 -0.4229  0.0240
10546WAT     H142904   5.502   3.631   1.730  0.6837  0.3787  0.4146
10546WAT     H242905   5.380   3.694   1.724  0.9998  0.9339 -0.3718
10546WAT    EPW42906   5.442   3.661   1.689  0.7029 -0.1041  0.0233
10547WAT      O42907   0.944   1.484   2.225  0.2782 -1.0055  0.2006
10547WAT     H142908   0.940   1.474   2.138 -0.1669  2.0469 -0.2568
10547WAT     H242909   1.027   1.467   2.244  0.4622 -1.3858 -0.9020
10547WAT    EPW42910   0.956   1.480   2.215  0.2397 -0.6107 -0.0298
10548WAT      O42911   1.840   2.580   0.730  0.1038 -0.1304  0.6317
10548WAT     H142912   1.882   2.585   0.806 -0.7302  1.0839  1.0335
10548WAT     H242913   1.761   2.613   0.747  0.0471  0.6094 -0.8606
10548WAT    EPW42914   1.835   2.585   0.744 -0.0278  0.1582  0.4706
10549WAT      O42915   6.854   6.034   4.956 -0.2528 -0.0766 -0.2552
10549WAT     H142916   6.938   6.010   4.956  0.4520  2.2258 -0.4965
10549WAT     H242917   6.836   6.045   4.872 -0.7645 -0.3511 -0.1891
10549WAT    EPW42918   6.864   6.032   4.944 -0.2242  0.2230 -0.2811
10550WAT      O42919   5.309   5.150   7.311 -0.4208  0.2059 -0.1913
10550WAT     H142920   5.372   5.169   7.368 -1.1355  0.8982  0.3868
10550WAT     H242921   5.335   5.187   7.237  0.0334  0.1619 -0.0533
10550WAT    EPW42922   5.322   5.158   7.309 -0.4593  0.3017 -0.0855
10551WAT      O42923   3.111   2.574   2.521  0.5217 -0.0354  0.1431
10551WAT     H142924   3.128   2.488   2.516 -0.0388 -0.1757  0.6145
10551WAT     H242925   3.115   2.590   2.607 -0.2928  0.2240  0.1342
10551WAT    EPW42926   3.114   2.564   2.533  0.3186 -0.0178  0.2114
10552WAT      O42927   0.707   6.356   1.545 -0.4920  0.3154 -0.3553
10552WAT     H142928   0.725   6.373   1.461 -1.4386  0.9836 -0.4458
10552WAT     H242929   0.655   6.286   1.541  0.1900 -0.2025 -0.2572
10552WAT    EPW42930   0.702   6.348   1.532 -0.5311  0.3376 -0.3542
10553WAT      O42931   6.558   0.295   2.698 -0.0088 -0.0534 -0.7880
10553WAT     H142932   6.631   0.249   2.711  0.5915  1.2256  0.8250
10553WAT     H242933   6.514   0.249   2.638  0.7062 -2.4611  0.4274
10553WAT    EPW42934   6.562   0.282   2.691  0.1855 -0.2201 -0.3702
10554WAT      O42935   3.179   3.507   3.927  0.1067  0.1144 -0.3036
10554WAT     H142936   3.141   3.570   3.880  1.6155  2.2641  1.1271
10554WAT     H242937   3.251   3.487   3.882  0.5549  0.7798  0.0884
10554WAT    EPW42938   3.184   3.514   3.914  0.3958  0.5302 -0.0344
10555WAT      O42939   6.097   1.605   1.393 -0.1932 -0.6954  0.0593
10555WAT     H142940   6.075   1.639   1.316  0.0731 -1.1591 -0.2291
10555WAT     H242941   6.157   1.661   1.424 -0.3283 -0.4889 -0.0540
10555WAT    EPW42942   6.103   1.618   1.386 -0.1738 -0.7334 -0.0001
10556WAT      O42943   5.294   4.285   6.139  0.1512 -0.3436  0.0776
10556WAT     H142944   5.378   4.299   6.117  0.8507 -0.7035  2.2743
10556WAT     H242945   5.251   4.298   6.065  1.9042  2.1938 -0.6133
10556WAT    EPW42946   5.300   4.289   6.125  0.5135 -0.0220  0.3001
10557WAT      O42947   2.624   2.382   2.385 -0.2231  0.4789 -0.1206
10557WAT     H142948   2.679   2.396   2.452  0.6214 -2.2622 -0.1265
10557WAT     H242949   2.668   2.411   2.316 -1.0554  3.2308  0.3785
10557WAT    EPW42950   2.639   2.389   2.385 -0.2213  0.4805 -0.0478
10558WAT      O42951   5.362   5.673   6.268  0.6905  0.0400 -0.2135
10558WAT     H142952   5.278   5.651   6.264  0.7075 -0.2896  0.9388
10558WAT     H242953   5.403   5.599   6.247  0.7061  0.3772 -1.4539
10558WAT    EPW42954   5.356   5.659   6.264  0.6953  0.0411 -0.2265
10559WAT      O42955   7.074   4.174   5.311  0.7114 -0.1479  0.3568
10559WAT     H142956   6.999   4.216   5.324 -0.8971 -2.3322 -1.1685
10559WAT     H242957   7.132   4.238   5.300 -1.3259  1.6412 -0.5259
10559WAT    EPW42958   7.072   4.190   5.312  0.1728 -0.2063  0.0011
10560WAT      O42959   4.764   2.827   2.501  0.0935  0.3215 -0.0168
10560WAT     H142960   4.720   2.893   2.539 -0.8251  1.3898 -2.6429
10560WAT     H242961   4.843   2.832   2.536 -0.3713  1.9166  0.9203
10560WAT    EPW42962   4.769   2.838   2.512 -0.1109  0.7149 -0.2663
10561WAT      O42963   1.549   2.419   0.640  0.3534 -0.2537  0.1165
10561WAT     H142964   1.550   2.500   0.671 -1.0938 -0.7243  1.5501
10561WAT     H242965   1.464   2.405   0.623  0.7059 -1.1307 -1.0606
10561WAT    EPW42966   1.536   2.429   0.642  0.1917 -0.4528  0.1544
10562WAT      O42967   2.684   5.853   6.480 -0.4215 -0.1589  0.4084
10562WAT     H142968   2.662   5.777   6.443  0.9277 -0.4382  0.1044
10562WAT     H242969   2.615   5.872   6.530 -0.3061 -2.2570  1.5229
10562WAT    EPW42970   2.671   5.844   6.482 -0.2051 -0.5101  0.5281
10563WAT      O42971   3.879   1.698   5.298 -0.0433  0.2649 -0.5487
10563WAT     H142972   3.855   1.734   5.222 -0.3812  0.3659 -0.3959
10563WAT     H242973   3.951   1.741   5.319  0.8077 -0.6431 -1.4603
10563WAT    EPW42974   3.886   1.709   5.290  0.0325  0.1457 -0.6608
10564WAT      O42975   6.308   5.768   6.729 -0.1375 -0.3317 -0.3366
10564WAT     H142976   6.307   5.835   6.784 -0.3101  1.4976 -2.4022
10564WAT     H242977   6.253   5.792   6.665  0.7673 -1.8463 -1.8022
10564WAT    EPW42978   6.300   5.781   6.727 -0.0293 -0.2852 -0.8582
10565WAT      O42979   6.861   4.203   6.157  0.2842 -0.2075 -0.8022
10565WAT     H142980   6.856   4.265   6.095 -2.1838  0.0155 -0.4904
10565WAT     H242981   6.796   4.224   6.211  3.0659  0.3352  2.6635
10565WAT    EPW42982   6.851   4.216   6.156  0.3306 -0.0944 -0.2442
10566WAT      O42983   2.924   0.034   5.637  0.5377 -0.1975 -0.0152
10566WAT     H142984   2.857   0.075   5.600 -0.5829 -1.3851  0.5958
10566WAT     H242985   2.904  -0.050   5.628  1.9299 -0.5798  0.2383
10566WAT    EPW42986   2.912   0.028   5.630  0.5778 -0.4294  0.1125
10567WAT      O42987   6.591   5.265   1.743  0.2262 -0.2536 -0.6976
10567WAT     H142988   6.650   5.325   1.718  0.3324  1.2368  2.5666
10567WAT     H242989   6.515   5.308   1.740  0.4040  0.5312  2.4915
10567WAT    EPW42990   6.589   5.281   1.739  0.2681  0.0825  0.2557
10568WAT      O42991   6.725   5.856   7.189  0.3531  0.4297  0.0786
10568WAT     H142992   6.766   5.780   7.180  1.0141  0.7060  0.6654
10568WAT     H242993   6.787   5.915   7.171  0.4175  0.8706  1.6307
10568WAT    EPW42994   6.740   5.854   7.185  0.4602  0.5356  0.3946
10569WAT      O42995   6.987   5.225   2.209 -0.1286  0.4273  0.2540
10569WAT     H142996   7.039   5.289   2.237  0.3423 -1.0495  3.0447
10569WAT     H242997   6.959   5.187   2.283 -2.0789 -1.2732 -1.2409
10569WAT    EPW42998   6.990   5.229   2.224 -0.3471 -0.0421  0.4454
10570WAT      O42999   4.129   6.715   0.581  0.0784  0.3357 -0.1866
10570WAT     H143000   4.116   6.795   0.548  0.2330  0.2973 -0.3442
10570WAT     H243001   4.068   6.667   0.542  3.3081 -0.8494 -4.5095
10570WAT    EPW43002   4.118   6.720   0.570  0.5784  0.1550 -0.8485
10571WAT      O43003   7.048   4.022   6.956  0.2247  0.7559  0.3330
10571WAT     H143004   7.001   3.949   6.949  2.5049 -0.7672 -0.3043
10571WAT     H243005   7.043   4.043   7.040  0.0427 -0.5190  0.6516
10571WAT    EPW43006   7.040   4.015   6.967  0.5346  0.3426  0.2859
10572WAT      O43007   5.813   6.864   6.351 -0.4922  0.5629  0.8208
10572WAT     H143008   5.875   6.804   6.363 -1.1014  0.1250  1.8434
10572WAT     H243009   5.757   6.825   6.297  0.3119  1.1201 -0.4634
10572WAT    EPW43010   5.814   6.850   6.345 -0.4634  0.5806  0.7821
10573WAT      O43011   2.378   2.151   6.271 -0.2325 -0.3604 -0.4707
10573WAT     H143012   2.399   2.227   6.233 -0.5235  0.0206  0.1142
10573WAT     H243013   2.291   2.147   6.262  0.0197 -1.9916 -2.9978
10573WAT    EPW43014   2.368   2.162   6.264 -0.2383 -0.5451 -0.7576
10574WAT      O43015   2.137   4.116   5.007  0.0121 -0.3971 -0.4781
10574WAT     H143016   2.150   4.197   4.975  2.2189 -0.3398  0.4170
10574WAT     H243017   2.117   4.130   5.091 -0.7283 -0.7687 -0.5799
10574WAT    EPW43018   2.136   4.130   5.015  0.2287 -0.4436 -0.3609
10575WAT      O43019   1.571   2.966   5.188 -0.1721  0.1272 -0.0401
10575WAT     H143020   1.657   2.960   5.198 -0.3499 -2.7474  0.9319
10575WAT     H243021   1.547   3.028   5.244  1.2174  0.5695  0.0808
10575WAT    EPW43022   1.580   2.974   5.197  0.0069 -0.2321  0.1213
10576WAT      O43023   6.888   6.181   6.922 -0.0184  0.6861  0.2388
10576WAT     H143024   6.949   6.237   6.896  0.6108 -0.4774 -0.8800
10576WAT     H243025   6.842   6.166   6.849 -0.7709  0.4820  0.7452
10576WAT    EPW43026   6.890   6.187   6.907 -0.0366  0.4841  0.1483
10577WAT      O43027   3.285   7.116   2.015  0.2823  0.0236 -0.2005
10577WAT     H143028   3.323   7.176   1.964  0.4579 -1.1031 -1.4743
10577WAT     H243029   3.233   7.072   1.960 -0.9138 -0.1091  0.9854
10577WAT    EPW43030   3.283   7.118   1.999  0.1316 -0.1625 -0.2135
10578WAT      O43031   6.947   3.097   6.453  0.4907 -0.0490  0.6169
10578WAT     H143032   6.938   3.182   6.435  0.8792  0.0799  1.0279
10578WAT     H243033   6.866   3.066   6.446  0.4312  0.2458 -0.0786
10578WAT    EPW43034   6.934   3.105   6.449  0.5393  0.0136  0.5749
10579WAT      O43035   1.690   1.024   2.649  0.0213  0.4899  0.1835
10579WAT     H143036   1.621   0.979   2.678 -0.0536  0.4786 -0.0122
10579WAT     H243037   1.655   1.099   2.621  0.1894  0.8332  0.8664
10579WAT    EPW43038   1.674   1.029   2.649  0.0350  0.5389  0.2554
10580WAT      O43039   1.531   5.913   0.721 -0.3508  0.3226 -0.0557
10580WAT     H143040   1.617   5.926   0.726 -0.1018 -0.6923 -1.2048
10580WAT     H243041   1.511   5.935   0.639 -1.4231  1.7001  0.5381
10580WAT    EPW43042   1.541   5.918   0.709 -0.4724  0.3761 -0.1378
10581WAT      O43043   0.659   5.153   6.840  0.6080  0.4933 -0.4519
10581WAT     H143044   0.659   5.087   6.897 -0.8513 -0.1586 -1.1468
10581WAT     H243045   0.743   5.164   6.821  0.8662 -1.3611 -0.5295
10581WAT    EPW43046   0.671   5.145   6.846  0.4306  0.1231 -0.5660
10582WAT      O43047   0.933   6.799   5.063  0.2642 -0.5566  0.3658
10582WAT     H143048   0.888   6.873   5.051 -0.7318 -1.3118 -0.9000
10582WAT     H243049   1.003   6.809   5.012 -0.5867 -1.0309 -0.9389
10582WAT    EPW43050   0.936   6.811   5.054 -0.0087 -0.7382 -0.0139
10583WAT      O43051   1.650   0.120   1.371 -0.2451  0.1568  1.2724
10583WAT     H143052   1.723   0.165   1.386  0.0510 -0.3555  1.3891
10583WAT     H243053   1.677   0.053   1.322 -0.8772  0.7382  0.0805
10583WAT    EPW43054   1.665   0.117   1.366 -0.2947  0.1670  1.1136
10584WAT      O43055   2.129   1.932   5.842 -0.0020  0.2232 -0.0713
10584WAT     H143056   2.210   1.931   5.875  0.1809 -0.1569 -0.5239
10584WAT     H243057   2.081   1.966   5.907  0.2638 -0.9611  0.7823
10584WAT    EPW43058   2.134   1.937   5.857  0.0643 -0.0079 -0.0121
10585WAT      O43059   0.395   7.038   7.323  0.1046  0.2922 -0.4832
10585WAT     H143060   0.360   7.066   7.248 -1.3139 -0.7946 -0.2882
10585WAT     H243061   0.388   6.952   7.318  0.3472  0.1798  0.7177
10585WAT    EPW43062   0.389   7.030   7.311 -0.0691  0.1151 -0.2770
10586WAT      O43063   7.171   6.798   3.645  0.5221  0.1314 -0.2468
10586WAT     H143064   7.121   6.781   3.714  0.2488  0.8746 -0.2534
10586WAT     H243065   7.114   6.798   3.578  0.3405  1.8658 -0.1433
10586WAT    EPW43066   7.155   6.795   3.645  0.4549  0.4974 -0.2325
10587WAT      O43067   5.749   2.334   5.238  0.0311  0.4261 -0.2786
10587WAT     H143068   5.679   2.334   5.290 -0.0895 -0.6461 -0.4146
10587WAT     H243069   5.799   2.270   5.271  0.3822  0.3638 -0.9116
10587WAT    EPW43070   5.746   2.325   5.251  0.0652  0.2585 -0.3922
10588WAT      O43071   0.995   3.713   4.152  0.3688  0.1461 -0.0713
10588WAT     H143072   0.971   3.770   4.091 -1.6057 -0.0603  0.4501
10588WAT     H243073   0.973   3.754   4.227  0.2102 -0.7243  0.3667
10588WAT    EPW43074   0.988   3.728   4.154  0.0537 -0.0130  0.0705
10589WAT      O43075   5.063   3.539   6.924 -0.2781 -0.1438  0.1684
10589WAT     H143076   4.980   3.560   6.939 -0.4434 -0.2113 -0.5893
10589WAT     H243077   5.107   3.612   6.942 -0.4750 -0.1640  0.7468
10589WAT    EPW43078   5.058   3.553   6.929 -0.3316 -0.1567  0.1419
10590WAT      O43079   5.104   2.709   2.418 -0.3781 -0.0837 -0.0404
10590WAT     H143080   5.184   2.739   2.433 -1.0396  1.0510  1.5051
10590WAT     H243081   5.073   2.763   2.357 -0.5649  0.6374  0.6681
10590WAT    EPW43082   5.111   2.721   2.411 -0.5034  0.1905  0.2925
10591WAT      O43083   4.995   2.934   5.361  0.1144 -0.3353 -0.3715
10591WAT     H143084   4.909   2.949   5.364 -0.0745 -0.7146 -2.3931
10591WAT     H243085   5.029   2.997   5.411 -1.3555 -0.6899  1.1647
10591WAT    EPW43086   4.988   2.945   5.369 -0.1307 -0.4437 -0.4432
10592WAT      O43087   3.290   2.959   5.434 -0.0568 -0.3759  0.2374
10592WAT     H143088   3.311   2.897   5.491 -3.0157 -1.8197 -0.0360
10592WAT     H243089   3.335   2.938   5.362  2.1030  0.2651  1.3169
10592WAT    EPW43090   3.300   2.947   5.432 -0.1748 -0.4945  0.3565
10593WAT      O43091   5.251   3.603   0.406 -0.2855 -0.5092  0.6724
10593WAT     H143092   5.285   3.607   0.326 -0.2482 -1.1507  0.6472
10593WAT     H243093   5.283   3.673   0.447  3.1453 -2.3162  1.4754
10593WAT    EPW43094   5.260   3.614   0.400  0.2268 -0.8709  0.7873
10594WAT      O43095   1.726   6.687   5.956 -0.7040  0.3156 -0.0999
10594WAT     H143096   1.720   6.750   5.896 -0.8451  0.6546  0.2665
10594WAT     H243097   1.735   6.731   6.031  1.5897 -0.0854 -0.0615
10594WAT    EPW43098   1.727   6.703   5.959 -0.3860  0.3064 -0.0401
10595WAT      O43099   1.694   0.285   0.290 -0.2635  0.2811 -0.4864
10595WAT     H143100   1.682   0.330   0.216  1.8442  0.0970 -1.0164
10595WAT     H243101   1.720   0.207   0.262 -1.6809 -0.5520  0.4593
10595WAT    EPW43102   1.696   0.280   0.275 -0.1615  0.1308 -0.4250
10596WAT      O43103   6.569   0.584   6.676 -0.1448 -0.3655  0.2183
10596WAT     H143104   6.632   0.579   6.736  0.4814  1.7497 -0.1810
10596WAT     H243105   6.604   0.543   6.607  0.5945  0.3201  0.1704
10596WAT    EPW43106   6.584   0.577   6.675  0.0569  0.0482  0.1522
10597WAT      O43107   0.599   6.660   6.229 -0.3587 -0.0793 -0.0614
10597WAT     H143108   0.588   6.616   6.155 -1.7975  0.1285 -0.0136
10597WAT     H243109   0.685   6.670   6.236 -0.1622 -0.8408 -1.2632
10597WAT    EPW43110   0.610   6.655   6.219 -0.5422 -0.1611 -0.2319
10598WAT      O43111   2.782   1.936   2.383 -0.4111 -0.3816  0.1342
10598WAT     H143112   2.868   1.947   2.376 -0.4963 -0.2806 -0.9482
10598WAT     H243113   2.773   1.850   2.398 -0.1335 -0.4455 -0.0550
10598WAT    EPW43114   2.794   1.925   2.385 -0.3827 -0.3761 -0.0536
10599WAT      O43115   1.708   6.864   6.566 -0.1508  0.1382  0.0623
10599WAT     H143116   1.680   6.839   6.645  0.5548 -0.2574  0.1938
10599WAT     H243117   1.641   6.844   6.513 -0.1172 -0.8484  0.3673
10599WAT    EPW43118   1.694   6.857   6.570 -0.0416 -0.0660  0.1268
10600WAT      O43119   4.763   3.557   1.735 -0.3617 -0.1245  1.1860
10600WAT     H143120   4.736   3.627   1.780  0.4410  0.1128  1.3064
10600WAT     H243121   4.701   3.548   1.674 -0.4707  0.7050  1.1548
10600WAT    EPW43122   4.750   3.566   1.732 -0.2593  0.0330  1.1992
10601WAT      O43123   4.564   6.082   6.435  0.0346 -0.2083  0.1987
10601WAT     H143124   4.622   6.022   6.460 -0.3414 -0.4904  0.4049
10601WAT     H243125   4.588   6.100   6.353  0.0940 -0.7117  0.1017
10601WAT    EPW43126   4.576   6.076   6.427 -0.0122 -0.3243  0.2149
10602WAT      O43127   6.933   0.211   0.896 -0.1053 -0.4943  0.7729
10602WAT     H143128   6.969   0.278   0.938  0.1329 -1.0206  1.4220
10602WAT     H243129   6.871   0.183   0.950  0.9088 -1.8519  1.3014
10602WAT    EPW43130   6.929   0.217   0.910  0.0797 -0.7726  0.9469
10603WAT      O43131   0.232   4.131   5.869  0.8713  0.1495 -0.1303
10603WAT     H143132   0.173   4.167   5.922 -0.2360  0.7482 -1.6979
10603WAT     H243133   0.295   4.191   5.865  1.6131 -0.4583  1.4873
10603WAT    EPW43134   0.232   4.145   5.876  0.8173  0.1482 -0.1229
10604WAT      O43135   4.669   5.682   5.976  0.1195 -0.3857  0.0051
10604WAT     H143136   4.745   5.655   6.009  0.5155  0.6582 -0.0278
10604WAT     H243137   4.682   5.766   5.960 -0.4445 -0.5919 -1.7529
10604WAT    EPW43138   4.682   5.690   5.978  0.0947 -0.2620 -0.2595
10605WAT      O43139   2.049   0.716   1.023  0.3879 -0.6622  0.2969
10605WAT     H143140   2.104   0.729   0.956 -1.4654  6.0037 -0.7016
10605WAT     H243141   1.977   0.686   0.984  0.7645 -1.6267  0.2963
10605WAT    EPW43142   2.046   0.713   1.007  0.1698  0.1800  0.1493
10606WAT      O43143   4.305   5.041   6.486  0.3676  0.4942 -0.5162
10606WAT     H143144   4.222   5.018   6.472  0.2176 -0.1277  1.1871
10606WAT     H243145   4.349   4.966   6.481  0.4639  0.4186  0.8659
10606WAT    EPW43146   4.299   5.027   6.484  0.3597  0.3912 -0.0605
10607WAT      O43147   7.098   1.666   5.016 -0.4196 -1.1569  0.2177
10607WAT     H143148   7.119   1.657   5.100  0.5481  2.1693  0.4707
10607WAT     H243149   7.011   1.673   5.017 -0.2894  1.0961  1.3266
10607WAT    EPW43150   7.088   1.666   5.029 -0.2574 -0.3327  0.4189
10608WAT      O43151   1.479   5.816   3.972 -0.4508  0.3151 -0.2632
10608WAT     H143152   1.443   5.886   3.934  0.2909  0.5030 -0.6466
10608WAT     H243153   1.511   5.771   3.905  1.0101  0.7240  0.1251
10608WAT    EPW43154   1.478   5.820   3.957 -0.1254  0.4032 -0.2625
10609WAT      O43155   1.311   4.720   7.032  0.5225 -0.2410  0.2679
10609WAT     H143156   1.390   4.745   7.059  0.7501  1.5391 -1.7542
10609WAT     H243157   1.260   4.738   7.101  1.8851 -1.9883  1.8349
10609WAT    EPW43158   1.315   4.727   7.046  0.7574 -0.2361  0.2007
10610WAT      O43159   3.462   5.570   3.964  0.1418  0.3548  0.0596
10610WAT     H143160   3.532   5.608   4.000  1.5215 -0.3157 -1.7511
10610WAT     H243161   3.448   5.501   4.016  0.8996  0.4352  0.3869
10610WAT    EPW43162   3.470   5.565   3.977  0.4576  0.2676 -0.1595
10611WAT      O43163   1.140   4.677   6.287 -1.1200 -0.0860  0.2808
10611WAT     H143164   1.149   4.764   6.291 -1.8541 -0.0334  1.2473
10611WAT     H243165   1.143   4.653   6.371 -1.4961 -0.9232  0.0627
10611WAT    EPW43166   1.142   4.687   6.300 -1.2840 -0.2019  0.3914
10612WAT      O43167   6.759   3.574   5.614 -0.1495 -0.5790 -0.6024
10612WAT     H143168   6.730   3.517   5.555 -0.2917 -0.5634 -0.5502
10612WAT     H243169   6.829   3.610   5.577  0.1757 -1.0713 -0.4719
10612WAT    EPW43170   6.765   3.571   5.600 -0.1225 -0.6494 -0.5754
10613WAT      O43171   3.679   2.221   5.995  0.2368 -0.1486  0.2205
10613WAT     H143172   3.625   2.153   6.003  0.1043  0.0233  0.8722
10613WAT     H243173   3.743   2.202   6.051  0.1209  0.3322  0.5196
10613WAT    EPW43174   3.680   2.208   6.005  0.2001 -0.0522  0.3610
10614WAT      O43175   2.171   5.330   4.211 -0.0243  0.6079  0.4789
10614WAT     H143176   2.087   5.348   4.201 -0.8649 -2.5327  0.6161
10614WAT     H243177   2.183   5.333   4.297 -1.0315 -2.2702  0.8279
10614WAT    EPW43178   2.160   5.333   4.222 -0.2973 -0.2812  0.5507
10615WAT      O43179   2.344   5.659   0.376 -0.0647  0.1475  0.3740
10615WAT     H143180   2.304   5.732   0.349 -0.6084 -0.6725 -1.1687
10615WAT     H243181   2.309   5.644   0.454  0.4541  1.8206  0.9702
10615WAT    EPW43182   2.333   5.668   0.383 -0.0684  0.2735  0.2342
10616WAT      O43183   6.017   4.799   4.665 -0.1112 -0.1102  0.0664
10616WAT     H143184   6.031   4.722   4.626 -2.4729 -0.4986 -0.1694
10616WAT     H243185   5.930   4.804   4.670  0.0138  1.9039  1.4093
10616WAT    EPW43186   6.007   4.789   4.660 -0.4416  0.1300  0.2300
10617WAT      O43187   4.101   3.278   0.745 -0.3018 -0.2154  0.1866
10617WAT     H143188   4.180   3.315   0.745 -0.2008 -0.4238  0.0861
10617WAT     H243189   4.080   3.276   0.660 -0.4057 -0.1766  0.2120
10617WAT    EPW43190   4.110   3.283   0.732 -0.3022 -0.2404  0.1755
10618WAT      O43191   1.543   3.516   1.905  0.1886 -0.0575  0.7003
10618WAT     H143192   1.592   3.558   1.847 -0.4819  0.1356  0.2580
10618WAT     H243193   1.517   3.578   1.960 -0.7495  0.1156  0.0837
10618WAT    EPW43194   1.546   3.531   1.904 -0.0491 -0.0034  0.5439
10619WAT      O43195   0.499   6.329   3.709  0.3773 -0.4620 -0.0931
10619WAT     H143196   0.531   6.400   3.748  0.1376  0.0263 -0.7649
10619WAT     H243197   0.466   6.359   3.635 -0.0697 -1.2227 -0.2202
10619WAT    EPW43198   0.499   6.344   3.704  0.2759 -0.5022 -0.2111
10620WAT      O43199   4.879   6.874   3.625 -0.6244 -0.2079 -0.0660
10620WAT     H143200   4.911   6.850   3.547  1.5457  0.5037  0.5122
10620WAT     H243201   4.849   6.954   3.611  1.2017  0.5486  0.1136
10620WAT    EPW43202   4.880   6.882   3.612 -0.0341  0.0090  0.0459
10621WAT      O43203   2.823   4.123   5.875 -0.1341  0.5236 -0.2719
10621WAT     H143204   2.909   4.118   5.882 -0.1281  0.6229 -0.2694
10621WAT     H243205   2.810   4.148   5.793 -0.1572  0.5799 -0.2514
10621WAT    EPW43206   2.834   4.126   5.864 -0.1366  0.5466 -0.2685
10622WAT      O43207   6.526   1.369   5.070 -0.4428 -0.0513  0.4678
10622WAT     H143208   6.466   1.357   5.132 -1.2997 -0.8027 -0.4792
10622WAT     H243209   6.489   1.334   4.999  0.3188  1.2148 -0.5777
10622WAT    EPW43210   6.512   1.362   5.069 -0.4569  0.0247  0.1735
10623WAT      O43211   3.171   4.394   3.650 -0.1241 -0.1062  0.4123
10623WAT     H143212   3.195   4.336   3.711 -1.5844  2.2168  3.4467
10623WAT     H243213   3.217   4.465   3.669 -0.7621  0.7910 -1.1605
10623WAT    EPW43214   3.181   4.396   3.662 -0.4341  0.3695  0.6282
10624WAT      O43215   5.086   1.982   3.171 -0.0345  0.0834 -0.4180
10624WAT     H143216   5.074   2.048   3.116  0.0699 -0.6091 -1.3062
10624WAT     H243217   5.173   1.975   3.176 -0.0359 -0.6783 -1.2145
10624WAT    EPW43218   5.097   1.991   3.164 -0.0193 -0.1314 -0.6669
10625WAT      O43219   7.246   0.208   0.186 -0.0776  0.1759  0.3486
10625WAT     H143220   7.211   0.179   0.112  1.6327  0.0537 -0.4754
10625WAT     H243221   7.188   0.185   0.247 -2.1873  1.4508 -1.0386
10625WAT    EPW43222   7.233   0.200   0.184 -0.1366  0.3462  0.0220
10626WAT      O43223   5.659   0.205   4.323  0.0471  0.2418 -0.0462
10626WAT     H143224   5.604   0.272   4.332 -0.5324  0.0641 -1.8888
10626WAT     H243225   5.736   0.240   4.343 -0.6671  0.4753  2.6685
10626WAT    EPW43226   5.662   0.220   4.327 -0.1440  0.2501  0.0826
10627WAT      O43227   2.249   1.791   6.600  0.0099 -0.6011  0.0563
10627WAT     H143228   2.299   1.850   6.561 -1.4223  1.2917  0.8935
10627WAT     H243229   2.262   1.718   6.554 -1.3265  1.3373 -3.8219
10627WAT    EPW43230   2.258   1.789   6.587 -0.3991 -0.0352 -0.3929
10628WAT      O43231   7.243   4.637   7.077 -0.5172  0.6713 -0.6764
10628WAT     H143232   7.309   4.628   7.133 -1.6700 -1.8336  0.4482
10628WAT     H243233   7.245   4.722   7.057 -0.1646  1.8426  3.3856
10628WAT    EPW43234   7.253   4.648   7.082 -0.6354  0.4743  0.0898
10629WAT      O43235   0.009   4.162   0.843 -0.3337  0.1153 -0.0919
10629WAT     H143236  -0.061   4.129   0.802  0.1010  0.7842 -1.4026
10629WAT     H243237   0.023   4.104   0.907 -2.2712  0.1327  0.4139
10629WAT    EPW43238   0.000   4.148   0.847 -0.5557  0.2167 -0.2108
10630WAT      O43239   4.078   2.343   0.050  0.3487  0.0566  0.1711
10630WAT     H143240   4.096   2.407  -0.006  2.0665  0.6503  1.3113
10630WAT     H243241   4.111   2.272   0.011  1.7325  0.5013  0.4659
10630WAT    EPW43242   4.086   2.342   0.036  0.8069  0.2100  0.3830
10631WAT      O43243   6.951   3.877   7.264  0.4501  0.2718  0.5698
10631WAT     H143244   6.912   3.872   7.186  0.4011 -0.1155  0.6189
10631WAT     H243245   6.893   3.920   7.313  0.4325  0.4158  0.4229
10631WAT    EPW43246   6.937   3.883   7.260  0.4403  0.2359  0.5554
10632WAT      O43247   0.527   4.140   4.051  0.6376 -0.0389  0.1297
10632WAT     H143248   0.558   4.204   4.000 -0.1893 -0.4723 -0.9600
10632WAT     H243249   0.590   4.079   4.046 -0.3924 -1.0344 -2.3030
10632WAT    EPW43250   0.541   4.140   4.043  0.3633 -0.2500 -0.3906
10633WAT      O43251   4.985   0.862   1.164  0.9945  0.0386 -0.7857
10633WAT     H143252   5.042   0.798   1.147  1.1483  0.5234 -2.2074
10633WAT     H243253   4.908   0.827   1.146  1.1925  0.7347 -3.3490
10633WAT    EPW43254   4.982   0.848   1.159  1.0465  0.2130 -1.3744
10634WAT      O43255   4.724   1.838   4.768  0.0029  0.2452  0.5942
10634WAT     H143256   4.735   1.876   4.690  1.6674  0.7254  1.0192
10634WAT     H243257   4.783   1.878   4.819  1.9596 -2.8669  1.0689
10634WAT    EPW43258   4.735   1.850   4.764  0.5379 -0.1436  0.7271
10635WAT      O43259   4.410   1.569   6.542  0.0030  0.7872  0.5234
10635WAT     H143260   4.474   1.564   6.602  0.7670  1.1796 -0.2351
10635WAT     H243261   4.363   1.497   6.557  1.6558 -0.4808 -0.0351
10635WAT    EPW43262   4.413   1.558   6.553  0.3600  0.6578  0.3288
10636WAT      O43263   3.976   0.226   0.749 -0.0579  0.3569 -0.3965
10636WAT     H143264   4.035   0.194   0.804  0.4518  1.2320 -0.4076
10636WAT     H243265   4.024   0.268   0.690 -0.6880  0.9318 -0.5140
10636WAT    EPW43266   3.992   0.227   0.748 -0.0757  0.5711 -0.4155
10637WAT      O43267   3.819   2.894   0.739  0.3239 -0.0476 -0.2433
10637WAT     H143268   3.794   2.858   0.814 -1.6094  0.5257 -0.5501
10637WAT     H243269   3.812   2.829   0.681  0.4912 -0.1344 -0.1672
10637WAT    EPW43270   3.814   2.879   0.741  0.0630  0.0242 -0.2773
10638WAT      O43271   3.846   0.789   5.940 -0.5105 -0.2148  0.1227
10638WAT     H143272   3.924   0.827   5.927 -0.3432 -0.0478  1.4338
10638WAT     H243273   3.790   0.855   5.930 -0.1869  0.6224  2.8907
10638WAT    EPW43274   3.849   0.804   5.937 -0.4380 -0.0665  0.7253
10639WAT      O43275   6.718   4.854   7.052 -0.0019 -0.0817 -0.1842
10639WAT     H143276   6.715   4.767   7.044  1.2082 -0.1221 -0.3387
10639WAT     H243277   6.770   4.866   7.121 -1.6892  0.5086  1.0601
10639WAT    EPW43278   6.725   4.843   7.061 -0.0724 -0.0005 -0.0232
10640WAT      O43279   4.077   3.054   4.589  0.2686 -0.3767 -0.3310
10640WAT     H143280   4.061   3.103   4.519  0.3689 -1.3234 -1.0458
10640WAT     H243281   4.023   2.986   4.580  0.8237 -0.8998  0.0965
10640WAT    EPW43282   4.067   3.051   4.577  0.3654 -0.5938 -0.3734
10641WAT      O43283   4.133   4.806   2.980  0.3101 -0.5700  0.3089
10641WAT     H143284   4.180   4.764   3.040  0.2118 -1.9124 -0.4975
10641WAT     H243285   4.149   4.761   2.907  1.4716  1.7901 -0.9779
10641WAT    EPW43286   4.142   4.793   2.978  0.4672 -0.4197 -0.0003
10642WAT      O43287   5.676   5.440   1.337 -0.0846  0.5082  0.3799
10642WAT     H143288   5.654   5.367   1.378  0.2416  0.2979  0.1929
10642WAT     H243289   5.646   5.429   1.256 -2.1991  1.6168  0.9385
10642WAT    EPW43290   5.669   5.428   1.331 -0.3488  0.6409  0.4348
10643WAT      O43291   6.006   6.560   5.106  0.3825 -0.2510 -0.0718
10643WAT     H143292   5.951   6.591   5.166  0.4189 -1.0203  0.3584
10643WAT     H243293   5.955   6.544   5.038 -0.4942 -3.5601  1.1888
10643WAT    EPW43294   5.990   6.562   5.105  0.2583 -0.8535  0.1780
10644WAT      O43295   5.836   2.500   6.325 -0.5140 -0.1707  0.3645
10644WAT     H143296   5.752   2.520   6.334 -0.0159  1.4159  2.1103
10644WAT     H243297   5.873   2.576   6.301  0.6701 -0.2825  1.6570
10644WAT    EPW43298   5.829   2.514   6.323 -0.2655  0.0472  0.8133
10645WAT      O43299   3.921   1.120   3.568  0.0540  0.1800 -0.3505
10645WAT     H143300   3.973   1.154   3.630 -0.4736 -0.5515  0.5107
10645WAT     H243301   3.857   1.179   3.561 -0.2985 -0.1052  0.3762
10645WAT    EPW43302   3.920   1.134   3.576 -0.0760  0.0298 -0.1160
10646WAT      O43303   0.707   1.445   0.616 -0.1033 -0.1213  0.0282
10646WAT     H143304   0.628   1.407   0.623  0.2923 -0.9242  0.2372
10646WAT     H243305   0.688   1.531   0.619 -1.0262 -0.2792 -0.5797
10646WAT    EPW43306   0.692   1.452   0.617 -0.1812 -0.2632 -0.0307
10647WAT      O43307   2.485   6.884   2.481 -0.1844  0.4780 -0.0190
10647WAT     H143308   2.451   6.818   2.435 -0.4728  0.7598 -0.2165
10647WAT     H243309   2.558   6.904   2.439 -0.1328  0.3304  0.0009
10647WAT    EPW43310   2.491   6.878   2.468 -0.2193  0.4978 -0.0452
10648WAT      O43311   4.467   2.675   2.132 -0.7252 -0.5988 -0.4619
10648WAT     H143312   4.534   2.625   2.157  0.5110  0.0743 -2.1931
10648WAT     H243313   4.431   2.701   2.207  1.6977 -0.0087  0.5753
10648WAT    EPW43314   4.471   2.671   2.147 -0.1847 -0.4122 -0.5644
10649WAT      O43315   1.798   2.473   7.149  0.0008  0.5599 -0.3055
10649WAT     H143316   1.758   2.409   7.193  3.4383 -1.7169 -0.0708
10649WAT     H243317   1.785   2.543   7.198 -1.0347 -0.6983  1.3154
10649WAT    EPW43318   1.790   2.474   7.162  0.3556  0.0377 -0.0314
10650WAT      O43319   4.670   7.168   0.532  0.3612 -0.4402 -0.1864
10650WAT     H143320   4.754   7.181   0.510  0.3452 -1.7949 -1.1506
10650WAT     H243321   4.627   7.189   0.459 -0.0542 -0.8193 -0.0538
10650WAT    EPW43322   4.676   7.173   0.518  0.2974 -0.6963 -0.3092
10651WAT      O43323   5.515   5.116   4.015  0.6252 -0.1186  0.2348
10651WAT     H143324   5.469   5.073   3.956 -1.1424 -0.4139  1.7236
10651WAT     H243325   5.516   5.198   3.985 -2.2250  0.2390  0.7937
10651WAT    EPW43326   5.508   5.122   4.002 -0.0569 -0.1094  0.5373
10652WAT      O43327   4.982   0.744   0.547 -0.1463 -0.2149 -0.1161
10652WAT     H143328   5.042   0.730   0.610 -0.9515 -1.5458  0.3876
10652WAT     H243329   4.980   0.668   0.503  0.6967  0.8207 -2.0518
10652WAT    EPW43330   4.991   0.730   0.550 -0.1407 -0.2585 -0.3276
10653WAT      O43331   4.745   7.081   3.259 -0.6620  0.5277  0.2764
10653WAT     H143332   4.773   7.104   3.180 -0.7619 -0.1975  0.0120
10653WAT     H243333   4.682   7.139   3.277 -1.1726  0.2410 -0.5261
10653WAT    EPW43334   4.740   7.093   3.250 -0.7522  0.3782  0.1188
10654WAT      O43335   4.234   5.741   3.388  0.0420  0.8102  0.0948
10654WAT     H143336   4.291   5.808   3.382 -0.4743  1.1649 -1.0816
10654WAT     H243337   4.250   5.709   3.467  0.6839  1.9933  0.4815
10654WAT    EPW43338   4.245   5.746   3.399  0.0606  1.0373 -0.0219
10655WAT      O43339   1.882   7.000   0.492  0.4726  0.9690  0.6679
10655WAT     H143340   1.948   6.943   0.490 -0.7699 -0.6524  2.3651
10655WAT     H243341   1.820   6.962   0.445 -0.3107  0.9829  1.6616
10655WAT    EPW43342   1.883   6.986   0.485  0.1734  0.7316  1.0654
10656WAT      O43343   2.329   5.227   2.259  0.0731  0.0414  0.3402
10656WAT     H143344   2.245   5.230   2.234  0.2909  1.4419 -0.3006
10656WAT     H243345   2.331   5.276   2.331  0.4734  0.6446 -0.0740
10656WAT    EPW43346   2.317   5.234   2.266  0.1644  0.3374  0.1843
10657WAT      O43347   2.603   6.764   6.294  0.0381 -0.2128  0.0741
10657WAT     H143348   2.613   6.732   6.213  1.5336  1.8316 -0.6299
10657WAT     H243349   2.669   6.821   6.302 -0.4576  0.1320  2.5110
10657WAT    EPW43350   2.614   6.768   6.283  0.1858  0.1401  0.3301
10658WAT      O43351   5.313   3.659   2.461  0.3653  0.1088 -0.5639
10658WAT     H143352   5.394   3.664   2.429  0.6228 -1.8014 -0.3222
10658WAT     H243353   5.309   3.578   2.492 -1.8466 -0.0346 -1.1059
10658WAT    EPW43354   5.325   3.648   2.461  0.0766 -0.1946 -0.6082
10659WAT      O43355   0.742   5.899   5.849 -0.1077  0.0841 -0.3385
10659WAT     H143356   0.751   5.819   5.816  0.2597  0.0067 -0.0722
10659WAT     H243357   0.821   5.934   5.838  0.6954 -0.6619  2.2501
10659WAT    EPW43358   0.755   5.893   5.843  0.0652 -0.0375  0.0832
10660WAT      O43359   2.095   1.262   7.150 -0.2459 -0.3922  0.4075
10660WAT     H143360   2.142   1.217   7.092 -0.3176 -0.2857  0.2678
10660WAT     H243361   2.017   1.270   7.112 -0.5302 -0.9845  0.8348
10660WAT    EPW43362   2.091   1.256   7.136 -0.2985 -0.4640  0.4500
10661WAT      O43363   6.213   3.089   5.438  0.4956  0.6630 -0.1631
10661WAT     H143364   6.184   3.009   5.417 -0.6660  0.4709  1.8871
10661WAT     H243365   6.140   3.136   5.445  1.0217  1.4178  0.4882
10661WAT    EPW43366   6.198   3.084   5.436  0.4017  0.7461  0.2359
10662WAT      O43367   5.849   2.234   4.729 -0.5634  0.2821 -0.5110
10662WAT     H143368   5.811   2.253   4.806  0.8660  0.3718  0.1972
10662WAT     H243369   5.862   2.148   4.733  0.2349  0.4112 -0.3154
10662WAT    EPW43370   5.845   2.224   4.741 -0.2343  0.3145 -0.3775
10663WAT      O43371   1.037   6.721   2.845 -0.2086  0.0992 -0.3770
10663WAT     H143372   1.042   6.793   2.894 -1.9960 -0.8167  1.2980
10663WAT     H243373   0.964   6.732   2.799  0.5915  0.2163 -1.6618
10663WAT    EPW43374   1.027   6.733   2.846 -0.3544 -0.0188 -0.3193
10664WAT      O43375   4.700   2.178   0.223 -0.1053 -0.1173  0.3606
10664WAT     H143376   4.760   2.160   0.163 -1.7430  0.6685 -1.6228
10664WAT     H243377   4.741   2.234   0.276  0.8724  0.5417 -1.0277
10664WAT    EPW43378   4.715   2.184   0.222 -0.2028  0.0961 -0.1375
10665WAT      O43379   1.318   4.039   6.466  0.1131  0.3234  0.5148
10665WAT     H143380   1.246   3.999   6.493 -0.9206  1.4144 -0.5056
10665WAT     H243381   1.382   3.992   6.501 -1.0669 -1.1470  0.7978
10665WAT    EPW43382   1.317   4.026   6.475 -0.2139  0.2674  0.4059
10666WAT      O43383   1.342   6.095   1.287 -0.0444 -0.3359 -0.2028
10666WAT     H143384   1.337   6.053   1.363  0.4606 -0.9971 -0.5196
10666WAT     H243385   1.380   6.171   1.307  1.6670 -1.1937 -0.0313
10666WAT    EPW43386   1.347   6.100   1.301  0.2830 -0.5603 -0.2242
10667WAT      O43387   6.742   2.913   2.281 -0.0343 -0.5572 -0.1402
10667WAT     H143388   6.783   2.941   2.352 -1.5450 -0.2318  0.6543
10667WAT     H243389   6.719   2.831   2.301  0.0910 -0.6829 -0.5029
10667WAT    EPW43390   6.745   2.905   2.294 -0.2390 -0.5277 -0.0764
10668WAT      O43391   3.535   4.472   0.262  0.3883  0.3702 -0.2689
10668WAT     H143392   3.584   4.410   0.299 -1.2130  0.0347  1.4516
10668WAT     H243393   3.555   4.544   0.309  0.0563  0.4787 -0.2932
10668WAT    EPW43394   3.545   4.474   0.275  0.1027  0.3367 -0.0183
10669WAT      O43395   5.046   3.107   1.108  0.1928 -0.0688 -0.3476
10669WAT     H143396   5.014   3.057   1.045  0.4577 -0.9757  0.2132
10669WAT     H243397   5.035   3.188   1.078 -1.6214 -0.3846 -0.6316
10669WAT    EPW43398   5.040   3.112   1.095 -0.0361 -0.2494 -0.3067
10670WAT      O43399   1.003   1.854   6.590 -0.2898  0.0085 -0.2958
10670WAT     H143400   1.049   1.911   6.544  0.5069 -1.2110 -1.0727
10670WAT     H243401   0.933   1.838   6.539 -1.0973  1.0842  0.4214
10670WAT    EPW43402   0.999   1.860   6.576 -0.2914 -0.0127 -0.3046
10671WAT      O43403   0.439   4.026   6.125 -0.0301  0.1133 -0.0579
10671WAT     H143404   0.381   3.977   6.080  1.3477 -0.8090 -0.9102
10671WAT     H243405   0.393   4.055   6.193 -0.2931 -4.8972  2.3419
10671WAT    EPW43406   0.424   4.023   6.128  0.1346 -0.7631  0.1707
10672WAT      O43407   0.291   4.976   5.473 -0.0803 -0.1126 -0.1973
10672WAT     H143408   0.258   4.936   5.543 -0.7711 -0.0221 -0.4584
10672WAT     H243409   0.323   4.911   5.425  2.4515 -0.0014  1.2121
10672WAT    EPW43410   0.291   4.960   5.476  0.1917 -0.0828 -0.0276
10673WAT      O43411   2.160   5.046   3.079 -0.2400  0.4131  0.7418
10673WAT     H143412   2.090   5.092   3.056 -1.0234  0.0664  2.2403
10673WAT     H243413   2.205   5.100   3.131  0.0351  0.2816  0.6417
10673WAT    EPW43414   2.156   5.061   3.084 -0.3151  0.3425  0.9484
10674WAT      O43415   1.962   2.954   6.211  0.5043  0.2704 -0.3602
10674WAT     H143416   2.032   2.978   6.164 -0.8476  2.1051 -1.5758
10674WAT     H243417   1.898   3.004   6.179 -0.8206  0.5978  2.5208
10674WAT    EPW43418   1.963   2.965   6.199  0.1089  0.5898 -0.1142
10675WAT      O43419   5.134   2.795   4.085  0.1482 -0.2785 -0.0216
10675WAT     H143420   5.060   2.841   4.093 -0.1863 -0.8127  0.0342
10675WAT     H243421   5.193   2.845   4.124 -0.6898 -0.9940  2.3669
10675WAT    EPW43422   5.131   2.809   4.092 -0.0250 -0.4631  0.3394
10676WAT      O43423   1.927   2.591   4.639  0.4039  0.6375 -0.7215
10676WAT     H143424   2.011   2.601   4.660  0.5916 -0.3707 -0.9256
10676WAT     H243425   1.921   2.506   4.622 -0.9282  0.4701  0.4474
10676WAT    EPW43426   1.939   2.580   4.640  0.2349  0.4639 -0.5790
10677WAT      O43427   5.729   4.872   3.052 -0.0621  0.5212 -0.3250
10677WAT     H143428   5.691   4.933   3.101 -0.7605  0.9210 -1.3395
10677WAT     H243429   5.665   4.846   2.998  0.3837 -0.6894 -0.3087
10677WAT    EPW43430   5.714   4.877   3.051 -0.0994  0.4014 -0.4725
10678WAT      O43431   3.211   0.947   6.154  0.0624  0.8819  0.0833
10678WAT     H143432   3.249   0.969   6.229 -0.4918  0.5043  0.4900
10678WAT     H243433   3.257   0.990   6.093 -1.4003  3.7668  0.8395
10678WAT    EPW43434   3.223   0.956   6.156 -0.2355  1.2523  0.2551
10679WAT      O43435   2.924   4.636   0.326  0.4125 -0.5022  0.3577
10679WAT     H143436   2.944   4.648   0.410 -0.6247  0.9401  0.4406
10679WAT     H243437   2.979   4.574   0.300  1.7426  0.0438  1.7313
10679WAT    EPW43438   2.935   4.629   0.334  0.4557 -0.2085  0.5729
10680WAT      O43439   3.543   3.058   3.558 -0.0783  0.7542  0.2293
10680WAT     H143440   3.565   2.990   3.507 -0.3547  1.6738 -1.1687
10680WAT     H243441   3.536   3.022   3.637  2.0505 -0.4031 -0.0280
10680WAT    EPW43442   3.545   3.043   3.562  0.1954  0.7191 -0.0152
10681WAT      O43443   6.716   3.637   1.203 -0.4211 -0.2440 -0.0455
10681WAT     H143444   6.765   3.596   1.263  0.2454 -2.6517 -2.0562
10681WAT     H243445   6.647   3.584   1.194 -0.0208 -0.5264 -2.0384
10681WAT    EPW43446   6.713   3.623   1.211 -0.2635 -0.6414 -0.6369
10682WAT      O43447   7.248   4.084   6.765  0.1023 -0.1611 -0.2732
10682WAT     H143448   7.188   4.039   6.810  1.2729 -0.0738  1.4904
10682WAT     H243449   7.203   4.118   6.699 -1.8739  0.1192  1.1291
10682WAT    EPW43450   7.233   4.082   6.762 -0.0167 -0.1068  0.1945
10683WAT      O43451   2.868   3.297   1.874 -0.2392 -0.3095 -0.0194
10683WAT     H143452   2.856   3.383   1.862  1.8220  0.2229  1.3787
10683WAT     H243453   2.837   3.282   1.954  0.6797 -0.5770  0.2969
10683WAT    EPW43454   2.862   3.307   1.884  0.2010 -0.2704  0.2339
10684WAT      O43455   1.770   5.355   1.516  0.3643  0.2727 -0.6445
10684WAT     H143456   1.819   5.384   1.581  0.6620 -1.0219 -0.2667
10684WAT     H243457   1.823   5.301   1.472  0.3892  1.6120 -2.3858
10684WAT    EPW43458   1.785   5.351   1.519  0.4119  0.2793 -0.8460
10685WAT      O43459   4.697   0.016   4.868 -0.3814 -0.0032  0.1308
10685WAT     H143460   4.744  -0.046   4.907 -0.1489  0.8769  1.3132
10685WAT     H243461   4.617   0.003   4.898 -0.4352 -0.0658 -0.0426
10685WAT    EPW43462   4.692   0.005   4.878 -0.3550  0.1176  0.2799
10686WAT      O43463   1.057   3.220   3.412 -0.4975  0.0564  0.2299
10686WAT     H143464   1.086   3.252   3.487  2.1137  1.4905 -1.2287
10686WAT     H243465   0.984   3.178   3.434 -0.1674  0.8987  3.4210
10686WAT    EPW43466   1.051   3.219   3.426 -0.0630  0.3927  0.4858
10687WAT      O43467   3.413   2.512   4.011  0.1749 -0.3629  0.1645
10687WAT     H143468   3.361   2.490   3.944 -0.3114 -0.1290  0.4646
10687WAT     H243469   3.468   2.444   4.017 -0.5387 -0.9494  0.2947
10687WAT    EPW43470   3.413   2.499   4.002 -0.0023 -0.4150  0.2280
10688WAT      O43471   5.230   0.292   4.993  0.0912 -0.1301  0.7700
10688WAT     H143472   5.259   0.254   4.920  0.4024  1.0670  0.2478
10688WAT     H243473   5.281   0.362   5.001 -1.7741  1.3129  0.5619
10688WAT    EPW43474   5.242   0.297   4.983 -0.1384  0.2599  0.6621
10689WAT      O43475   1.950   0.840   2.791 -0.4202 -0.1729 -0.1232
10689WAT     H143476   1.968   0.898   2.728  0.2074 -0.7113 -0.4447
10689WAT     H243477   1.921   0.890   2.857  3.8175  1.0177  1.1373
10689WAT    EPW43478   1.948   0.856   2.791  0.2985 -0.0766  0.0155
10690WAT      O43479   2.283   4.455   2.990 -0.1952  0.2300  0.0148
10690WAT     H143480   2.258   4.457   3.074  1.1251  1.7457  0.4184
10690WAT     H243481   2.218   4.413   2.951  0.5895 -3.5491  2.2521
10690WAT    EPW43482   2.270   4.449   2.997  0.1158 -0.1043  0.4050
10691WAT      O43483   4.818   2.261   0.989 -0.2726 -0.2104 -0.0075
10691WAT     H143484   4.782   2.297   0.918  0.1640 -1.3124 -0.8021
10691WAT     H243485   4.767   2.290   1.054  0.2303  2.0728 -0.5500
10691WAT    EPW43486   4.805   2.271   0.988 -0.1338 -0.0359 -0.2050
10692WAT      O43487   1.714   4.572   7.019 -0.1898 -0.2886 -0.0186
10692WAT     H143488   1.661   4.642   7.029  1.1341  0.7383  0.0888
10692WAT     H243489   1.672   4.509   7.062 -0.2640  1.0775  2.0897
10692WAT    EPW43490   1.700   4.573   7.027 -0.0052  0.0649  0.3087
10693WAT      O43491   2.968   7.203   1.732 -0.0830  0.1739 -0.3438
10693WAT     H143492   2.944   7.286   1.747  0.7513  0.0648  2.0073
10693WAT     H243493   2.914   7.178   1.667 -1.1209  2.1887 -0.3509
10693WAT    EPW43494   2.956   7.212   1.724 -0.1131  0.4554  0.0025
10694WAT      O43495   5.363   0.247   7.140  0.2059 -0.0673  0.3623
10694WAT     H143496   5.411   0.292   7.198  1.0301 -1.3791  0.7468
10694WAT     H243497   5.401   0.265   7.064  0.8203 -0.4636  0.5693
10694WAT    EPW43498   5.376   0.257   7.137  0.4184 -0.3196  0.4497
10695WAT      O43499   6.383   5.090   5.350 -0.1687  0.2207  0.1684
10695WAT     H143500   6.300   5.086   5.322 -0.6355  1.5744  1.2301
10695WAT     H243501   6.379   5.059   5.431  0.4451 -0.0370  0.1056
10695WAT    EPW43502   6.370   5.085   5.357 -0.1470  0.3826  0.3160
10696WAT      O43503   4.980   4.631   4.388 -0.1614 -0.0679  0.1508
10696WAT     H143504   4.996   4.608   4.305  1.9153  0.4698  0.3541
10696WAT     H243505   4.936   4.563   4.420  0.7249 -1.1669 -0.8647
10696WAT    EPW43506   4.976   4.618   4.380  0.2763 -0.1508  0.0309
10697WAT      O43507   4.205   6.327   6.569 -0.4248  0.1297 -0.2587
10697WAT     H143508   4.282   6.309   6.532 -0.6206  0.3420 -0.7816
10697WAT     H243509   4.185   6.254   6.612 -1.3307 -1.0624 -2.5528
10697WAT    EPW43510   4.214   6.314   6.570 -0.5876 -0.0150 -0.6748
10698WAT      O43511   6.922   0.255   2.584 -0.4889 -0.1854 -0.5902
10698WAT     H143512   6.890   0.211   2.651  2.0287 -0.0894  0.8014
10698WAT     H243513   6.860   0.249   2.523 -2.2247 -1.5386  1.2044
10698WAT    EPW43514   6.908   0.248   2.585 -0.3734 -0.3711 -0.1195
10699WAT      O43515   6.647   2.047   5.224 -0.0301  0.6157  0.0368
10699WAT     H143516   6.573   2.058   5.268  0.0686  0.1180  0.3378
10699WAT     H243517   6.671   1.965   5.244  0.2335  0.5224 -0.6095
10699WAT    EPW43518   6.640   2.036   5.233  0.0234  0.5284 -0.0142
10700WAT      O43519   5.587   0.175   1.972 -0.2300  0.4254 -0.0575
10700WAT     H143520   5.650   0.176   2.032 -0.3111 -0.0293  0.0372
10700WAT     H243521   5.546   0.251   1.984 -0.7674 -0.0199  1.0099
10700WAT    EPW43522   5.591   0.187   1.982 -0.3213  0.2925  0.1142
10701WAT      O43523   4.946   6.828   0.542 -1.3621  1.0033  0.1003
10701WAT     H143524   4.868   6.843   0.578 -1.5745 -1.9485  1.0970
10701WAT     H243525   4.994   6.797   0.607  0.0216  0.7990 -0.9680
10701WAT    EPW43526   4.941   6.826   0.557 -1.1890  0.5371  0.0897
10702WAT      O43527   3.509   6.222   4.163  0.2405 -0.4063 -0.1500
10702WAT     H143528   3.531   6.255   4.086  0.1388 -1.1578 -0.5105
10702WAT     H243529   3.457   6.155   4.143 -0.9972  0.2934  0.6233
10702WAT    EPW43530   3.505   6.217   4.149  0.0426 -0.4140 -0.0890
10703WAT      O43531   3.134   7.188   4.013  0.1174  0.0038  0.0748
10703WAT     H143532   3.152   7.232   4.086  0.2967  0.5615 -0.3074
10703WAT     H243533   3.205   7.199   3.964 -0.0420 -0.2904 -0.2262
10703WAT    EPW43534   3.147   7.196   4.016  0.1204  0.0427 -0.0261
10704WAT      O43535   6.623   4.723   2.178 -0.1812  0.2757 -0.6157
10704WAT     H143536   6.635   4.647   2.220 -0.6121 -0.4588 -1.7847
10704WAT     H243537   6.561   4.705   2.119  0.1848  1.3633 -1.3657
10704WAT    EPW43538   6.616   4.709   2.176 -0.1908  0.3278 -0.8992
10705WAT      O43539   4.624   6.614   3.462 -0.9589  0.0345  0.0748
10705WAT     H143540   4.611   6.694   3.429 -1.3800 -0.4197 -0.8707
10705WAT     H243541   4.637   6.630   3.547  1.7636  1.4032 -0.4782
10705WAT    EPW43542   4.624   6.628   3.470 -0.6189  0.1696 -0.1466
10706WAT      O43543   6.816   3.128   5.183 -0.6470 -0.3805  0.1960
10706WAT     H143544   6.861   3.202   5.189  0.6783 -1.1152 -0.2448
10706WAT     H243545   6.743   3.151   5.141  1.0755  0.1904 -2.7953
10706WAT    EPW43546   6.812   3.142   5.177 -0.1968 -0.4047 -0.3110
10707WAT      O43547   4.570   6.255   1.842  0.6765  0.2504 -0.0859
10707WAT     H143548   4.632   6.261   1.903 -0.3282  0.2913  0.9562
10707WAT     H243549   4.530   6.333   1.846 -2.8113 -1.3875  3.0254
10707WAT    EPW43550   4.573   6.268   1.852  0.0129  0.0145  0.5277
10708WAT      O43551   4.291   0.077   6.045  0.3663 -0.3926 -0.0693
10708WAT     H143552   4.213   0.116   6.044  0.4942 -0.0362  1.5917
10708WAT     H243553   4.289   0.026   5.974 -1.7348 -1.0771  0.4201
10708WAT    EPW43554   4.279   0.075   6.034  0.0748 -0.4411  0.2484
10709WAT      O43555   2.686   0.704   1.184  0.2368 -0.0114 -0.0445
10709WAT     H143556   2.627   0.672   1.239  0.0551  2.1742  1.1097
10709WAT     H243557   2.654   0.683   1.105 -1.7919  0.5851  0.5668
10709WAT    EPW43558   2.673   0.696   1.180 -0.0897  0.3996  0.2163
10710WAT      O43559   7.151   5.330   2.614 -0.4000 -0.3471  0.0514
10710WAT     H143560   7.074   5.290   2.608 -1.9839  2.2685  1.1325
10710WAT     H243561   7.153   5.382   2.544 -0.2325  0.5145  0.6716
10710WAT    EPW43562   7.140   5.332   2.603 -0.6092  0.1665  0.3028
10711WAT      O43563   0.292   3.131   1.905  0.0882  0.2817 -0.6890
10711WAT     H143564   0.239   3.069   1.874  0.1789  0.0400 -0.3670
10711WAT     H243565   0.346   3.147   1.839  1.0325 -1.0720 -0.2807
10711WAT    EPW43566   0.292   3.125   1.890  0.2411  0.0460 -0.5811
10712WAT      O43567   3.411   4.023   3.662 -0.4888 -0.1468 -0.4842
10712WAT     H143568   3.443   4.035   3.743 -0.1415 -1.7752 -0.3596
10712WAT     H243569   3.327   4.044   3.671 -0.8869 -2.0113  0.7829
10712WAT    EPW43570   3.404   4.028   3.676 -0.4963 -0.6628 -0.2786
10713WAT      O43571   0.012   6.553   0.861 -0.0802 -0.0835 -0.0575
10713WAT     H143572   0.039   6.607   0.799 -1.7005  0.7312 -0.1067
10713WAT     H243573  -0.021   6.606   0.922  0.1461 -0.9279  0.8245
10713WAT    EPW43574   0.011   6.569   0.861 -0.2861 -0.0879  0.0655
10714WAT      O43575   6.518   4.202   7.190  0.3955 -0.6664 -0.4293
10714WAT     H143576   6.508   4.273   7.140  2.3122 -0.0453  0.0059
10714WAT     H243577   6.446   4.155   7.173 -0.1860  0.6619 -1.8829
10714WAT    EPW43578   6.506   4.205   7.180  0.5927 -0.3784 -0.5797
10715WAT      O43579   5.284   1.204   1.819  0.1905 -0.2284  0.2200
10715WAT     H143580   5.325   1.254   1.877 -2.7473  0.8987  1.5194
10715WAT     H243581   5.203   1.237   1.816 -0.9546 -2.8113 -1.4326
10715WAT    EPW43582   5.278   1.216   1.827 -0.4126 -0.4434  0.1678
10716WAT      O43583   2.621   5.014   7.194  0.2426  0.1129  0.1150
10716WAT     H143584   2.668   5.043   7.127  2.2970 -3.1651 -0.0738
10716WAT     H243585   2.676   4.962   7.238 -1.8362 -0.1247  2.7491
10716WAT    EPW43586   2.636   5.011   7.191  0.2390 -0.4064  0.4762
10717WAT      O43587   6.477   4.720   3.788  0.2974  0.2655  0.0985
10717WAT     H143588   6.546   4.710   3.841  0.9927  0.9885 -0.6468
10717WAT     H243589   6.423   4.771   3.833 -0.3073 -1.2613  1.1819
10717WAT    EPW43590   6.479   4.726   3.802  0.3107  0.1467  0.1485
10718WAT      O43591   4.902   2.129   3.362  0.9968  0.9284 -0.5695
10718WAT     H143592   4.969   2.075   3.346  0.4543 -0.0739  0.3902
10718WAT     H243593   4.903   2.184   3.294  1.7490 -0.1193 -1.4396
10718WAT    EPW43594   4.912   2.129   3.350  1.0278  0.6256 -0.5563
10719WAT      O43595   1.238   0.900   3.597  0.1597 -0.0066  0.2613
10719WAT     H143596   1.173   0.948   3.565 -0.0973  0.3717  1.3267
10719WAT     H243597   1.282   0.876   3.526  0.7905  2.5096 -0.2923
10719WAT    EPW43598   1.235   0.903   3.582  0.2149  0.4210  0.3369
10720WAT      O43599   0.785   4.593   4.266 -0.1119 -0.0690  0.0240
10720WAT     H143600   0.724   4.633   4.314 -0.9089 -1.4724  0.2109
10720WAT     H243601   0.739   4.539   4.216  0.8382  0.2832 -1.2612
10720WAT    EPW43602   0.769   4.591   4.266 -0.0893 -0.2243 -0.1383
10721WAT      O43603   2.371   6.885   4.006  0.4467 -0.6393 -0.0301
10721WAT     H143604   2.410   6.886   4.084 -1.4300 -3.0714  1.0686
10721WAT     H243605   2.420   6.829   3.960  0.8592 -0.1289 -0.2249
10721WAT    EPW43606   2.384   6.876   4.010  0.2304 -0.9232  0.1034
10722WAT      O43607   6.201   1.373   1.629 -0.0687 -0.3809  0.1776
10722WAT     H143608   6.284   1.386   1.606 -0.3289 -0.0299 -0.6221
10722WAT     H243609   6.197   1.287   1.643  0.1214 -0.6426 -1.1787
10722WAT    EPW43610   6.212   1.362   1.627 -0.0790 -0.3677 -0.1409
10723WAT      O43611   5.189   4.085   1.546  0.1170  0.0980  0.3044
10723WAT     H143612   5.131   4.064   1.484 -0.1585 -0.8160  0.8529
10723WAT     H243613   5.258   4.034   1.526 -0.9318 -2.2570  2.2556
10723WAT    EPW43614   5.191   4.074   1.534 -0.0786 -0.3849  0.6737
10724WAT      O43615   4.061   4.446   2.635  0.4450 -0.1541 -0.0906
10724WAT     H143616   4.014   4.399   2.579  1.7045 -0.2483 -1.1218
10724WAT     H243617   4.131   4.396   2.650  0.5893  0.2964  0.8255
10724WAT    EPW43618   4.065   4.431   2.629  0.6523 -0.1015 -0.1076
10725WAT      O43619   2.376   5.120   4.406  0.6782 -0.1145 -0.2261
10725WAT     H143620   2.452   5.092   4.440  0.3901 -0.7537 -0.1089
10725WAT     H243621   2.393   5.204   4.386  0.7891  0.3733  1.7199
10725WAT    EPW43622   2.390   5.128   4.408  0.6520 -0.1369  0.0786
10726WAT      O43623   6.417   2.731   4.158 -0.0614 -0.4679 -0.4005
10726WAT     H143624   6.334   2.714   4.139  0.3906 -2.5777 -0.6701
10726WAT     H243625   6.412   2.786   4.226 -1.6622 -0.9924 -0.0598
10726WAT    EPW43626   6.404   2.737   4.165 -0.2311 -0.8570 -0.3900
10727WAT      O43627   2.921   6.222   3.722 -0.0552  0.1511  0.1984
10727WAT     H143628   2.955   6.301   3.712  0.7442 -0.2870 -0.7015
10727WAT     H243629   2.981   6.169   3.689 -0.6163 -0.8346  0.6955
10727WAT    EPW43630   2.935   6.226   3.716 -0.0200 -0.0592  0.1389
10728WAT      O43631   0.363   6.786   2.244  0.1744 -0.5081 -0.1317
10728WAT     H143632   0.330   6.730   2.301  0.6823  0.4013  1.0903
10728WAT     H243633   0.293   6.818   2.203 -0.2956 -0.2928  0.8167
10728WAT    EPW43634   0.348   6.783   2.246  0.1800 -0.3420  0.1889
10729WAT      O43635   4.739   6.793   1.049 -0.5555 -0.7073  0.5804
10729WAT     H143636   4.663   6.811   1.088 -0.2907  1.1234  0.3401
10729WAT     H243637   4.797   6.797   1.114 -0.5853 -1.7661  0.6990
10729WAT    EPW43638   4.736   6.796   1.064 -0.5208 -0.5932  0.5625
10730WAT      O43639   0.852   0.304   1.570  0.0770  0.1853 -0.1704
10730WAT     H143640   0.790   0.356   1.603 -0.9618 -0.6593 -0.7107
10730WAT     H243641   0.818   0.224   1.580  2.5022 -0.6721  2.6189
10730WAT    EPW43642   0.838   0.300   1.577  0.2818 -0.0661  0.1618
10731WAT      O43643   2.178   2.944   0.644 -0.1508 -0.0286 -0.1781
10731WAT     H143644   2.239   2.956   0.583  0.9838 -0.1004  0.9140
10731WAT     H243645   2.210   2.879   0.693 -0.4535  0.8276  1.1983
10731WAT    EPW43646   2.192   2.936   0.642 -0.0279  0.0873  0.1866
10732WAT      O43647   4.018   6.376   6.369 -0.3185 -0.0384 -0.0175
10732WAT     H143648   3.938   6.350   6.390  0.5728 -1.5949  1.8856
10732WAT     H243649   4.068   6.338   6.430  1.6412  2.7552  0.3409
10732WAT    EPW43650   4.014   6.367   6.381  0.1027  0.1443  0.3166
10733WAT      O43651   2.148   3.680   2.945  0.4137  0.2677 -0.9725
10733WAT     H143652   2.234   3.677   2.932  0.9828  1.8332  1.7008
10733WAT     H243653   2.126   3.597   2.959  1.9478  0.0686  0.5342
10733WAT    EPW43654   2.158   3.667   2.945  0.7244  0.4695 -0.3550
10734WAT      O43655   4.555   3.020   0.565  0.3676  0.1093  0.1653
10734WAT     H143656   4.529   2.963   0.625  2.4457 -1.3041 -0.1992
10734WAT     H243657   4.484   3.070   0.553 -1.0904 -1.5036  1.4990
10734WAT    EPW43658   4.541   3.019   0.572  0.4592 -0.3378  0.3084
10735WAT      O43659   6.357   7.186   5.892  0.0897 -0.1957 -0.0277
10735WAT     H143660   6.276   7.218   5.885 -0.0015  0.0108  1.6401
10735WAT     H243661   6.354   7.112   5.845 -0.2018  1.2470 -2.4459
10735WAT    EPW43662   6.345   7.180   5.884  0.0332  0.0479 -0.1386
10736WAT      O43663   4.010   3.299   5.247 -0.0088 -0.2416 -0.3236
10736WAT     H143664   3.959   3.357   5.287  0.3332 -1.3536  1.8729
10736WAT     H243665   4.014   3.232   5.303  1.2624 -1.5367 -1.8420
10736WAT    EPW43666   4.003   3.297   5.261  0.2295 -0.5972 -0.2234
10737WAT      O43667   4.208   2.299   0.300 -0.1335 -0.1413 -0.2054
10737WAT     H143668   4.290   2.300   0.272 -0.2259 -1.4679 -0.6052
10737WAT     H243669   4.162   2.321   0.230 -0.1431  0.3000 -0.0631
10737WAT    EPW43670   4.213   2.303   0.286 -0.1486 -0.2720 -0.2434
10738WAT      O43671   1.135   3.818   7.294 -0.2486 -0.7135 -0.4507
10738WAT     H143672   1.149   3.854   7.372  0.5597 -0.5475 -0.6666
10738WAT     H243673   1.152   3.884   7.238 -2.0869 -0.4269 -0.7409
10738WAT    EPW43674   1.139   3.833   7.297 -0.4008 -0.6466 -0.5255
10739WAT      O43675   2.933   0.128   6.553 -0.1218 -0.7929  0.0404
10739WAT     H143676   2.996   0.133   6.493 -1.3163 -0.2245 -1.2619
10739WAT     H243677   2.951   0.055   6.597  0.8873 -1.1641 -0.9354
10739WAT    EPW43678   2.945   0.118   6.551 -0.1492 -0.7637 -0.2961
10740WAT      O43679   0.990   1.689   7.171  0.4249  0.6704 -0.3320
10740WAT     H143680   1.064   1.676   7.127  0.6471  1.3061 -0.1583
10740WAT     H243681   0.956   1.761   7.135  0.5678  1.1590  0.4655
10740WAT    EPW43682   0.996   1.698   7.159  0.4788  0.8365 -0.1885
10741WAT      O43683   5.521   6.906   2.820  0.0191  0.2076 -0.2837
10741WAT     H143684   5.567   6.895   2.747 -0.2068 -1.0347 -0.2610
10741WAT     H243685   5.479   6.831   2.829  0.2621  0.2320  1.2918
10741WAT    EPW43686   5.522   6.894   2.810  0.0216  0.0277 -0.0476
10742WAT      O43687   6.645   6.989   7.197 -0.1636  0.1446  0.0689
10742WAT     H143688   6.656   6.924   7.139 -1.1859 -1.5672  1.6590
10742WAT     H243689   6.559   7.005   7.192 -0.3428 -0.3307  1.3521
10742WAT    EPW43690   6.634   6.982   7.188 -0.3411 -0.1785  0.4934
10743WAT      O43691   2.936   1.522   6.728  0.5868  0.0732 -0.1834
10743WAT     H143692   2.962   1.605   6.732 -1.8251  1.0447 -1.7315
10743WAT     H243693   2.889   1.512   6.801  1.4761 -0.1921  0.3627
10743WAT    EPW43694   2.933   1.533   6.739  0.3619  0.1775 -0.3314
10744WAT      O43695   5.194   6.128   4.637 -0.5771 -0.2074  0.8525
10744WAT     H143696   5.164   6.067   4.692 -1.7714 -1.3886 -1.0026
10744WAT     H243697   5.130   6.136   4.578  0.8950  0.5424 -0.7226
10744WAT    EPW43698   5.180   6.121   4.636 -0.5361 -0.2712  0.3458
10745WAT      O43699   0.632   0.116   1.595  0.0620 -0.0482 -0.0481
10745WAT     H143700   0.607   0.035   1.576  0.4235 -0.7173  2.1073
10745WAT     H243701   0.585   0.165   1.540 -0.4164 -1.6715 -1.1618
10745WAT    EPW43702   0.621   0.111   1.584  0.0447 -0.3868  0.1058
10746WAT      O43703   1.056   6.364   0.424 -0.0632  0.0134 -0.2735
10746WAT     H143704   1.086   6.299   0.474  1.1204  1.2249  0.6702
10746WAT     H243705   1.128   6.394   0.384 -0.7370  0.1686 -1.4254
10746WAT    EPW43706   1.071   6.359   0.425  0.0121  0.2153 -0.3043
10747WAT      O43707   0.562   2.107   5.151 -0.1164  0.3619 -0.0832
10747WAT     H143708   0.619   2.080   5.091  0.5222  1.5709 -0.0523
10747WAT     H243709   0.544   2.188   5.127 -0.9219  0.3964  0.5907
10747WAT    EPW43710   0.568   2.115   5.138 -0.1411  0.5455  0.0209
10748WAT      O43711   2.742   4.623   0.719 -0.0429  0.6738 -0.5242
10748WAT     H143712   2.759   4.541   0.694 -0.2897  0.3755  0.2543
10748WAT     H243713   2.788   4.672   0.662  0.9870 -0.0244 -0.3209
10748WAT    EPW43714   2.752   4.618   0.707  0.0728  0.5266 -0.3792
10749WAT      O43715   4.579   5.231   4.618  0.0757 -0.1301 -0.1120
10749WAT     H143716   4.558   5.303   4.573 -0.8237  0.2314  0.8205
10749WAT     H243717   4.572   5.167   4.559 -0.0672  0.4371 -0.7288
10749WAT    EPW43718   4.575   5.232   4.603 -0.0783  0.0071 -0.0654
10750WAT      O43719   4.393   5.130   6.754 -0.3785  0.3286  0.1646
10750WAT     H143720   4.364   5.112   6.673  0.6506 -0.6549 -0.0014
10750WAT     H243721   4.324   5.111   6.804 -1.2913  1.6877 -0.5177
10750WAT    EPW43722   4.378   5.124   6.749 -0.3613  0.3841  0.0393
10751WAT      O43723   1.314   1.430   6.951  0.5122 -0.2239 -0.1165
10751WAT     H143724   1.316   1.509   6.987  2.6136 -0.8838  1.3971
10751WAT     H243725   1.337   1.376   7.016 -1.2072 -2.1707 -0.9849
10751WAT    EPW43726   1.317   1.433   6.966  0.5686 -0.6090 -0.0212
10752WAT      O43727   3.841   3.409   5.424  0.0975  0.3197 -0.1156
10752WAT     H143728   3.866   3.491   5.409  0.6810  0.1208 -0.2469
10752WAT     H243729   3.770   3.418   5.475 -0.1441  0.9148 -0.5533
10752WAT    EPW43730   3.834   3.423   5.430  0.1480  0.3782 -0.1997
10753WAT      O43731   0.551   0.159   4.743 -0.2104  0.1319  0.0342
10753WAT     H143732   0.572   0.141   4.826  2.3917  2.5777  0.0830
10753WAT     H243733   0.526   0.082   4.711  0.6806 -1.3428  2.5645
10753WAT    EPW43734   0.551   0.145   4.751  0.3056  0.2753  0.4152
10754WAT      O43735   0.560   3.982   5.682 -0.1574  0.1131 -0.6196
10754WAT     H143736   0.560   4.058   5.638 -3.6572  1.8914  1.9516
10754WAT     H243737   0.584   4.005   5.763  1.3276 -2.1141 -0.3418
10754WAT    EPW43738   0.564   3.997   5.688 -0.4551  0.0468 -0.1987
10755WAT      O43739   2.033   4.061   3.834 -0.0784  0.2948 -0.1108
10755WAT     H143740   2.025   4.089   3.916 -0.8038  0.2052 -0.1378
10755WAT     H243741   2.069   4.128   3.792 -0.7951  0.7853  0.0486
10755WAT    EPW43742   2.037   4.075   3.840 -0.2914  0.3540 -0.0913
10756WAT      O43743   5.769   2.520   1.644  0.2332  0.0563 -0.1023
10756WAT     H143744   5.769   2.470   1.572  0.5236 -0.0284 -0.0452
10756WAT     H243745   5.843   2.497   1.685  1.1227  1.5370 -0.7890
10756WAT    EPW43746   5.780   2.510   1.639  0.4075  0.2625 -0.1953
10757WAT      O43747   3.214   0.079   1.240 -1.1122 -0.2261 -0.3328
10757WAT     H143748   3.205   0.163   1.260  0.1706  0.2055 -1.4461
10757WAT     H243749   3.189   0.038   1.313 -1.4294  1.1070  0.3478
10757WAT    EPW43750   3.209   0.085   1.253 -0.9696  0.0346 -0.3967
10758WAT      O43751   0.705   1.812   5.442  0.1830  0.3077 -0.2216
10758WAT     H143752   0.729   1.891   5.413  0.2075  1.4409  2.5256
10758WAT     H243753   0.677   1.771   5.371  0.6881  2.5915 -1.8499
10758WAT    EPW43754   0.705   1.818   5.427  0.2613  0.8125 -0.0563
10759WAT      O43755   2.768   6.208   6.520 -0.3972 -0.4979  0.2255
10759WAT     H143756   2.773   6.161   6.447 -0.9979 -0.3735  0.0944
10759WAT     H243757   2.746   6.288   6.491  0.9294 -0.0438  0.4172
10759WAT    EPW43758   2.765   6.213   6.505 -0.2900 -0.4124  0.2344
10760WAT      O43759   4.138   1.177   2.425 -0.1903 -0.1938 -0.1543
10760WAT     H143760   4.166   1.257   2.445  1.1240 -0.6828  0.0358
10760WAT     H243761   4.053   1.181   2.443  0.1154  0.7258  1.2691
10760WAT    EPW43762   4.129   1.190   2.431  0.0490 -0.1302  0.0840
10761WAT      O43763   0.831   2.476   0.371 -0.1484 -0.4250 -0.0491
10761WAT     H143764   0.881   2.490   0.441  1.3182 -1.0634 -0.9246
10761WAT     H243765   0.848   2.393   0.350 -0.1597 -0.0895 -1.4637
10761WAT    EPW43766   0.841   2.466   0.379  0.0666 -0.4698 -0.3874
10762WAT      O43767   3.557   1.238   4.560  0.1081 -0.3667  0.5171
10762WAT     H143768   3.473   1.251   4.578  0.0077 -0.9801  0.5158
10762WAT     H243769   3.558   1.225   4.473  0.3379  0.6326  0.3601
10762WAT    EPW43770   3.545   1.238   4.550  0.1272 -0.3097  0.4937
10763WAT      O43771   1.280   6.191   0.813 -0.4444  0.6430 -0.6532
10763WAT     H143772   1.257   6.180   0.729 -0.8633  1.7934 -0.7207
10763WAT     H243773   1.365   6.208   0.809 -0.4117  0.4374 -0.8273
10763WAT    EPW43774   1.289   6.192   0.800 -0.5014  0.7826 -0.6889
10764WAT      O43775   4.577   5.644   2.272  0.1378  0.1192  0.1301
10764WAT     H143776   4.549   5.600   2.202 -2.5262  1.3702  0.2697
10764WAT     H243777   4.661   5.659   2.254 -0.5485  0.9020 -3.1528
10764WAT    EPW43778   4.585   5.640   2.259 -0.3571  0.4196 -0.3343
10765WAT      O43779   5.444   3.720   3.037 -0.5277  0.2877 -0.8217
10765WAT     H143780   5.506   3.759   2.989 -0.6053  1.6002  0.1203
10765WAT     H243781   5.489   3.681   3.101 -0.5316 -0.3717 -1.2133
10765WAT    EPW43782   5.460   3.720   3.039 -0.5397  0.3842 -0.7404
10766WAT      O43783   0.306   1.849   3.805 -0.0834 -0.0432 -0.4549
10766WAT     H143784   0.258   1.776   3.814  0.4844 -0.5870 -1.5957
10766WAT     H243785   0.276   1.884   3.731 -0.6549  1.1528  0.3060
10766WAT    EPW43786   0.294   1.843   3.796 -0.0839  0.0532 -0.5110
10767WAT      O43787   1.423   2.759   4.385 -0.0954  0.0424  0.1137
10767WAT     H143788   1.370   2.691   4.400 -0.0815 -0.2500 -1.0214
10767WAT     H243789   1.496   2.721   4.354  0.8234  0.4318  1.7022
10767WAT    EPW43790   1.426   2.743   4.383  0.0424  0.0567  0.1807
10768WAT      O43791   7.227   6.571   7.045  0.3612  0.0218 -0.3987
10768WAT     H143792   7.201   6.582   7.128  1.3275  0.9656 -0.1857
10768WAT     H243793   7.306   6.534   7.054 -0.1615 -1.2826 -0.9628
10768WAT    EPW43794   7.235   6.567   7.059  0.4267 -0.0315 -0.4506
10769WAT      O43795   0.972   7.203   5.415  0.2895  0.5591 -0.4184
10769WAT     H143796   1.051   7.173   5.439  1.2043  2.0922 -1.3886
10769WAT     H243797   0.919   7.136   5.433  1.7345 -0.3680  0.6522
10769WAT    EPW43798   0.976   7.188   5.421  0.6381  0.6486 -0.4036
10770WAT      O43799   3.560   4.556   2.984 -0.5204 -0.2826  0.0146
10770WAT     H143800   3.578   4.489   3.037 -0.6989  1.7146  2.7937
10770WAT     H243801   3.628   4.610   2.994 -0.1242 -0.1755 -2.5707
10770WAT    EPW43802   3.573   4.554   2.993 -0.4883  0.0283  0.0432
10771WAT      O43803   5.564   0.398   7.279 -0.0207  0.3807  0.6358
10771WAT     H143804   5.650   0.389   7.265 -0.0210  0.2707  0.7040
10771WAT     H243805   5.548   0.342   7.344 -0.0340  0.8213  1.0175
10771WAT    EPW43806   5.574   0.388   7.287 -0.0227  0.4296  0.7022
10772WAT      O43807   3.023   0.908   6.554  0.8669  0.0429 -0.1066
10772WAT     H143808   3.019   0.832   6.511 -0.9183 -0.3938  0.7505
10772WAT     H243809   3.014   0.885   6.637 -0.5643  1.2371  0.1031
10772WAT    EPW43810   3.021   0.893   6.560  0.3917  0.1548  0.0510
10773WAT      O43811   4.067   5.569   7.075  0.1365  0.2491 -0.0817
10773WAT     H143812   4.104   5.583   7.153 -1.8420 -1.3930  1.2822
10773WAT     H243813   4.022   5.495   7.087  2.3692 -2.0342 -3.8456
10773WAT    EPW43814   4.066   5.560   7.089  0.1740 -0.3307 -0.4363
10774WAT      O43815   4.723   2.402   1.238  0.4114 -0.0771 -0.1586
10774WAT     H143816   4.703   2.354   1.309  1.2427 -0.8822 -0.4483
10774WAT     H243817   4.673   2.472   1.246  0.4472 -0.1798  1.2148
10774WAT    EPW43818   4.713   2.405   1.250  0.5395 -0.2112  0.0015
10775WAT      O43819   4.501   6.818   6.053  0.3326  0.0763  0.1611
10775WAT     H143820   4.551   6.828   6.123  2.8298  1.5499 -1.6779
10775WAT     H243821   4.420   6.828   6.084  1.4102  2.7413  2.5352
10775WAT    EPW43822   4.496   6.821   6.068  0.8607  0.6876  0.2401
10776WAT      O43823   6.049   2.549   5.308  0.3528 -0.2579  0.2880
10776WAT     H143824   6.018   2.512   5.235 -2.2184 -0.9690  1.6126
10776WAT     H243825   6.119   2.499   5.328  0.4784 -0.6807 -1.0995
10776WAT    EPW43826   6.055   2.536   5.300 -0.0085 -0.4254  0.2787
10777WAT      O43827   4.531   1.907   3.039  0.1247  0.5245 -0.1613
10777WAT     H143828   4.501   1.894   2.958  0.6366 -0.4988 -0.2110
10777WAT     H243829   4.478   1.968   3.072 -1.2073 -0.3003 -0.6803
10777WAT    EPW43830   4.519   1.914   3.032  0.0036  0.2515 -0.2453
10778WAT      O43831   2.773   1.332   5.451  0.2775  0.4217  0.1645
10778WAT     H143832   2.726   1.316   5.380 -0.1209 -1.2708  0.7666
10778WAT     H243833   2.851   1.296   5.433 -0.0862 -0.7797  0.8702
10778WAT    EPW43834   2.778   1.324   5.438  0.1650 -0.0058  0.3577
10779WAT      O43835   3.495   0.022   6.118  0.5537  0.2850  0.1805
10779WAT     H143836   3.565  -0.027   6.101  1.8445  2.0599  0.0750
10779WAT     H243837   3.466   0.044   6.038 -0.2966 -0.6224  0.2189
10779WAT    EPW43838   3.501   0.018   6.103  0.6187  0.4131  0.1706
10780WAT      O43839   4.756   7.094   5.789 -0.1334 -0.1428 -0.0947
10780WAT     H143840   4.709   7.056   5.726 -1.1907  2.9029 -1.3170
10780WAT     H243841   4.703   7.095   5.858  0.3966 -1.9412  0.3882
10780WAT    EPW43842   4.741   7.088   5.790 -0.2113  0.0415 -0.2040
10781WAT      O43843   3.989   2.929   1.915 -0.0735  0.5373  0.1077
10781WAT     H143844   4.041   2.898   1.978  2.2905  0.8804 -1.5731
10781WAT     H243845   3.910   2.928   1.952  0.8012 -1.6772  2.2046
10781WAT    EPW43846   3.985   2.924   1.930  0.4049  0.2608  0.1692
10782WAT      O43847   3.913   5.296   1.201  0.0223  0.0788  0.0006
10782WAT     H143848   3.947   5.248   1.265  1.1645  0.4341 -0.3212
10782WAT     H243849   3.940   5.377   1.218 -0.0609  0.2590 -0.6625
10782WAT    EPW43850   3.922   5.301   1.213  0.1788  0.1579 -0.1449
10783WAT      O43851   6.711   0.322   3.638 -0.0944 -0.2928 -0.1988
10783WAT     H143852   6.690   0.406   3.652 -1.7410 -0.6463 -0.3654
10783WAT     H243853   6.644   0.278   3.673  0.4531 -1.5233 -0.6462
10783WAT    EPW43854   6.698   0.328   3.646 -0.2567 -0.5268 -0.2895
10784WAT      O43855   0.179   4.214   5.032  0.1518  0.3610 -0.3290
10784WAT     H143856   0.259   4.236   5.005  0.3073  1.2356  0.7522
10784WAT     H243857   0.181   4.127   5.034  0.5283  0.3186 -1.8739
10784WAT    EPW43858   0.191   4.204   5.029  0.2303  0.4840 -0.3975
10785WAT      O43859   6.431   2.960   6.144  0.2072  0.3605 -0.2074
10785WAT     H143860   6.502   2.973   6.096  0.6201 -0.3831  0.1856
10785WAT     H243861   6.380   3.028   6.124 -0.1316 -0.5200 -2.5663
10785WAT    EPW43862   6.434   2.972   6.134  0.2182  0.1206 -0.4978
10786WAT      O43863   5.907   5.752   2.611  0.4561 -0.6185 -0.6399
10786WAT     H143864   5.854   5.699   2.657  0.6259  0.4401  0.8427
10786WAT     H243865   5.942   5.699   2.551 -0.4793 -1.8611 -0.1326
10786WAT    EPW43866   5.904   5.736   2.609  0.3430 -0.6457 -0.3459
10787WAT      O43867   6.482   6.129   4.749 -0.0197 -0.3382  0.1055
10787WAT     H143868   6.525   6.105   4.821  1.4931  1.2082 -0.1901
10787WAT     H243869   6.538   6.109   4.685 -1.1226 -1.2038 -0.6198
10787WAT    EPW43870   6.497   6.122   4.750  0.0409 -0.2376 -0.0453
10788WAT      O43871   1.085   4.778   5.627 -0.9154 -0.7307  0.1598
10788WAT     H143872   1.063   4.792   5.710  1.4189  0.2259  0.6742
10788WAT     H243873   1.018   4.812   5.583 -0.6250  2.0228  1.6224
10788WAT    EPW43874   1.072   4.785   5.633 -0.5277 -0.1826  0.4518
10789WAT      O43875   5.149   5.102   0.367  0.0610 -0.1237  0.0079
10789WAT     H143876   5.104   5.078   0.438  0.2543 -0.4618  0.0180
10789WAT     H243877   5.086   5.122   0.309 -0.2012 -2.4411 -0.6398
10789WAT    EPW43878   5.133   5.101   0.369  0.0508 -0.5160 -0.0863
10790WAT      O43879   4.625   1.936   0.357 -0.1471  0.2294  0.1001
10790WAT     H143880   4.550   1.950   0.400  0.5339 -0.1393  1.4601
10790WAT     H243881   4.652   2.016   0.336  0.2600  0.5406  1.7146
10790WAT    EPW43882   4.618   1.950   0.360  0.0136  0.2209  0.5395
10791WAT      O43883   4.749   6.243   2.063 -0.1413  0.3591  0.0965
10791WAT     H143884   4.744   6.157   2.052  2.4898 -0.4044  3.4022
10791WAT     H243885   4.678   6.261   2.111  0.6790 -0.5549  1.7373
10791WAT    EPW43886   4.738   6.233   2.069  0.3685  0.1113  0.8272
10792WAT      O43887   2.536   3.526   2.195 -0.0388 -0.3019  0.4620
10792WAT     H143888   2.475   3.571   2.238 -0.0063 -1.2892  1.5773
10792WAT     H243889   2.605   3.530   2.249  0.6904  0.2414 -0.4835
10792WAT    EPW43890   2.538   3.533   2.210  0.0737 -0.3675  0.4871
10793WAT      O43891   0.853   2.839   0.915 -0.0828 -0.1308 -0.7458
10793WAT     H143892   0.823   2.878   0.987 -0.5455 -2.1734  0.2571
10793WAT     H243893   0.781   2.807   0.877  0.3090 -0.4110 -1.2740
10793WAT    EPW43894   0.838   2.840   0.920 -0.0933 -0.4739 -0.6757
10794WAT      O43895   2.379   1.393   5.542  0.5547  0.3834 -0.3072
10794WAT     H143896   2.388   1.455   5.482 -0.3648  1.3416  0.4974
10794WAT     H243897   2.335   1.433   5.606 -0.7717 -1.3010 -0.0893
10794WAT    EPW43898   2.374   1.408   5.543  0.2230  0.2761 -0.1561
10795WAT      O43899   2.614   5.282   0.523 -0.0939 -0.2784 -0.0109
10795WAT     H143900   2.629   5.260   0.440 -1.0869  0.7343 -0.4813
10795WAT     H243901   2.595   5.367   0.519  1.7133  0.2525  1.5040
10795WAT    EPW43902   2.613   5.291   0.511  0.0264 -0.0504  0.1434
10796WAT      O43903   3.056   0.082   2.072  0.1602 -0.1435 -0.2168
10796WAT     H143904   3.113   0.019   2.092  0.2254  0.0018  0.0567
10796WAT     H243905   3.107   0.152   2.059 -0.0042  0.1523  0.6883
10796WAT    EPW43906   3.072   0.083   2.073  0.1455 -0.0783 -0.0427
10797WAT      O43907   3.875   0.758   1.094 -0.4856  0.1829  0.6061
10797WAT     H143908   3.798   0.786   1.063 -0.1402  1.1771  0.6233
10797WAT     H243909   3.918   0.732   1.022 -1.1931 -1.3619  0.6874
10797WAT    EPW43910   3.870   0.758   1.079 -0.5391  0.1015  0.6206
10798WAT      O43911   5.896   3.696   0.626  0.2497 -0.2754 -0.1298
10798WAT     H143912   5.928   3.770   0.659 -1.1397 -0.5502  2.0178
10798WAT     H243913   5.816   3.718   0.599  0.8516 -0.3913 -2.2254
10798WAT    EPW43914   5.889   3.710   0.627  0.1334 -0.3331 -0.1221
10799WAT      O43915   0.929   7.217   6.587  0.3834 -0.0321 -0.1872
10799WAT     H143916   0.897   7.190   6.663 -0.6044  0.1142 -0.5410
10799WAT     H243917   0.876   7.180   6.528  2.3535 -1.8844 -0.9266
10799WAT    EPW43918   0.917   7.207   6.589  0.5285 -0.2841 -0.3487
10800WAT      O43919   7.004   3.268   3.235 -0.2971  0.0609  0.1078
10800WAT     H143920   7.011   3.278   3.321  0.2751 -0.0229  0.0745
10800WAT     H243921   7.061   3.205   3.216 -1.6955 -1.2129 -0.0943
10800WAT    EPW43922   7.013   3.260   3.245 -0.4191 -0.1396  0.0731
10801WAT      O43923   2.729   4.207   6.699 -0.0346  0.6719 -0.0470
10801WAT     H143924   2.688   4.133   6.717  1.5347 -0.1070  0.5193
10801WAT     H243925   2.704   4.225   6.617 -0.7289 -0.2788 -0.0600
10801WAT    EPW43926   2.720   4.199   6.689  0.0947  0.4164  0.0347
10802WAT      O43927   4.595   4.166   3.553 -0.3912 -0.3664  0.0241
10802WAT     H143928   4.599   4.083   3.524 -0.6907 -0.5358  0.4553
10802WAT     H243929   4.517   4.169   3.593  0.6477 -0.5978  2.1939
10802WAT    EPW43930   4.584   4.154   3.555 -0.2820 -0.4256  0.4083
10803WAT      O43931   5.965   4.909   7.183  0.2955 -0.1115  0.0366
10803WAT     H143932   6.044   4.915   7.146 -0.1108 -0.9207 -1.0527
10803WAT     H243933   5.917   4.966   7.138 -0.3914 -1.6528 -1.3010
10803WAT    EPW43934   5.969   4.918   7.171  0.1340 -0.4587 -0.3219
10804WAT      O43935   2.675   0.319   6.328 -0.3352 -0.3205  0.3116
10804WAT     H143936   2.740   0.281   6.286 -0.3391 -0.0295  0.0415
10804WAT     H243937   2.684   0.404   6.309  0.8661  0.1117  2.4855
10804WAT    EPW43938   2.686   0.326   6.319 -0.1583 -0.2137  0.5928
10805WAT      O43939   2.971   6.554   3.077  0.0167  0.2912 -0.4324
10805WAT     H143940   2.975   6.539   2.991  1.0784 -0.6286 -0.2324
10805WAT     H243941   2.897   6.600   3.085  0.2009  0.9193 -1.9044
10805WAT    EPW43942   2.960   6.559   3.065  0.2007  0.2481 -0.6203
10806WAT      O43943   0.242   6.099   3.728  0.1339  0.3413  0.3497
10806WAT     H143944   0.253   6.164   3.671 -1.7941  0.3033 -0.1134
10806WAT     H243945   0.323   6.066   3.736  0.5967  0.7742 -1.8252
10806WAT    EPW43946   0.256   6.104   3.721 -0.0826  0.3996 -0.0399
10807WAT      O43947   1.573   3.296   3.335  0.4053 -0.1419  0.5486
10807WAT     H143948   1.655   3.296   3.365 -0.1686  0.6144  2.2370
10807WAT     H243949   1.551   3.212   3.336  1.3290 -0.4161 -0.4792
10807WAT    EPW43950   1.582   3.284   3.339  0.4570 -0.0707  0.6462
10808WAT      O43951   4.129   4.341   1.470  0.3232  0.1697 -0.4375
10808WAT     H143952   4.195   4.398   1.474  1.4646 -1.1221 -0.1212
10808WAT     H243953   4.065   4.381   1.513  0.1385  2.3824 -2.5447
10808WAT    EPW43954   4.130   4.356   1.477  0.4645  0.3057 -0.7020
10809WAT      O43955   5.448   3.170   2.492  0.4520  0.2356 -0.6973
10809WAT     H143956   5.458   3.256   2.502  2.0101  0.0555 -0.4827
10809WAT     H243957   5.498   3.151   2.423 -0.6494 -0.3574 -1.3507
10809WAT    EPW43958   5.457   3.180   2.483  0.5195  0.1214 -0.7621
10810WAT      O43959   1.500   1.447   5.352  0.4120  0.1152  0.1597
10810WAT     H143960   1.457   1.483   5.418  0.0534  0.5908 -0.3307
10810WAT     H243961   1.509   1.363   5.377  3.8350  1.0075  2.6823
10810WAT    EPW43962   1.495   1.440   5.366  0.8647  0.3173  0.4599
10811WAT      O43963   1.573   4.468   2.053 -0.0874 -0.0342 -0.2094
10811WAT     H143964   1.609   4.414   1.995  1.5884  1.9819 -1.1852
10811WAT     H243965   1.617   4.451   2.126 -1.3012 -1.6667  0.1936
10811WAT    EPW43966   1.585   4.458   2.055 -0.0191  0.0225 -0.2940
10812WAT      O43967   4.568   2.232   2.224 -0.3188  0.3474  0.1562
10812WAT     H143968   4.616   2.169   2.186 -0.2375  1.8363 -2.4366
10812WAT     H243969   4.586   2.222   2.309  0.4180 -2.4926 -0.2206
10812WAT    EPW43970   4.578   2.221   2.231 -0.1979  0.1478 -0.2825
10813WAT      O43971   3.719   2.757   0.949  0.6482 -0.2477 -0.2505
10813WAT     H143972   3.689   2.809   1.013 -0.3549  0.7042 -1.4330
10813WAT     H243973   3.772   2.702   0.990 -1.0816 -0.6286  1.6461
10813WAT    EPW43974   3.722   2.757   0.964  0.2445 -0.1633 -0.1450
10814WAT      O43975   5.391   2.898   6.811  0.3213 -0.1765 -0.2488
10814WAT     H143976   5.449   2.912   6.747  1.4681 -0.5376  0.6589
10814WAT     H243977   5.438   2.913   6.884 -0.3197 -1.8629  0.5612
10814WAT    EPW43978   5.407   2.902   6.813  0.3961 -0.4790  0.0049
10815WAT      O43979   3.445   2.933   5.191  0.7713 -0.2799 -0.6117
10815WAT     H143980   3.511   2.883   5.217 -1.1849 -1.7583  1.9927
10815WAT     H243981   3.482   3.011   5.181  2.7656 -0.7351  1.9203
10815WAT    EPW43982   3.460   2.937   5.193  0.7769 -0.5655  0.1470
10816WAT      O43983   2.035   6.998   6.887 -0.3196 -0.1313  0.1240
10816WAT     H143984   2.105   7.014   6.936 -0.9331  0.1194  0.9480
10816WAT     H243985   1.968   7.016   6.940 -1.0303  1.2595 -1.1505
10816WAT    EPW43986   2.036   7.003   6.902 -0.5152  0.1112  0.0574
10817WAT      O43987   1.079   4.809   5.929  0.0937  0.1782 -0.3785
10817WAT     H143988   1.165   4.801   5.940  0.0272 -1.4451 -0.6913
10817WAT     H243989   1.045   4.768   5.998 -0.3472 -2.2465 -1.8837
10817WAT    EPW43990   1.086   4.802   5.941  0.0188 -0.4197 -0.6471
10818WAT      O43991   5.880   6.652   2.361  0.3427  0.3385  0.3765
10818WAT     H143992   5.945   6.686   2.410 -0.4207  0.6976  1.1601
10818WAT     H243993   5.842   6.595   2.414 -0.2986  0.4896  0.0808
10818WAT    EPW43994   5.884   6.649   2.376  0.1352  0.4139  0.4486
10819WAT      O43995   5.436   6.603   7.126 -0.5099 -0.3445 -0.1045
10819WAT     H143996   5.404   6.528   7.095 -0.5691 -0.0823 -0.6970
10819WAT     H243997   5.480   6.636   7.058 -1.4075  0.6826 -0.2247
10819WAT    EPW43998   5.437   6.597   7.111 -0.6513 -0.1541 -0.2098
10820WAT      O43999   6.190   0.589   5.239 -0.4133  0.1003  0.6327
10820WAT     H144000   6.240   0.551   5.179 -0.0414  0.5204  0.6662
10820WAT     H244001   6.248   0.626   5.293 -0.7337  2.1570 -0.3240
10820WAT    EPW44002   6.206   0.589   5.238 -0.4057  0.4662  0.4963
10821WAT      O44003   5.761   5.897   0.729  0.6339 -0.0170 -0.7871
10821WAT     H144004   5.778   5.833   0.672  1.4971 -0.2125 -0.3350
10821WAT     H244005   5.834   5.903   0.776  0.8523  1.8240 -1.2893
10821WAT    EPW44006   5.774   5.888   0.728  0.7937  0.2261 -0.7945
10822WAT      O44007   0.330   3.620   4.230 -0.2227 -0.1907 -0.0858
10822WAT     H144008   0.391   3.603   4.290 -0.2208 -1.0360 -0.3138
10822WAT     H244009   0.271   3.667   4.274 -0.5999 -1.4327  0.8219
10822WAT    EPW44010   0.330   3.624   4.246 -0.2782 -0.4990  0.0146
10823WAT      O44011   1.661   2.957   4.228  0.0909  0.9259 -0.4220
10823WAT     H144012   1.614   2.912   4.171 -0.2160 -1.4247  1.5389
10823WAT     H244013   1.602   2.980   4.289  1.0775 -0.5463  1.1736
10823WAT    EPW44014   1.645   2.954   4.229  0.1913  0.3612  0.1033
10824WAT      O44015   5.056   4.597   2.873  0.5528  0.1597 -0.0433
10824WAT     H144016   5.042   4.683   2.870  0.8432  0.2356  0.7874
10824WAT     H244017   4.982   4.565   2.904  0.7954  0.2071  0.6003
10824WAT    EPW44018   5.043   4.605   2.877  0.6316  0.1779  0.1745
10825WAT      O44019   1.977   4.717   4.629 -0.0225 -0.1327  0.3267
10825WAT     H144020   2.057   4.690   4.608 -0.2672 -1.5002  1.0466
10825WAT     H244021   1.929   4.696   4.559  0.1935  0.4549 -0.0012
10825WAT    EPW44022   1.981   4.710   4.615 -0.0267 -0.2479  0.3846
10826WAT      O44023   4.271   1.263   3.762  0.5458  0.0745  0.4029
10826WAT     H144024   4.203   1.224   3.801  0.7668  1.2042  2.0385
10826WAT     H244025   4.235   1.332   3.723  0.3766 -0.8747 -1.1899
10826WAT    EPW44026   4.255   1.267   3.762  0.5535  0.1012  0.4092
10827WAT      O44027   0.121   1.798   2.743  0.7300  0.1673 -0.0538
10827WAT     H144028   0.097   1.876   2.776 -1.7800 -1.6919  3.1369
10827WAT     H244029   0.206   1.794   2.760  0.6242  1.6965  1.0906
10827WAT    EPW44030   0.130   1.809   2.751  0.3436  0.1185  0.5866
10828WAT      O44031   6.998   5.801   4.702 -0.7951 -0.2343 -0.0611
10828WAT     H144032   7.028   5.754   4.635  0.4816  1.3022 -0.6159
10828WAT     H244033   6.927   5.756   4.727 -0.1355 -1.9752 -1.0821
10828WAT    EPW44034   6.992   5.787   4.696 -0.5091 -0.2645 -0.2939
10829WAT      O44035   3.629   0.360   1.697  0.0256 -0.0182 -0.0833
10829WAT     H144036   3.714   0.380   1.704 -0.0791  0.0672  1.1320
10829WAT     H244037   3.616   0.305   1.764 -0.6696 -0.7858 -0.8300
10829WAT    EPW44038   3.640   0.355   1.708 -0.0925 -0.1189 -0.0141
10830WAT      O44039   0.069   2.859   4.697 -0.1555  0.2238 -0.7219
10830WAT     H144040   0.032   2.849   4.619 -0.0141  5.0374 -1.7018
10830WAT     H244041   0.154   2.863   4.678 -0.1056  1.2113 -0.3426
10830WAT    EPW44042   0.076   2.858   4.682 -0.1272  1.0808 -0.8106
10831WAT      O44043   1.015   1.556   4.263  0.2419  0.3177 -0.4975
10831WAT     H144044   1.005   1.638   4.234 -0.3474  0.0809 -0.9932
10831WAT     H244045   0.971   1.508   4.205 -1.4730 -0.1344  1.0334
10831WAT    EPW44046   1.007   1.561   4.251 -0.0985  0.2159 -0.3446
10832WAT      O44047   3.915   1.576   3.119 -0.1076 -0.5970 -0.3745
10832WAT     H144048   3.967   1.516   3.155 -1.5535 -1.3897  0.4810
10832WAT     H244049   3.894   1.541   3.041  1.8058  0.4326 -1.4311
10832WAT    EPW44050   3.920   1.562   3.113 -0.0386 -0.5620 -0.4042
10833WAT      O44051   0.589   4.782   3.475 -0.0178 -0.4249  0.1547
10833WAT     H144052   0.650   4.735   3.516 -2.5129 -1.3675  3.1934
10833WAT     H244053   0.565   4.841   3.534 -0.9043  1.0032 -1.5422
10833WAT    EPW44054   0.594   4.784   3.490 -0.5173 -0.3532  0.3529
10834WAT      O44055   0.625   6.031   1.134  0.4412  0.5358 -0.4180
10834WAT     H144056   0.652   5.982   1.201 -1.3559  0.6459  0.4340
10834WAT     H244057   0.696   6.079   1.115  0.5522  1.8003  2.5952
10834WAT    EPW44058   0.640   6.031   1.141  0.1921  0.7388  0.1530
10835WAT      O44059   4.902   5.165   5.517 -0.5685 -0.2213 -0.5377
10835WAT     H144060   4.820   5.193   5.518  0.0472  1.8632 -1.4752
10835WAT     H244061   4.941   5.217   5.459  1.9243  0.5287  1.5518
10835WAT    EPW44062   4.896   5.177   5.509 -0.1093  0.1974 -0.3675
10836WAT      O44063   1.504   6.903   2.390  0.2816  0.6453  0.4747
10836WAT     H144064   1.469   6.830   2.424 -0.2315  1.7008  2.3843
10836WAT     H244065   1.464   6.910   2.312 -1.2056 -0.0335  1.1292
10836WAT    EPW44066   1.493   6.893   2.383 -0.0139  0.7010  0.8535
10837WAT      O44067   4.306   2.935   4.424  0.3198  0.1323  0.4024
10837WAT     H144068   4.314   2.851   4.402 -1.5677 -0.0051  0.0324
10837WAT     H244069   4.230   2.938   4.467  1.2913  1.3492  2.1542
10837WAT    EPW44070   4.296   2.923   4.427  0.1845  0.2917  0.6065
10838WAT      O44071   6.851   4.424   6.008 -1.0896 -0.7527  0.5375
10838WAT     H144072   6.903   4.395   5.944  0.9828  1.2707  1.1825
10838WAT     H244073   6.813   4.494   5.974 -0.9090 -0.3636  1.1244
10838WAT    EPW44074   6.853   4.430   5.994 -0.7568 -0.3963  0.7195
10839WAT      O44075   7.274   7.016   7.062 -0.5124 -0.2448 -0.4721
10839WAT     H144076   7.242   6.976   7.132 -0.4654 -1.7741 -1.2961
10839WAT     H244077   7.360   7.005   7.069 -0.4570  0.1605 -0.4602
10839WAT    EPW44078   7.282   7.009   7.074 -0.4973 -0.4109 -0.5921
10840WAT      O44079   2.923   1.918   4.979  0.6160  0.3309  0.0933
10840WAT     H144080   2.910   1.840   5.016 -0.0372  0.1670 -0.4559
10840WAT     H244081   2.852   1.963   5.003  1.0742  0.8213  0.5541
10840WAT    EPW44082   2.911   1.913   4.988  0.5872  0.3791  0.0803
10841WAT      O44083   5.610   0.965   0.229  0.2637  0.9573  0.1935
10841WAT     H144084   5.553   1.028   0.245 -1.4328 -0.7212  1.2260
10841WAT     H244085   5.668   0.973   0.294  0.9912  2.3706 -0.5829
10841WAT    EPW44086   5.610   0.975   0.241  0.1205  0.9181  0.2313
10842WAT      O44087   7.189   3.393   0.629 -0.2212 -0.4853  0.4526
10842WAT     H144088   7.235   3.332   0.586  0.1130 -0.5410  0.8862
10842WAT     H244089   7.160   3.445   0.565 -0.3408 -0.9801  0.0948
10842WAT    EPW44090   7.191   3.391   0.613 -0.1895 -0.5666  0.4638
10843WAT      O44091   1.373   0.378   5.175  0.0208  0.6455  0.0614
10843WAT     H144092   1.348   0.298   5.202  0.7714  0.6897  0.9377
10843WAT     H244093   1.436   0.361   5.118 -0.0574  0.6047 -0.0131
10843WAT    EPW44094   1.378   0.363   5.171  0.1202  0.6460  0.1798
10844WAT      O44095   3.597   3.303   0.440  0.1499 -0.6462 -0.0490
10844WAT     H144096   3.616   3.258   0.367 -0.7987 -0.1654 -0.6016
10844WAT     H244097   3.517   3.332   0.426 -0.4834 -1.4449  1.6654
10844WAT    EPW44098   3.588   3.300   0.427 -0.0838 -0.6932  0.1227
10845WAT      O44099   7.134   4.685   5.926  0.4893  0.6725  0.0453
10845WAT     H144100   7.048   4.686   5.944  0.3078  0.7756 -0.7848
10845WAT     H244101   7.143   4.618   5.871  0.6697  1.6020 -1.0985
10845WAT    EPW44102   7.122   4.675   5.921  0.4892  0.8251 -0.2463
10846WAT      O44103   0.050   2.904   4.976  0.5685  0.5592 -0.0294
10846WAT     H144104   0.130   2.918   5.008  0.0590  0.9353  1.1707
10846WAT     H244105   0.062   2.901   4.890  1.8761  0.5680  0.1336
10846WAT    EPW44106   0.064   2.906   4.968  0.6864  0.6160  0.1719
10847WAT      O44107   6.641   7.115   0.891 -0.2181  0.1681 -0.3571
10847WAT     H144108   6.674   7.188   0.927  0.9755  0.0605 -1.1686
10847WAT     H244109   6.565   7.142   0.857  0.6148  1.2950 -1.4585
10847WAT    EPW44110   6.635   7.130   0.892  0.0813  0.3186 -0.6396
10848WAT      O44111   5.760   0.937   1.389  0.8278  0.2751  0.2466
10848WAT     H144112   5.674   0.952   1.383  0.8693  1.0807  1.3255
10848WAT     H244113   5.765   0.865   1.438  0.7765  1.5165  2.1797
10848WAT    EPW44114   5.748   0.929   1.395  0.8264  0.5775  0.6915
10849WAT      O44115   4.674   4.746   0.103  0.2805 -0.3021  0.0685
10849WAT     H144116   4.728   4.727   0.169  0.0859  1.1065  0.6734
10849WAT     H244117   4.727   4.742   0.033  1.5411  2.1571  0.7617
10849WAT    EPW44118   4.690   4.743   0.103  0.4380  0.2692  0.2603
10850WAT      O44119   5.068   2.156   1.620  0.3616 -0.5238  0.1758
10850WAT     H144120   5.030   2.142   1.698  1.0895 -0.7701  0.5040
10850WAT     H244121   5.106   2.234   1.629 -1.4145  0.4974 -0.7221
10850WAT    EPW44122   5.068   2.165   1.633  0.2068 -0.4093  0.0916
10851WAT      O44123   1.258   1.398   4.245 -0.0422 -0.1458 -0.4416
10851WAT     H144124   1.295   1.414   4.323 -1.1210  1.0143 -0.1503
10851WAT     H244125   1.204   1.465   4.233 -0.4313 -0.6771 -1.8779
10851WAT    EPW44126   1.256   1.410   4.255 -0.2591 -0.0529 -0.6108
10852WAT      O44127   6.459   6.230   0.358 -0.3292 -0.0097 -0.1379
10852WAT     H144128   6.518   6.204   0.417 -2.1271 -0.3908  1.5892
10852WAT     H244129   6.432   6.307   0.390  0.6840  1.2451 -2.0622
10852WAT    EPW44130   6.464   6.238   0.371 -0.4451  0.1194 -0.1670
10853WAT      O44131   5.973   1.196   4.773  0.1358 -0.0477  0.4825
10853WAT     H144132   5.886   1.196   4.777  0.1566 -1.0670  2.1106
10853WAT     H244133   5.993   1.281   4.765 -1.0005  0.1093 -1.2467
10853WAT    EPW44134   5.963   1.209   4.773 -0.0290 -0.1751  0.4676
10854WAT      O44135   0.505   4.322   6.613 -0.4650  0.1634  0.1266
10854WAT     H144136   0.442   4.367   6.655  0.1760  1.8666 -0.6337
10854WAT     H244137   0.578   4.361   6.640  0.2047 -1.0057  0.0624
10854WAT    EPW44138   0.507   4.335   6.623 -0.2714  0.2423  0.0048
10855WAT      O44139   5.715   1.090   1.752 -0.5396 -0.3517  0.5508
10855WAT     H144140   5.708   1.174   1.773 -1.8816 -0.0829 -0.8852
10855WAT     H244141   5.796   1.083   1.721  0.3387 -0.0879  2.5722
10855WAT    EPW44142   5.726   1.101   1.751 -0.6081 -0.2730  0.6373
10856WAT      O44143   6.848   1.609   5.679 -0.4267  0.3284 -0.1348
10856WAT     H144144   6.777   1.650   5.649  0.3698  0.9166 -1.2349
10856WAT     H244145   6.879   1.664   5.739 -0.6325  0.2752  0.0246
10856WAT    EPW44146   6.842   1.623   5.684 -0.3394  0.4075 -0.2738
10857WAT      O44147   2.655   5.026   6.358 -0.4244  0.2519 -0.3084
10857WAT     H144148   2.730   5.065   6.379 -1.1943  2.2386 -1.0264
10857WAT     H244149   2.636   4.978   6.429  2.3082 -1.7038 -0.7510
10857WAT    EPW44150   2.663   5.024   6.372 -0.1344  0.2565 -0.4798
10858WAT      O44151   6.598   4.064   5.564 -0.1158  0.3835  0.4033
10858WAT     H144152   6.539   4.074   5.627  0.9979  0.8195  1.4138
10858WAT     H244153   6.602   3.978   5.553 -1.2868  0.3681 -0.0471
10858WAT    EPW44154   6.590   4.053   5.572 -0.1243  0.4456  0.4861
10859WAT      O44155   1.878   2.237   5.783 -0.1618 -0.2018 -0.0053
10859WAT     H144156   1.795   2.211   5.775 -0.3429  0.4863 -0.4576
10859WAT     H244157   1.920   2.185   5.727 -0.2568 -0.7060  0.3930
10859WAT    EPW44158   1.872   2.225   5.773 -0.2026 -0.1746 -0.0133
10860WAT      O44159   6.707   6.077   5.210 -0.4585 -0.5107  0.4735
10860WAT     H144160   6.751   6.007   5.238  0.9872  0.1501 -0.0475
10860WAT     H244161   6.757   6.109   5.147 -2.5167 -0.6718 -1.3971
10860WAT    EPW44162   6.721   6.071   5.205 -0.5490 -0.4369  0.1202
10861WAT      O44163   5.472   1.544   0.669 -0.1464  0.1031 -0.0795
10861WAT     H144164   5.422   1.610   0.642  0.1362  0.9070  1.2637
10861WAT     H244165   5.416   1.490   0.707 -0.1753  0.3317  0.2046
10861WAT    EPW44166   5.456   1.546   0.670 -0.1089  0.2556  0.1609
10862WAT      O44167   4.497   5.884   4.510  0.3462 -0.2856  0.1938
10862WAT     H144168   4.450   5.862   4.439  0.4666  0.3607 -0.0885
10862WAT     H244169   4.507   5.808   4.551 -1.8004 -0.3160  0.7807
10862WAT    EPW44170   4.491   5.869   4.505  0.0469 -0.1946  0.2388
10863WAT      O44171   2.539   3.548   7.261  0.3822  0.0437 -0.0868
10863WAT     H144172   2.524   3.464   7.244  1.4531 -0.1016 -0.3768
10863WAT     H244173   2.625   3.556   7.253  0.4489  0.9011  1.2106
10863WAT    EPW44174   2.549   3.537   7.257  0.5503  0.1489  0.0620
10864WAT      O44175   1.481   6.810   7.295 -0.7047 -0.5482 -0.0779
10864WAT     H144176   1.450   6.732   7.274  0.6478 -1.0236 -0.4567
10864WAT     H244177   1.541   6.825   7.233  0.0837  0.1198  0.8179
10864WAT    EPW44178   1.486   6.801   7.283 -0.3884 -0.5198 -0.0016
10865WAT      O44179   6.671   3.257   0.169 -0.0140  0.6649  0.1675
10865WAT     H144180   6.670   3.335   0.208 -0.7756  0.4426  0.6046
10865WAT     H244181   6.741   3.217   0.204  0.1696  1.0130  0.2017
10865WAT    EPW44182   6.682   3.263   0.180 -0.0994  0.6835  0.2371
10866WAT      O44183   4.409   5.357   5.441 -0.1250 -0.0117 -0.0872
10866WAT     H144184   4.343   5.319   5.485  0.5813  0.7346  1.7294
10866WAT     H244185   4.379   5.436   5.422 -0.1545 -0.0681 -0.2777
10866WAT    EPW44186   4.395   5.363   5.445 -0.0251  0.0902  0.1530
10867WAT      O44187   5.836   1.729   5.239 -0.1080  0.1277 -0.1832
10867WAT     H144188   5.881   1.702   5.308 -0.8063 -1.9970 -0.5075
10867WAT     H244189   5.883   1.701   5.171 -1.2987 -1.0989 -0.5274
10867WAT    EPW44190   5.850   1.721   5.239 -0.3870 -0.3674 -0.2820
10868WAT      O44191   3.467   2.754   5.574  0.3147 -0.0181 -0.0402
10868WAT     H144192   3.496   2.765   5.655  1.8569 -1.0061 -0.4188
10868WAT     H244193   3.485   2.670   5.557  0.6219  0.3401 -1.6363
10868WAT    EPW44194   3.474   2.743   5.584  0.5879 -0.1112 -0.3319
10869WAT      O44195   4.544   0.356   0.151  0.4365  0.2415 -0.3808
10869WAT     H144196   4.614   0.319   0.189  0.2600 -0.8709 -1.1010
10869WAT     H244197   4.478   0.334   0.205  0.0898 -1.8437 -1.5456
10869WAT    EPW44198   4.545   0.347   0.165  0.3592 -0.2309 -0.6592
10870WAT      O44199   1.119   5.103   2.196 -0.1442  0.3635 -0.6129
10870WAT     H144200   1.119   5.041   2.257  1.1582 -0.0608 -1.0267
10870WAT     H244201   1.034   5.120   2.185 -0.5197 -1.1905 -0.3453
10870WAT    EPW44202   1.106   5.097   2.203 -0.0073  0.0713 -0.6345
10871WAT      O44203   6.306   0.447   1.613  0.4630 -0.2806  0.4452
10871WAT     H144204   6.249   0.471   1.675  1.2406  0.1004  1.0243
10871WAT     H244205   6.257   0.444   1.541 -0.3650 -0.3000  0.9891
10871WAT    EPW44206   6.290   0.450   1.612  0.4556 -0.2272  0.6111
10872WAT      O44207   3.626   2.668   2.115  0.4045  0.7225  0.5816
10872WAT     H144208   3.553   2.621   2.106  0.4995  1.0526 -3.5139
10872WAT     H244209   3.680   2.613   2.156 -1.1882 -0.6751  0.9033
10872WAT    EPW44210   3.623   2.653   2.120  0.1833  0.5648  0.0241
10873WAT      O44211   5.181   4.922   0.610  0.8371  0.1064 -0.7566
10873WAT     H144212   5.171   4.840   0.638 -0.4787  0.6542  0.5471
10873WAT     H244213   5.099   4.951   0.603  1.2765  1.8937  0.6864
10873WAT    EPW44214   5.167   4.915   0.613  0.7077  0.4514 -0.3509
10874WAT      O44215   0.237   1.951   0.043  0.3626 -0.3933  0.2808
10874WAT     H144216   0.230   1.951  -0.044  1.0390 -0.0609  0.2214
10874WAT     H244217   0.204   2.028   0.067  0.2041 -0.4721  0.3154
10874WAT    EPW44218   0.231   1.962   0.034  0.4391 -0.3558  0.2771
10875WAT      O44219   5.210   3.065   7.157 -0.6368 -0.4190  0.1052
10875WAT     H144220   5.128   3.091   7.171 -0.2874 -0.2115  1.9427
10875WAT     H244221   5.258   3.134   7.181  0.0930  0.1241 -2.5556
10875WAT    EPW44222   5.205   3.079   7.163 -0.4774 -0.3081 -0.0165
10876WAT      O44223   0.903   1.265   7.165  0.0434 -0.0100 -0.3065
10876WAT     H144224   0.969   1.215   7.192  1.2366  0.7162 -1.7034
10876WAT     H244225   0.914   1.268   7.078 -1.2741  0.9021 -0.4713
10876WAT    EPW44226   0.915   1.258   7.156  0.0250  0.2320 -0.5372
10877WAT      O44227   3.260   4.934   3.258  0.4511  0.2189 -0.7438
10877WAT     H144228   3.320   4.972   3.309  0.0666  0.3154 -0.3541
10877WAT     H244229   3.296   4.858   3.238  0.1961 -0.2738  0.5338
10877WAT    EPW44230   3.274   4.929   3.263  0.3567  0.1603 -0.4975
10878WAT      O44231   7.276   1.890   4.125  0.2038  0.7249 -0.0821
10878WAT     H144232   7.331   1.863   4.188 -0.7484 -1.7481 -0.1788
10878WAT     H244233   7.265   1.819   4.076 -0.3292  2.1553 -2.1503
10878WAT    EPW44234   7.282   1.875   4.127 -0.0156  0.5708 -0.4019
10879WAT      O44235   0.724   4.645   1.940 -0.2463 -0.0293 -0.7720
10879WAT     H144236   0.805   4.619   1.961 -0.7793 -1.0606  0.0430
10879WAT     H244237   0.725   4.730   1.960 -0.1084 -0.5393  1.7021
10879WAT    EPW44238   0.736   4.654   1.946 -0.3047 -0.2570 -0.2861
10880WAT      O44239   6.193   4.253   6.741 -0.4197  0.1024  0.0769
10880WAT     H144240   6.160   4.266   6.821 -1.3530  0.6536 -0.3986
10880WAT     H244241   6.123   4.252   6.689 -0.0312 -2.2325 -0.5156
10880WAT    EPW44242   6.178   4.254   6.745 -0.5002 -0.1611 -0.0809
10881WAT      O44243   6.152   5.831   6.517 -0.3162  0.3133  0.3949
10881WAT     H144244   6.139   5.790   6.441 -0.4294 -1.4230  1.3161
10881WAT     H244245   6.175   5.912   6.493 -0.8391 -0.0563 -1.4670
10881WAT    EPW44246   6.154   5.837   6.502 -0.4102  0.0023  0.2560
10882WAT      O44247   4.773   1.730   0.874 -0.2307 -0.2250 -0.3209
10882WAT     H144248   4.732   1.807   0.875 -1.5263 -0.8863  0.9692
10882WAT     H244249   4.842   1.743   0.927  0.3262  0.3993 -1.1662
10882WAT    EPW44250   4.777   1.743   0.882 -0.3398 -0.2305 -0.2552
10883WAT      O44251   3.355   4.340   3.445  0.1851  0.3808 -0.3901
10883WAT     H144252   3.296   4.335   3.509  1.1977 -0.7009  0.5224
10883WAT     H244253   3.426   4.302   3.480  2.3007  3.8018 -0.4770
10883WAT    EPW44254   3.357   4.333   3.459  0.6472  0.7263 -0.2682
10884WAT      O44255   6.342   3.642   2.922 -0.4279 -0.0398  0.4181
10884WAT     H144256   6.403   3.635   2.860 -0.1006 -1.9973  0.8972
10884WAT     H244257   6.301   3.717   2.902  0.3222 -0.0996 -1.5468
10884WAT    EPW44258   6.345   3.652   2.910 -0.2688 -0.3378  0.1986
10885WAT      O44259   6.783   7.150   7.384  0.2813 -0.3018 -0.3728
10885WAT     H144260   6.750   7.228   7.406  2.9557  0.8987 -0.3080
10885WAT     H244261   6.713   7.107   7.353 -1.7889  1.2067  1.8041
10885WAT    EPW44262   6.768   7.155   7.383  0.3706  0.0984 -0.0416
10886WAT      O44263   5.968   0.820   4.294 -0.1855 -0.4418  0.4792
10886WAT     H144264   5.885   0.833   4.320 -0.5915  1.1751 -1.3627
10886WAT     H244265   6.013   0.880   4.338 -0.1644 -0.5933  0.6653
10886WAT    EPW44266   5.962   0.831   4.305 -0.2423 -0.2253  0.2346
10887WAT      O44267   6.642   5.331   4.201 -0.0160  0.1324  0.3933
10887WAT     H144268   6.560   5.359   4.198  0.4464  1.5103 -0.8248
10887WAT     H244269   6.635   5.246   4.219 -1.7223  0.1319 -0.1359
10887WAT    EPW44270   6.629   5.322   4.203 -0.1997  0.3359  0.1352
10888WAT      O44271   6.281   4.738   0.806 -0.1869  0.2168 -0.5297
10888WAT     H144272   6.347   4.775   0.851  0.0463  1.3420 -1.7626
10888WAT     H244273   6.245   4.684   0.865  0.4544  1.2219  0.8428
10888WAT    EPW44274   6.286   4.735   0.822 -0.0577  0.5315 -0.5090
10889WAT      O44275   5.901   1.759   3.606  0.3485  0.0001 -0.7949
10889WAT     H144276   5.893   1.683   3.647  0.5125  0.2136 -0.3617
10889WAT     H244277   5.941   1.738   3.531  0.8230 -0.2761 -0.4709
10889WAT    EPW44278   5.906   1.745   3.601  0.4428 -0.0092 -0.6831
10890WAT      O44279   5.782   3.076   4.737 -0.4519  0.1743 -0.0233
10890WAT     H144280   5.702   3.097   4.764 -2.1810 -1.6810 -3.1975
10890WAT     H244281   5.802   3.138   4.679 -0.5433 -0.5289 -0.8208
10890WAT    EPW44282   5.773   3.088   4.733 -0.7208 -0.2036 -0.6100
10891WAT      O44283   2.818   5.571   3.243 -0.1362  0.5965  0.0579
10891WAT     H144284   2.821   5.484   3.248  0.9896  0.6100 -0.0118
10891WAT     H244285   2.872   5.589   3.177  1.5902  1.4393  1.5980
10891WAT    EPW44286   2.826   5.561   3.234  0.2851  0.7230  0.2751
10892WAT      O44287   5.895   0.564   4.323  0.2096  0.4718  0.3073
10892WAT     H144288   5.935   0.641   4.313  0.2660  0.4400  0.2851
10892WAT     H244289   5.855   0.571   4.400  1.3735  0.0093  0.9719
10892WAT    EPW44290   5.895   0.576   4.333  0.3899  0.3988  0.4022
10893WAT      O44291   7.092   4.263   0.046 -0.2016  0.1519 -0.3024
10893WAT     H144292   7.042   4.322   0.088 -0.8659  0.5449 -1.5871
10893WAT     H244293   7.173   4.294   0.055 -0.2100 -0.2606  1.4492
10893WAT    EPW44294   7.096   4.277   0.054 -0.3010  0.1490 -0.2334
10894WAT      O44295   3.171   0.348   1.069 -0.0453  0.3051 -0.0973
10894WAT     H144296   3.177   0.369   1.153  0.1766  2.1295 -0.5243
10894WAT     H244297   3.254   0.342   1.043 -0.0774 -1.8996  0.1412
10894WAT    EPW44298   3.184   0.351   1.078 -0.0173  0.2489 -0.1251
10895WAT      O44299   2.145   6.377   6.806 -0.5677  0.5031 -0.3570
10895WAT     H144300   2.131   6.460   6.829  0.1790  0.7663 -0.8078
10895WAT     H244301   2.132   6.333   6.880  0.4291  1.1848  0.2577
10895WAT    EPW44302   2.141   6.383   6.820 -0.3101  0.6427 -0.3328
10896WAT      O44303   1.747   3.190   5.852  0.0484  0.1213 -0.0007
10896WAT     H144304   1.728   3.275   5.851 -0.9217 -0.0773  0.0174
10896WAT     H244305   1.754   3.170   5.768 -0.3760  0.0936 -0.0333
10896WAT    EPW44306   1.745   3.200   5.839 -0.1576  0.0879 -0.0028
10897WAT      O44307   4.168   3.928   3.233  0.1906  0.2153  0.4043
10897WAT     H144308   4.169   3.876   3.304 -1.5534  0.1118  0.3802
10897WAT     H244309   4.223   3.992   3.255  1.6614 -1.1154  0.8173
10897WAT    EPW44310   4.176   3.930   3.247  0.1502  0.0035  0.4617
10898WAT      O44311   5.464   2.647   5.963 -0.4334 -0.8146  0.2472
10898WAT     H144312   5.445   2.612   6.041  0.2190 -0.0851  0.7446
10898WAT     H244313   5.398   2.702   5.949 -0.8510 -1.3709  0.0115
10898WAT    EPW44314   5.451   2.650   5.973 -0.3987 -0.7890  0.2859
10899WAT      O44315   0.067   2.428   3.354 -0.4271 -0.3970 -0.5712
10899WAT     H144316  -0.001   2.403   3.306 -0.4493 -0.6302 -0.4236
10899WAT     H244317   0.072   2.366   3.416 -2.5199  1.6724  1.8527
10899WAT    EPW44318   0.058   2.415   3.356 -0.7395 -0.1257 -0.1913
10900WAT      O44319   5.943   2.446   5.053  0.0628  0.2503 -0.0095
10900WAT     H144320   5.861   2.419   5.067  0.1847  0.7694  2.0214
10900WAT     H244321   5.932   2.516   5.002 -0.7981  0.4997  0.4881
10900WAT    EPW44322   5.929   2.453   5.048 -0.0464  0.3638  0.3640
10901WAT      O44323   2.686   4.630   3.947  0.3339  1.0349  0.4031
10901WAT     H144324   2.669   4.686   3.883 -2.9015  0.2022  0.3752
10901WAT     H244325   2.758   4.589   3.920  0.9956  3.0003 -1.0107
10901WAT    EPW44326   2.694   4.632   3.934 -0.0463  1.2022  0.1901
10902WAT      O44327   1.363   1.618   3.174  0.0273  0.3811 -0.3443
10902WAT     H144328   1.373   1.593   3.091 -0.8078 -0.6478 -0.1582
10902WAT     H244329   1.423   1.572   3.217  0.5816  1.0492 -0.3901
10902WAT    EPW44330   1.373   1.607   3.168 -0.0142  0.3278 -0.3236
10903WAT      O44331   0.195   3.946   1.439  0.5225 -0.5026  0.0870
10903WAT     H144332   0.127   3.919   1.391 -1.2237  1.3975  1.3056
10903WAT     H244333   0.251   3.976   1.379 -1.2518  1.0771 -0.8951
10903WAT    EPW44334   0.193   3.947   1.423  0.0025  0.0114  0.1219
10904WAT      O44335   6.101   4.024   5.392 -0.1923 -0.0879 -0.4188
10904WAT     H144336   6.186   4.012   5.376  0.1567  1.6401 -0.0913
10904WAT     H244337   6.062   3.964   5.344  1.1793 -0.1334 -1.5283
10904WAT    EPW44338   6.108   4.014   5.383  0.0619  0.1607 -0.5343
10905WAT      O44339   1.203   6.242   2.079 -0.2656 -0.5442  0.2285
10905WAT     H144340   1.165   6.255   2.156 -1.5716  0.5672 -0.5632
10905WAT     H244341   1.183   6.314   2.033  2.6755  0.0609 -0.3140
10905WAT    EPW44342   1.195   6.254   2.083 -0.0241 -0.2906  0.0314
10906WAT      O44343   3.611   3.289   5.674 -0.1235  0.0135 -0.4338
10906WAT     H144344   3.608   3.252   5.595 -1.0942  0.9409 -0.8589
10906WAT     H244345   3.571   3.366   5.662 -0.9880 -0.1446  1.1350
10906WAT    EPW44346   3.605   3.295   5.661 -0.3946  0.1271 -0.2648
10907WAT      O44347   3.974   0.853   4.739 -0.2127 -0.4266  0.5490
10907WAT     H144348   4.038   0.860   4.799  0.2048  2.5930 -0.0991
10907WAT     H244349   3.906   0.824   4.785  0.2971  1.0982  2.3810
10907WAT    EPW44350   3.974   0.850   4.755 -0.0757  0.2447  0.7239
10908WAT      O44351   4.807   1.371   6.112  0.2736 -0.3777 -0.5652
10908WAT     H144352   4.729   1.361   6.075  0.3197  0.0113 -0.7739
10908WAT     H244353   4.847   1.429   6.061  1.0279 -1.2289 -0.9592
10908WAT    EPW44354   4.802   1.378   6.099  0.3919 -0.4460 -0.6542
10909WAT      O44355   2.781   4.921   0.414 -0.3782  0.3661 -0.6282
10909WAT     H144356   2.738   4.882   0.348 -2.2083 -0.5334  0.9862
10909WAT     H244357   2.717   4.952   0.464  0.9349  0.6586  0.9352
10909WAT    EPW44358   2.765   4.920   0.412 -0.4546  0.2765 -0.1587
10910WAT      O44359   3.598   4.733   0.370  0.2433 -0.1075  0.8843
10910WAT     H144360   3.679   4.752   0.346 -0.0627 -1.1481 -1.1815
10910WAT     H244361   3.550   4.795   0.333 -0.1272 -1.0180 -0.2120
10910WAT    EPW44362   3.603   4.745   0.361  0.1434 -0.3957  0.4172
10911WAT      O44363   6.890   0.274   0.614  0.0392  0.2104  0.4446
10911WAT     H144364   6.916   0.274   0.697  0.9764 -0.8634  0.1740
10911WAT     H244365   6.803   0.265   0.620  0.2847 -2.2667  1.3061
10911WAT    EPW44366   6.881   0.273   0.627  0.2139 -0.3141  0.5319
10912WAT      O44367   5.823   5.953   5.308 -0.4954 -0.0666 -0.3338
10912WAT     H144368   5.737   5.967   5.315 -0.6882 -0.5134 -1.5669
10912WAT     H244369   5.829   5.886   5.253  0.6443 -0.2460 -0.0185
10912WAT    EPW44370   5.812   5.945   5.301 -0.3555 -0.1591 -0.4694
10913WAT      O44371   6.038   7.094   1.751  0.2491  0.0760  0.1685
10913WAT     H144372   6.052   7.070   1.669 -0.9424 -2.5515  0.6314
10913WAT     H244373   5.966   7.144   1.746 -1.0989 -1.8195 -0.2280
10913WAT    EPW44374   6.029   7.098   1.738 -0.1260 -0.5921  0.1783
10914WAT      O44375   2.911   6.079   5.829 -0.4908  0.1696  0.0070
10914WAT     H144376   2.930   6.161   5.807 -0.0516 -0.1255 -0.7209
10914WAT     H244377   2.974   6.058   5.886  0.8249 -0.4652 -1.6302
10914WAT    EPW44378   2.923   6.088   5.834 -0.2316  0.0322 -0.3424
10915WAT      O44379   5.853   3.654   4.887 -0.1689 -0.4917  0.1831
10915WAT     H144380   5.861   3.740   4.873 -2.8451 -0.2626 -0.3897
10915WAT     H244381   5.856   3.647   4.974 -2.9303  0.6468  0.4585
10915WAT    EPW44382   5.855   3.665   4.898 -0.9721 -0.2897  0.1392
10916WAT      O44383   6.394   5.303   5.629  0.2996  0.0993  0.1842
10916WAT     H144384   6.476   5.275   5.616  1.0508  1.3206  1.9054
10916WAT     H244385   6.366   5.254   5.696  0.8883  1.9165  1.8426
10916WAT    EPW44386   6.402   5.292   5.637  0.4975  0.5481  0.6835
10917WAT      O44387   0.574   2.173   1.066 -0.1767 -0.4990  0.4242
10917WAT     H144388   0.559   2.259   1.068  0.6951 -0.3437  1.0847
10917WAT     H244389   0.595   2.154   1.149 -1.1409 -1.5059  0.4602
10917WAT    EPW44390   0.575   2.183   1.078 -0.1903 -0.6248  0.5271
10918WAT      O44391   5.644   3.426   4.923  0.2947 -0.7477 -0.1267
10918WAT     H144392   5.711   3.378   4.950  0.0620 -1.3638 -0.6320
10918WAT     H244393   5.665   3.507   4.950  1.1190 -0.9717 -0.0720
10918WAT    EPW44394   5.657   3.431   4.931  0.3821 -0.8718 -0.1933
10919WAT      O44395   1.875   3.119   2.283  0.4513 -0.5790 -0.3393
10919WAT     H144396   1.854   3.194   2.244  0.3416 -0.5573 -0.2370
10919WAT     H244397   1.962   3.124   2.291  0.6139 -1.0930 -1.6346
10919WAT    EPW44398   1.885   3.131   2.279  0.4591 -0.6517 -0.5155
10920WAT      O44399   0.698   1.198   3.974 -1.2107  0.1277 -0.3724
10920WAT     H144400   0.717   1.281   3.955 -0.4026 -0.2094 -1.1295
10920WAT     H244401   0.611   1.198   3.982 -1.4546  0.6638 -2.4456
10920WAT    EPW44402   0.688   1.210   3.972 -1.1273  0.1571 -0.7905
10921WAT      O44403   2.192   2.864   6.664 -0.1014 -0.8102  0.4158
10921WAT     H144404   2.147   2.848   6.591 -0.2964 -1.1231  0.6035
10921WAT     H244405   2.268   2.823   6.650  0.3462  0.1418 -0.1158
10921WAT    EPW44406   2.197   2.856   6.651 -0.0640 -0.7158  0.3650
10922WAT      O44407   5.906   4.005   1.807  0.4137  0.2415  0.2009
10922WAT     H144408   5.871   3.935   1.768  0.6945  0.1453  0.1236
10922WAT     H244409   5.855   4.016   1.878  1.8634 -1.5940  1.6377
10922WAT    EPW44410   5.893   3.996   1.812  0.6693 -0.0439  0.4017
10923WAT      O44411   0.807   3.317   6.092 -0.0478  0.0276 -0.9195
10923WAT     H144412   0.810   3.238   6.129  0.7427  0.4494 -0.0159
10923WAT     H244413   0.891   3.341   6.090 -0.3612  1.2708 -0.1990
10923WAT    EPW44414   0.820   3.309   6.097  0.0226  0.2736 -0.6796
10924WAT      O44415   2.729   2.936   4.516  0.1304  0.2480 -0.2150
10924WAT     H144416   2.649   2.941   4.551 -0.8141  1.4109 -2.3862
10924WAT     H244417   2.780   2.969   4.578 -0.9083 -1.1902  1.5188
10924WAT    EPW44418   2.724   2.942   4.531 -0.1626  0.2074 -0.2796
10925WAT      O44419   3.175   3.674   6.114  0.2776  0.2856  0.1373
10925WAT     H144420   3.226   3.724   6.164  1.7784 -1.1306  0.0909
10925WAT     H244421   3.145   3.613   6.169 -1.2353  0.9398  0.1066
10925WAT    EPW44422   3.178   3.672   6.130  0.2758  0.1730  0.1259
10926WAT      O44423   1.396   0.554   3.845 -0.1400 -0.1369  0.0344
10926WAT     H144424   1.450   0.525   3.906 -1.3672 -1.6892  0.4670
10926WAT     H244425   1.400   0.492   3.783 -0.3039  0.4821 -0.6141
10926WAT    EPW44426   1.404   0.540   3.845 -0.3455 -0.2747  0.0025
10927WAT      O44427   2.448   2.567   5.977 -0.3233 -0.1386 -0.0679
10927WAT     H144428   2.421   2.640   5.937 -1.5508 -1.1442 -1.1266
10927WAT     H244429   2.516   2.595   6.024 -1.0642  1.8014 -0.0286
10927WAT    EPW44430   2.454   2.582   5.978 -0.6141 -0.0006 -0.2185
10928WAT      O44431   3.787   3.829   2.405 -0.0325 -0.3720  0.0993
10928WAT     H144432   3.873   3.820   2.415  0.3966  2.5078 -0.2558
10928WAT     H244433   3.779   3.895   2.349 -2.4861 -0.3470  0.3478
10928WAT    EPW44434   3.798   3.837   2.398 -0.3316  0.0571  0.0836
10929WAT      O44435   1.121   7.222   4.581  0.2285 -0.3175 -0.4644
10929WAT     H144436   1.088   7.303   4.583 -0.3145 -0.5483 -0.0413
10929WAT     H244437   1.112   7.194   4.662  2.6931  0.0740  0.0442
10929WAT    EPW44438   1.115   7.230   4.593  0.5123 -0.2937 -0.3268
10930WAT      O44439   6.724   5.596   1.423 -0.0197 -0.1815  0.1518
10930WAT     H144440   6.713   5.604   1.336  1.5497 -1.3941 -0.2150
10930WAT     H244441   6.644   5.582   1.452 -0.5117 -0.3650 -1.2015
10930WAT    EPW44442   6.711   5.595   1.414  0.1394 -0.3877 -0.1023
10931WAT      O44443   7.058   1.550   6.701  0.0811 -0.2698  0.1798
10931WAT     H144444   7.088   1.626   6.670 -1.1354 -0.0255 -0.4457
10931WAT     H244445   7.131   1.504   6.714  0.9068  1.2501  1.2808
10931WAT    EPW44446   7.073   1.554   6.698  0.0234 -0.0092  0.2500
10932WAT      O44447   4.043   2.605   6.181  0.3429  0.2476 -0.3384
10932WAT     H144448   4.065   2.689   6.191 -2.3294  0.8017  2.0849
10932WAT     H244449   3.990   2.606   6.111  0.6625  0.4852 -0.5816
10932WAT    EPW44450   4.039   2.618   6.172 -0.0046  0.3646 -0.0163
10933WAT      O44451   4.752   4.326   6.114  0.0040 -0.4876 -0.6240
10933WAT     H144452   4.803   4.370   6.058 -2.7162  1.3203 -1.9037
10933WAT     H244453   4.742   4.381   6.181 -0.4248 -0.7034 -0.5044
10933WAT    EPW44454   4.758   4.340   6.115 -0.4612 -0.2524 -0.7954
10934WAT      O44455   5.485   6.169   3.015 -0.3548 -1.1336 -0.6053
10934WAT     H144456   5.562   6.128   3.022 -0.5129 -1.3317  0.0151
10934WAT     H244457   5.427   6.109   3.039 -0.9384 -1.6992 -3.1183
10934WAT    EPW44458   5.488   6.154   3.019 -0.4643 -1.2464 -0.8849
10935WAT      O44459   6.328   5.158   5.863 -0.2622  0.1994  0.1690
10935WAT     H144460   6.249   5.127   5.882  0.6274 -1.0043  2.1923
10935WAT     H244461   6.341   5.220   5.923 -0.1415  1.3126 -0.9571
10935WAT    EPW44462   6.319   5.163   5.875 -0.1130  0.1861  0.3016
10936WAT      O44463   0.014   4.509   4.979  0.1260 -0.1705  0.0681
10936WAT     H144464   0.055   4.555   4.917  0.1685 -0.3353 -0.0270
10936WAT     H244465   0.041   4.427   4.965 -2.5328 -0.8532 -1.9251
10936WAT    EPW44466   0.024   4.503   4.968 -0.2605 -0.2957 -0.2404
10937WAT      O44467   6.468   0.424   3.940 -0.0824  0.4906 -0.5361
10937WAT     H144468   6.546   0.458   3.960 -0.2179  2.1628 -2.4647
10937WAT     H244469   6.450   0.458   3.862 -1.4923 -2.0949 -1.4689
10937WAT    EPW44470   6.477   0.434   3.931 -0.3107  0.3557 -0.9588
10938WAT      O44471   5.931   3.875   2.623  0.5606  0.0278  0.3039
10938WAT     H144472   5.939   3.823   2.692  0.5279 -0.4387 -0.0418
10938WAT     H244473   5.894   3.947   2.656  1.0996  0.0477  0.8799
10938WAT    EPW44474   5.927   3.878   2.638  0.6354 -0.0382  0.3379
10939WAT      O44475   0.949   2.153   1.435 -0.0457 -0.7146 -0.8455
10939WAT     H144476   0.991   2.077   1.437  0.8551 -0.2261  0.1989
10939WAT     H244477   1.007   2.209   1.469 -1.6258 -0.0421  0.9268
10939WAT    EPW44478   0.964   2.150   1.440 -0.1461 -0.5431 -0.4294
10940WAT      O44479   5.960   1.789   6.669  0.2566  0.4781  0.0791
10940WAT     H144480   6.026   1.752   6.625 -0.9086  1.2139 -2.4551
10940WAT     H244481   5.928   1.723   6.715  1.9160 -0.1961  0.3667
10940WAT    EPW44482   5.965   1.774   6.669  0.3296  0.4872 -0.2528
10941WAT      O44483   6.306   6.245   1.273  0.2910  0.1547 -0.9271
10941WAT     H144484   6.268   6.280   1.343 -0.6483 -0.7367 -0.9720
10941WAT     H244485   6.376   6.296   1.260  0.3460  0.4787  0.4914
10941WAT    EPW44486   6.311   6.258   1.281  0.1604  0.0709 -0.7242
10942WAT      O44487   1.557   0.698   5.041 -0.4905 -0.1168  0.2162
10942WAT     H144488   1.577   0.647   4.973 -0.5766 -0.8123  0.6997
10942WAT     H244489   1.571   0.778   5.011  2.3304 -0.4962  0.2384
10942WAT    EPW44490   1.562   0.702   5.027 -0.0865 -0.2756  0.2909
10943WAT      O44491   1.315   2.416   5.642  0.2107 -0.3732 -0.7985
10943WAT     H144492   1.277   2.339   5.627  0.0779 -0.5377  0.2768
10943WAT     H244493   1.306   2.427   5.728  1.8773 -0.0367 -0.6204
10943WAT    EPW44494   1.308   2.406   5.652  0.4373 -0.3478 -0.6134
10944WAT      O44495   3.654   2.951   4.070  0.0544  0.3396 -0.1553
10944WAT     H144496   3.635   3.034   4.051  0.7283  0.6355  0.4372
10944WAT     H244497   3.739   2.953   4.090 -0.1091 -0.3500  0.6576
10944WAT    EPW44498   3.664   2.964   4.070  0.1298  0.2815  0.0523
10945WAT      O44499   0.335   5.597   1.165 -0.8398 -0.2815  0.5567
10945WAT     H144500   0.352   5.516   1.137 -0.0142  0.0434  0.0755
10945WAT     H244501   0.250   5.594   1.185 -1.0140 -1.0433 -0.2149
10945WAT    EPW44502   0.325   5.584   1.164 -0.7436 -0.3460  0.3716
10946WAT      O44503   7.065   0.639   4.953 -0.0460 -0.3628 -0.0910
10946WAT     H144504   6.995   0.590   4.972  1.1801 -1.5874  1.7083
10946WAT     H244505   7.087   0.614   4.873  0.6524 -3.0956  0.8303
10946WAT    EPW44506   7.058   0.628   4.944  0.2383 -0.9474  0.3109
10947WAT      O44507   1.386   2.375   1.588 -0.0469 -0.6948  0.0911
10947WAT     H144508   1.452   2.342   1.542  1.1821  0.1771  1.1472
10947WAT     H244509   1.387   2.460   1.566 -1.4901 -0.8379 -0.6408
10947WAT    EPW44510   1.396   2.383   1.578 -0.0785 -0.5871  0.1390
10948WAT      O44511   5.172   5.863   4.279 -0.8251 -0.2569  0.2427
10948WAT     H144512   5.199   5.858   4.361 -1.3868 -0.3490  0.4230
10948WAT     H244513   5.119   5.931   4.278  0.6116  0.9159 -0.4649
10948WAT    EPW44514   5.168   5.872   4.291 -0.6958 -0.0972  0.1648
10949WAT      O44515   2.514   0.831   4.098  0.0284 -0.3376 -0.7823
10949WAT     H144516   2.532   0.762   4.147 -0.2023  1.0652  1.4201
10949WAT     H244517   2.426   0.833   4.096 -0.0180  0.6949  0.5148
10949WAT    EPW44518   2.503   0.821   4.105 -0.0125  0.0221 -0.2654
10950WAT      O44519   4.874   4.211   3.332  0.3616 -0.0597  0.1867
10950WAT     H144520   4.934   4.157   3.300  0.3179 -0.2181  0.3714
10950WAT     H244521   4.820   4.223   3.264 -1.5194 -2.8852  1.0115
10950WAT    EPW44522   4.875   4.205   3.317  0.0773 -0.5005  0.3358
10951WAT      O44523   2.856   1.915   2.837 -0.2910 -0.5915  0.1796
10951WAT     H144524   2.938   1.903   2.810 -0.5407 -0.6187 -0.5688
10951WAT     H244525   2.814   1.940   2.766 -1.1022 -1.3366  0.3853
10951WAT    EPW44526   2.862   1.917   2.823 -0.4477 -0.7056  0.0995
10952WAT      O44527   1.912   2.655   3.643 -0.3790 -0.1319 -0.0555
10952WAT     H144528   1.996   2.672   3.626  0.3749 -2.6984  0.6310
10952WAT     H244529   1.903   2.680   3.726 -0.0782 -0.4878  0.0883
10952WAT    EPW44530   1.923   2.661   3.653 -0.2232 -0.5636  0.0671
10953WAT      O44531   0.927   1.771   2.008 -0.3033 -0.3041  0.3902
10953WAT     H144532   0.978   1.840   1.992 -1.2747  0.4581  0.5167
10953WAT     H244533   0.896   1.786   2.088 -0.5629 -0.8677  0.3989
10953WAT    EPW44534   0.930   1.784   2.017 -0.4851 -0.2747  0.4102
10954WAT      O44535   1.496   4.104   4.631 -0.0986  0.5243 -0.1870
10954WAT     H144536   1.423   4.151   4.631 -0.1577  0.4362 -0.8854
10954WAT     H244537   1.470   4.023   4.611  0.0532  0.2562  0.6280
10954WAT    EPW44538   1.482   4.099   4.628 -0.0849  0.4717 -0.1698
10955WAT      O44539   6.444   3.875   3.849  0.1025  0.3103 -0.3429
10955WAT     H144540   6.511   3.840   3.893 -0.8155 -0.4248  0.4992
10955WAT     H244541   6.385   3.892   3.910 -0.2943  1.4492 -1.0144
10955WAT    EPW44542   6.445   3.872   3.864 -0.0917  0.3699 -0.3177
10956WAT      O44543   0.945   2.187   3.552  0.2393  0.1965 -0.3182
10956WAT     H144544   0.931   2.103   3.571  0.4676  0.8135  3.2575
10956WAT     H244545   1.025   2.187   3.517 -0.4112 -1.1678 -1.9829
10956WAT    EPW44546   0.955   2.175   3.549  0.1769  0.0861 -0.0359
10957WAT      O44547   1.376   3.912   5.262  0.1069  0.4276  0.1492
10957WAT     H144548   1.362   3.963   5.332  0.6202  0.1019  0.4950
10957WAT     H244549   1.449   3.945   5.227  0.0723  0.3406 -0.0041
10957WAT    EPW44550   1.385   3.925   5.268  0.1776  0.3666  0.1776
10958WAT      O44551   0.306   7.116   3.689  0.1427  0.0910  0.2628
10958WAT     H144552   0.254   7.057   3.652  0.7094 -0.5374  0.4371
10958WAT     H244553   0.344   7.072   3.755  1.1170  0.4326 -0.0486
10958WAT    EPW44554   0.304   7.101   3.694  0.3703  0.0487  0.2425
10959WAT      O44555   4.922   5.195   0.171 -0.2720  0.2231 -0.1514
10959WAT     H144556   4.870   5.195   0.241 -0.4603  0.5052 -0.2877
10959WAT     H244557   4.956   5.275   0.171 -1.4575  0.7694 -1.2450
10959WAT    EPW44558   4.919   5.207   0.181 -0.4750  0.3454 -0.3331
10960WAT      O44559   1.655   3.375   6.173  0.1350 -0.2987  0.0722
10960WAT     H144560   1.740   3.386   6.158  0.2170  0.8846  1.2161
10960WAT     H244561   1.649   3.292   6.199  0.6110 -1.0163 -1.9340
10960WAT    EPW44562   1.667   3.365   6.174  0.2174 -0.2299 -0.0552
10961WAT      O44563   2.005   4.135   5.246  0.2441 -0.0391  0.1450
10961WAT     H144564   1.929   4.095   5.261  0.0669  0.1765 -0.1641
10961WAT     H244565   2.026   4.169   5.324 -0.5918  0.9521 -0.0447
10961WAT    EPW44566   1.997   4.134   5.260  0.0945  0.1392  0.0713
10962WAT      O44567   4.896   3.800   1.171 -0.5348  0.2202  0.1719
10962WAT     H144568   4.955   3.736   1.164  0.3388  1.0371 -0.1658
10962WAT     H244569   4.819   3.759   1.165  0.0140 -0.5991 -1.8128
10962WAT    EPW44570   4.893   3.785   1.169 -0.3247  0.2198 -0.1712
10963WAT      O44571   5.211   5.048   2.228 -0.2258 -0.7665  0.2047
10963WAT     H144572   5.181   5.079   2.303 -1.2408 -1.5801  0.1574
10963WAT     H244573   5.139   5.030   2.182  0.3727  0.6750 -1.3879
10963WAT    EPW44574   5.196   5.050   2.232 -0.2873 -0.6737 -0.0376
10964WAT      O44575   1.968   0.448   2.592  0.2257  0.0182 -0.0243
10964WAT     H144576   1.934   0.374   2.623  0.0820 -0.0647 -0.3719
10964WAT     H244577   1.911   0.471   2.529  2.0290 -1.4549 -2.4007
10964WAT    EPW44578   1.954   0.440   2.587  0.4709 -0.2117 -0.4267
10965WAT      O44579   0.151   5.854   3.616  0.3758  0.3168 -0.8312
10965WAT     H144580   0.157   5.940   3.625  0.3491  0.5269 -2.5049
10965WAT     H244581   0.077   5.843   3.571  1.6535 -0.3374 -2.9106
10965WAT    EPW44582   0.141   5.865   3.610  0.5606  0.2512 -1.3856
10966WAT      O44583   2.370   1.916   3.643  0.3788 -0.3452 -0.0609
10966WAT     H144584   2.403   1.843   3.676 -1.6301 -1.4656 -0.3897
10966WAT     H244585   2.412   1.925   3.567  0.0316 -1.6861 -0.4366
10966WAT    EPW44586   2.381   1.907   3.637  0.0308 -0.7088 -0.1650
10967WAT      O44587   1.350   4.868   5.557 -0.5699  0.2436 -0.3861
10967WAT     H144588   1.388   4.800   5.596 -1.1968  0.5323  0.7689
10967WAT     H244589   1.265   4.847   5.558 -0.7953  1.1499  0.2237
10967WAT    EPW44590   1.343   4.855   5.563 -0.6958  0.4202 -0.1254
10968WAT      O44591   0.255   6.415   0.948  0.2152 -0.4069  1.0330
10968WAT     H144592   0.174   6.437   0.923  0.3253  1.2794  2.0492
10968WAT     H244593   0.302   6.486   0.930  1.4392 -1.2472  0.7595
10968WAT    EPW44594   0.250   6.428   0.941  0.4122 -0.2819  1.1427
10969WAT      O44595   2.493   4.070   2.674 -0.2392 -0.6049  0.7734
10969WAT     H144596   2.454   4.000   2.708 -1.5359  0.1435  0.8885
10969WAT     H244597   2.469   4.068   2.590 -0.8019  0.0285  0.9116
10969WAT    EPW44598   2.484   4.059   2.666 -0.5139 -0.4008  0.8108
10970WAT      O44599   4.836   4.516   3.008  0.3556  0.4141 -0.0692
10970WAT     H144600   4.837   4.536   3.093  1.3604  1.2758 -0.2633
10970WAT     H244601   4.751   4.511   2.989  0.0337  2.8141  0.4187
10970WAT    EPW44602   4.823   4.518   3.018  0.4565  0.8959 -0.0258
10971WAT      O44603   1.723   2.277   6.495  0.5455  0.1007 -0.0917
10971WAT     H144604   1.683   2.225   6.552  1.0198  0.4268  0.5481
10971WAT     H244605   1.718   2.233   6.420 -1.1471  0.1937 -0.0736
10971WAT    EPW44606   1.717   2.263   6.492  0.3656  0.1626  0.0055
10972WAT      O44607   0.631   4.843   6.546 -0.3967  0.3528 -0.1658
10972WAT     H144608   0.640   4.778   6.603  0.4158 -0.0113 -0.6920
10972WAT     H244609   0.698   4.832   6.491 -1.3700  0.4395 -1.4300
10972WAT    EPW44610   0.642   4.832   6.546 -0.4205  0.3118 -0.4303
10973WAT      O44611   3.156   6.916   3.629  0.3483 -0.4493 -0.0466
10973WAT     H144612   3.069   6.910   3.622  0.2100  1.2168 -0.0245
10973WAT     H244613   3.182   6.934   3.548  0.2882  2.5669  0.4974
10973WAT    EPW44614   3.147   6.917   3.616  0.3190  0.2424  0.0370
10974WAT      O44615   2.022   4.767   6.325 -0.8985 -0.0008 -0.0646
10974WAT     H144616   1.990   4.769   6.407  1.4846  2.6493  0.9599
10974WAT     H244617   1.950   4.766   6.276 -2.4405 -0.8781  2.0156
10974WAT    EPW44618   2.007   4.767   6.330 -0.7743  0.2611  0.3940
10975WAT      O44619   4.567   0.688   5.397 -0.6350  0.4983 -0.4763
10975WAT     H144620   4.572   0.775   5.395  0.6886  0.4449 -0.4202
10975WAT     H244621   4.649   0.663   5.382 -0.4458 -0.6869  2.0651
10975WAT    EPW44622   4.580   0.697   5.394 -0.4115  0.3153 -0.0926
10976WAT      O44623   0.851   4.317   5.497 -0.2368  0.6867  0.3842
10976WAT     H144624   0.934   4.305   5.472 -0.5106 -0.2012 -0.1542
10976WAT     H244625   0.850   4.290   5.580  0.4292  2.5672  1.0538
10976WAT    EPW44626   0.864   4.311   5.505 -0.1789  0.8333  0.4036
10977WAT      O44627   1.870   3.034   0.595 -0.0887 -0.3864 -1.4259
10977WAT     H144628   1.910   2.959   0.614 -1.6596 -1.0084 -0.2946
10977WAT     H244629   1.814   3.044   0.661  0.7710  2.3403 -0.9897
10977WAT    EPW44630   1.867   3.024   0.608 -0.1937 -0.0755 -1.1944
10978WAT      O44631   4.244   0.443   5.363 -0.0187 -0.0636  0.3019
10978WAT     H144632   4.246   0.518   5.319  0.8850 -0.4124 -0.2716
10978WAT     H244633   4.315   0.448   5.415  0.5327 -0.8788 -0.3617
10978WAT    EPW44634   4.255   0.455   5.364  0.1963 -0.2355  0.1192
10979WAT      O44635   0.787   6.357   2.184 -0.0570  0.3126 -0.1057
10979WAT     H144636   0.756   6.438   2.197 -0.8261  0.0284 -0.1128
10979WAT     H244637   0.714   6.309   2.179  0.3840 -0.2888 -0.7073
10979WAT    EPW44638   0.771   6.362   2.185 -0.1055  0.1818 -0.1956
10980WAT      O44639   3.266   6.735   1.877  0.0023 -0.5520 -0.1279
10980WAT     H144640   3.256   6.664   1.827 -1.6575  0.2893 -1.0874
10980WAT     H244641   3.276   6.800   1.819  0.2545  0.1526  0.6913
10980WAT    EPW44642   3.266   6.734   1.861 -0.2056 -0.3236 -0.1486
10981WAT      O44643   2.840   5.707   4.906  0.0002 -0.2681 -0.0350
10981WAT     H144644   2.876   5.638   4.867  0.4959 -0.4312  0.7016
10981WAT     H244645   2.762   5.713   4.867  0.4236 -0.5129 -0.9395
10981WAT    EPW44646   2.834   5.698   4.895  0.1360 -0.3283 -0.0598
10982WAT      O44647   1.809   4.498   4.810 -0.2625  0.3986 -0.2485
10982WAT     H144648   1.896   4.497   4.803 -0.1922  0.4151  0.4993
10982WAT     H244649   1.787   4.414   4.808 -0.0525  0.2769  1.3273
10982WAT    EPW44650   1.818   4.486   4.809 -0.2211  0.3830  0.0947
10983WAT      O44651   1.244   4.682   3.822  0.2270 -0.0500 -0.3690
10983WAT     H144652   1.234   4.639   3.747  2.4276 -0.3271 -0.5616
10983WAT     H244653   1.328   4.672   3.841 -0.0408  0.8970  1.6221
10983WAT    EPW44654   1.255   4.674   3.814  0.5125  0.0489 -0.1033
10984WAT      O44655   6.527   1.820   0.250 -0.1480  0.4372 -0.2004
10984WAT     H144656   6.473   1.754   0.268 -0.2367  0.0179 -1.8751
10984WAT     H244657   6.585   1.785   0.195  0.2206  1.5676 -0.5662
10984WAT    EPW44658   6.528   1.805   0.244 -0.1067  0.5422 -0.5018
10985WAT      O44659   1.717   3.885   3.329 -0.2216 -0.4014 -0.0654
10985WAT     H144660   1.776   3.912   3.271  0.3223  0.3267  0.8034
10985WAT     H244661   1.644   3.880   3.283  0.1406  0.4437 -0.7632
10985WAT    EPW44662   1.715   3.888   3.314 -0.0877 -0.1690 -0.0401
10986WAT      O44663   0.516   7.132   4.610 -0.4881  0.3174 -0.0655
10986WAT     H144664   0.456   7.093   4.660 -0.8899  1.1789  0.1336
10986WAT     H244665   0.482   7.127   4.529 -0.6273  0.4375 -0.0134
10986WAT    EPW44666   0.502   7.125   4.605 -0.5680  0.4624 -0.0284
10987WAT      O44667   5.698   5.452   7.366  0.5015  0.0258  0.2529
10987WAT     H144668   5.723   5.534   7.386 -1.2936  0.7390 -0.2268
10987WAT     H244669   5.660   5.460   7.288  2.0872 -1.6723 -0.7815
10987WAT    EPW44670   5.696   5.465   7.358  0.4705 -0.1197  0.0293
10988WAT      O44671   6.282   1.249   6.148 -0.1393 -0.3186 -0.0835
10988WAT     H144672   6.312   1.268   6.068  0.9933  0.0493  0.4225
10988WAT     H244673   6.278   1.162   6.148  0.3934 -0.3482 -0.3512
10988WAT    EPW44674   6.286   1.239   6.136  0.1067 -0.2686 -0.0483
10989WAT      O44675   1.290   7.137   4.064  0.1571 -0.0334  1.2017
10989WAT     H144676   1.304   7.092   4.138 -1.3194 -0.1920  1.4015
10989WAT     H244677   1.314   7.082   4.001  1.5448  0.1461  1.5326
10989WAT    EPW44678   1.296   7.122   4.066  0.1440 -0.0303  1.2801
10990WAT      O44679   2.248   5.812   1.736  0.2661 -0.3344  0.1245
10990WAT     H144680   2.226   5.896   1.723 -0.4774 -0.6469 -0.7957
10990WAT     H244681   2.334   5.811   1.726  0.1357  0.1183 -1.1785
10990WAT    EPW44682   2.257   5.824   1.733  0.1370 -0.3137 -0.2039
10991WAT      O44683   0.098   4.133   0.317  0.1508 -0.7091 -0.1031
10991WAT     H144684   0.149   4.068   0.288  0.9625 -0.8993  1.5923
10991WAT     H244685   0.142   4.163   0.387  0.8413  3.0431 -1.9055
10991WAT    EPW44686   0.112   4.128   0.323  0.3727 -0.1829 -0.1189
10992WAT      O44687   0.466   6.285   5.356  0.4231 -0.4127  0.1769
10992WAT     H144688   0.459   6.204   5.388  0.2471 -0.2230  0.6264
10992WAT     H244689   0.389   6.297   5.316 -0.4124  0.2875  1.8976
10992WAT    EPW44690   0.454   6.275   5.355  0.2737 -0.2812  0.4975
10993WAT      O44691   1.233   3.089   2.707  0.5899 -0.4467 -0.0954
10993WAT     H144692   1.251   3.041   2.777 -0.4413 -0.7293 -0.0083
10993WAT     H244693   1.166   3.140   2.734 -0.0461 -0.8026 -0.9607
10993WAT    EPW44694   1.226   3.089   2.722  0.3436 -0.5410 -0.2103
10994WAT      O44695   1.651   3.911   5.904  0.7806 -0.1320 -0.0537
10994WAT     H144696   1.584   3.882   5.952  0.2331 -0.9433 -1.2596
10994WAT     H244697   1.721   3.874   5.942  0.7226  1.4422  1.7759
10994WAT    EPW44698   1.652   3.901   5.917  0.6912 -0.0193  0.0384
10995WAT      O44699   5.580   5.184   1.820 -0.7744 -0.2044 -0.2738
10995WAT     H144700   5.525   5.140   1.871  0.1413 -1.4406 -0.3129
10995WAT     H244701   5.601   5.126   1.758 -0.3037  0.6167 -0.8961
10995WAT    EPW44702   5.575   5.169   1.818 -0.5696 -0.2658 -0.3715
10996WAT      O44703   7.043   3.539   3.361  0.1103 -0.0271 -0.1725
10996WAT     H144704   7.119   3.548   3.403  2.1491 -1.3359 -3.2185
10996WAT     H244705   7.037   3.612   3.315  0.2180 -0.4738 -0.9088
10996WAT    EPW44706   7.054   3.551   3.361  0.4274 -0.2864 -0.7312
10997WAT      O44707   7.108   6.180   4.879 -0.1877 -0.2860  0.1913
10997WAT     H144708   7.024   6.198   4.860  0.0114 -0.0269 -0.4639
10997WAT     H244709   7.149   6.194   4.804  0.7338  1.4120  0.9529
10997WAT    EPW44710   7.101   6.185   4.865 -0.0221  0.0031  0.2070
10998WAT      O44711   2.553   6.147   2.988  0.1661  0.5080  0.2523
10998WAT     H144712   2.597   6.085   3.030 -0.5182 -0.9045 -1.0181
10998WAT     H244713   2.603   6.218   2.999  2.0003 -0.6845  0.1371
10998WAT    EPW44714   2.567   6.148   2.996  0.3360  0.1232  0.0476
10999WAT      O44715   7.163   3.096   5.382 -0.5277 -0.2956 -0.6894
10999WAT     H144716   7.086   3.057   5.367 -0.6333 -0.0807 -0.7012
10999WAT     H244717   7.177   3.144   5.311 -1.2003  1.0015  0.0190
10999WAT    EPW44718   7.154   3.097   5.369 -0.6427 -0.0722 -0.5865
11000WAT      O44719   2.765   0.355   0.978  0.1927  0.4831 -0.3626
11000WAT     H144720   2.743   0.294   0.919  1.7651  0.3553 -0.8762
11000WAT     H244721   2.825   0.403   0.936  1.3886  0.3690  1.1103
11000WAT    EPW44722   2.771   0.353   0.963  0.6017  0.4473 -0.2209
11001WAT      O44723   6.949   3.047   3.718  0.2032 -0.3722  0.0485
11001WAT     H144724   7.014   2.992   3.737  1.3371  1.3269  1.3644
11001WAT     H244725   6.877   3.000   3.736  1.0683 -1.8616 -0.1863
11001WAT    EPW44726   6.948   3.032   3.724  0.4985 -0.3412  0.2082
11002WAT      O44727   7.166   5.432   2.359 -0.0049 -0.0390 -0.1629
11002WAT     H144728   7.239   5.415   2.315 -1.4677 -0.9302 -2.4017
11002WAT     H244729   7.151   5.516   2.343 -0.1614 -0.1862 -0.8165
11002WAT    EPW44730   7.175   5.442   2.350 -0.2441 -0.1924 -0.5902
11003WAT      O44731   4.972   3.963   4.410 -0.0470 -0.0082  0.1983
11003WAT     H144732   4.930   3.944   4.484 -1.9819  2.5143 -0.1081
11003WAT     H244733   5.053   3.932   4.423 -0.1522  0.7741  3.5801
11003WAT    EPW44734   4.978   3.956   4.423 -0.3484  0.4800  0.6526
11004WAT      O44735   4.990   0.518   3.741 -0.0024 -0.9290  0.1004
11004WAT     H144736   5.030   0.441   3.745  2.2757  0.1433 -0.1862
11004WAT     H244737   4.914   0.504   3.780  0.6879 -3.1020  0.8127
11004WAT    EPW44738   4.985   0.505   3.747  0.4361 -1.0916  0.1633
11005WAT      O44739   6.712   5.102   0.293  0.0486 -0.3908 -0.8807
11005WAT     H144740   6.698   5.061   0.369  2.2915  0.0891 -0.1097
11005WAT     H244741   6.682   5.182   0.307  2.9276  0.5809  0.6664
11005WAT    EPW44742   6.706   5.108   0.306  0.8052 -0.1764 -0.5383
11006WAT      O44743   6.024   6.232   1.963  0.3501 -0.2256  0.4916
11006WAT     H144744   6.074   6.240   2.034  1.1831 -0.8169 -0.0206
11006WAT     H244745   6.049   6.156   1.928  1.1101  0.8299 -1.3331
11006WAT    EPW44746   6.035   6.222   1.968  0.5854 -0.1570  0.1464
11007WAT      O44747   2.348   3.644   4.338 -0.8227 -0.1282 -0.1874
11007WAT     H144748   2.295   3.691   4.389 -1.2485 -0.5128 -0.2732
11007WAT     H244749   2.396   3.598   4.394  0.9504  1.7708  0.0065
11007WAT    EPW44750   2.348   3.644   4.354 -0.6237  0.0955 -0.1714
11008WAT      O44751   5.103   2.091   0.692  0.3428 -0.1584  0.1510
11008WAT     H144752   5.151   2.156   0.660 -1.5159  0.3835 -1.8480
11008WAT     H244753   5.117   2.026   0.635  0.7806 -0.9338  1.1069
11008WAT    EPW44754   5.112   2.091   0.679  0.1329 -0.1929 -0.0031
11009WAT      O44755   0.965   1.925   2.438  0.0766 -0.1237 -0.0494
11009WAT     H144756   1.038   1.968   2.458  0.2179 -1.2247  2.0515
11009WAT     H244757   0.904   1.988   2.436  0.5859  0.4442  1.1888
11009WAT    EPW44758   0.966   1.941   2.441  0.1727 -0.2024  0.4438
11010WAT      O44759   1.749   6.637   1.828  0.6106 -0.2851 -0.0714
11010WAT     H144760   1.764   6.664   1.909  0.4039  1.6536 -0.6195
11010WAT     H244761   1.729   6.553   1.837  1.2734 -0.2817  1.7949
11010WAT    EPW44762   1.749   6.629   1.841  0.6780  0.0018  0.1234
11011WAT      O44763   4.963   6.777   2.545  0.3363 -0.0374  0.4927
11011WAT     H144764   5.036   6.825   2.546 -0.5160  1.3366  0.1224
11011WAT     H244765   4.958   6.750   2.462 -1.7181  3.4895 -0.7620
11011WAT    EPW44766   4.973   6.780   2.533 -0.0931  0.6865  0.2527
11012WAT      O44767   2.846   5.372   0.743 -0.0057 -0.2003 -0.2676
11012WAT     H144768   2.783   5.405   0.693  0.7710  1.3348 -0.2958
11012WAT     H244769   2.838   5.416   0.818  1.8404  1.0579 -0.7358
11012WAT    EPW44770   2.836   5.384   0.747  0.3817  0.2123 -0.3409
11013WAT      O44771   3.909   3.641   1.615  0.3420  0.0997 -0.6828
11013WAT     H144772   3.960   3.684   1.671  2.5940 -1.5507 -1.3493
11013WAT     H244773   3.964   3.610   1.555 -1.8471  1.1139 -3.4867
11013WAT    EPW44774   3.924   3.643   1.614  0.3513  0.0057 -1.1954
11014WAT      O44775   1.637   7.126   6.461 -0.6363 -0.0517  0.8419
11014WAT     H144776   1.599   7.083   6.396 -2.0608  0.6292  1.1978
11014WAT     H244777   1.680   7.064   6.505  0.9759 -0.4231 -1.1069
11014WAT    EPW44778   1.638   7.111   6.458 -0.6086 -0.0060  0.6066
11015WAT      O44779   1.988   3.017   4.803  0.2621 -0.2846  0.3617
11015WAT     H144780   2.019   3.021   4.722  2.5794 -0.3049  1.1637
11015WAT     H244781   2.002   2.934   4.827  0.0916 -0.1444  0.9683
11015WAT    EPW44782   1.995   3.005   4.795  0.5792 -0.2669  0.5698
11016WAT      O44783   6.557   6.137   1.479  0.5525 -0.4016  0.4030
11016WAT     H144784   6.571   6.196   1.416  1.7823 -0.6132  0.4559
11016WAT     H244785   6.558   6.061   1.437 -0.7937 -0.4339  0.3729
11016WAT    EPW44786   6.559   6.135   1.463  0.5353 -0.4376  0.4064
11017WAT      O44787   5.837   0.107   1.746  0.0595  0.4730 -0.0716
11017WAT     H144788   5.752   0.113   1.731 -0.4975 -0.7948  2.2357
11017WAT     H244789   5.845   0.124   1.831  2.0495  0.1750 -0.1504
11017WAT    EPW44790   5.826   0.110   1.756  0.2712  0.2417  0.2576
11018WAT      O44791   7.237   3.847   4.017 -0.2725  0.0586 -0.2779
11018WAT     H144792   7.207   3.864   3.937  1.4593 -0.1121 -0.9957
11018WAT     H244793   7.189   3.779   4.042 -0.3708 -0.3253 -1.4530
11018WAT    EPW44794   7.225   3.839   4.009 -0.0312 -0.0233 -0.5575
11019WAT      O44795   0.585   2.014   5.895  0.0773 -0.5172  0.2396
11019WAT     H144796   0.598   1.951   5.836  0.8121 -0.6276  0.5216
11019WAT     H244797   0.566   2.084   5.846 -1.5436 -1.1220 -0.0524
11019WAT    EPW44798   0.584   2.015   5.879 -0.0536 -0.6228  0.2381
11020WAT      O44799   5.118   7.168   0.915 -0.3097 -0.3460 -0.3574
11020WAT     H144800   5.046   7.119   0.902 -0.1626 -0.6922  0.1040
11020WAT     H244801   5.087   7.242   0.949 -0.4149 -0.6580  0.2358
11020WAT    EPW44802   5.103   7.171   0.918 -0.3035 -0.4432 -0.2016
11021WAT      O44803   3.639   1.469   4.298  1.0167 -0.1448  0.8141
11021WAT     H144804   3.607   1.457   4.378  0.6925 -0.9109  0.5823
11021WAT     H244805   3.574   1.441   4.246  1.4563 -0.2320  0.3025
11021WAT    EPW44806   3.625   1.463   4.302  1.0338 -0.2709  0.7043
11022WAT      O44807   6.346   1.386   2.716 -0.3677 -0.0246  0.2968
11022WAT     H144808   6.394   1.329   2.762  0.1107 -0.1739 -0.3658
11022WAT     H244809   6.264   1.365   2.737 -0.2104 -1.1943 -0.2002
11022WAT    EPW44810   6.341   1.374   2.726 -0.2738 -0.2194  0.1255
11023WAT      O44811   2.428   2.756   5.388 -0.9517 -0.2359  0.5476
11023WAT     H144812   2.474   2.780   5.318 -1.4295  0.4430  0.4561
11023WAT     H244813   2.476   2.782   5.455 -0.1039 -1.6011  0.5094
11023WAT    EPW44814   2.442   2.763   5.388 -0.8971 -0.3373  0.5284
11024WAT      O44815   7.159   5.006   6.207  0.2690 -0.0264  0.6291
11024WAT     H144816   7.146   5.080   6.162  0.3633  0.0334  0.7008
11024WAT     H244817   7.079   4.972   6.213  0.3474 -0.3721 -0.1644
11024WAT    EPW44818   7.145   5.012   6.201  0.2945 -0.0686  0.5225
11025WAT      O44819   2.232   1.614   2.086 -0.1973 -0.4262 -0.8725
11025WAT     H144820   2.189   1.592   2.159 -1.1324  1.0113 -0.9560
11025WAT     H244821   2.312   1.633   2.115 -0.8119  1.0606 -0.0329
11025WAT    EPW44822   2.237   1.614   2.101 -0.4262  0.0058 -0.7608
11026WAT      O44823   0.167   0.112   5.095 -0.1502 -0.1540 -0.3472
11026WAT     H144824   0.247   0.097   5.126 -0.1285 -0.5242 -0.5817
11026WAT     H244825   0.178   0.181   5.042  0.0073 -0.1897 -0.3604
11026WAT    EPW44826   0.180   0.120   5.091 -0.1237 -0.2140 -0.3838
11027WAT      O44827   5.795   0.955   1.024 -0.2694  0.2600  0.3893
11027WAT     H144828   5.812   0.983   1.105 -0.8270 -1.1844  1.0445
11027WAT     H244829   5.854   0.997   0.975  1.1277  0.0234  1.7646
11027WAT    EPW44830   5.806   0.965   1.029 -0.1454  0.0117  0.6892
11028WAT      O44831   1.490   0.573   4.764 -0.1917 -0.1735  0.2451
11028WAT     H144832   1.466   0.655   4.742 -1.5571 -0.9280 -1.3720
11028WAT     H244833   1.425   0.547   4.816 -0.6430 -0.7733 -0.6048
11028WAT    EPW44834   1.477   0.581   4.768 -0.4600 -0.3736 -0.1193
11029WAT      O44835   5.782   5.329   3.068  0.4330  0.1791 -0.0051
11029WAT     H144836   5.789   5.397   3.013  2.5817  0.5815  0.6673
11029WAT     H244837   5.772   5.367   3.146 -0.6981 -0.3538  0.1247
11029WAT    EPW44838   5.782   5.345   3.071  0.5834  0.1598  0.1134
11030WAT      O44839   5.435   5.901   0.132 -0.2709  0.4719 -0.0167
11030WAT     H144840   5.437   5.845   0.199 -1.1168 -0.0130 -0.3691
11030WAT     H244841   5.517   5.902   0.103  0.2408  1.1457  1.3808
11030WAT    EPW44842   5.447   5.893   0.137 -0.3203  0.4998  0.1377
11031WAT      O44843   7.274   5.830   2.023  0.5639 -0.5104  0.5314
11031WAT     H144844   7.200   5.873   2.040  1.4976  0.5335  2.3666
11031WAT     H244845   7.258   5.788   1.949 -1.6658  0.1232  0.6013
11031WAT    EPW44846   7.261   5.830   2.015  0.3724 -0.2626  0.8128
11032WAT      O44847   2.302   1.094   3.358  0.6552 -0.5147 -0.7571
11032WAT     H144848   2.239   1.081   3.299 -0.4406  0.3142  0.1643
11032WAT     H244849   2.326   1.176   3.344  0.4952 -0.3632 -0.1593
11032WAT    EPW44850   2.296   1.104   3.347  0.4697 -0.3699 -0.5327
11033WAT      O44851   2.238   4.982   6.025 -0.5587  0.4245  0.6529
11033WAT     H144852   2.175   4.924   6.009 -0.3187  0.6542 -1.4118
11033WAT     H244853   2.201   5.059   6.005 -0.3383  0.8245  1.7098
11033WAT    EPW44854   2.224   4.985   6.019 -0.4907  0.5175  0.5040
11034WAT      O44855   2.923   3.431   0.693  0.2386 -0.2216  0.4315
11034WAT     H144856   2.951   3.494   0.640  1.3167 -0.0374  1.2014
11034WAT     H244857   2.993   3.378   0.700  0.4790  0.3249  2.5166
11034WAT    EPW44858   2.938   3.432   0.686  0.4334 -0.1136  0.8532
11035WAT      O44859   2.699   2.662   0.165 -0.6798 -0.1448 -0.1221
11035WAT     H144860   2.715   2.624   0.242 -1.7200 -0.9871 -0.2976
11035WAT     H244861   2.708   2.597   0.108 -1.4475  0.0982 -0.5407
11035WAT    EPW44862   2.703   2.647   0.168 -0.9469 -0.2334 -0.2099
11036WAT      O44863   0.768   2.064   2.142 -0.1694  0.0122 -0.1162
11036WAT     H144864   0.724   1.989   2.128  1.0020 -0.4032 -1.9647
11036WAT     H244865   0.716   2.124   2.105 -0.8270  0.0523  0.8394
11036WAT    EPW44866   0.754   2.062   2.134 -0.0935 -0.0433 -0.2481
11037WAT      O44867   0.484   3.906   2.688 -0.3295  0.1332 -0.1182
11037WAT     H144868   0.440   3.973   2.654  1.4318  1.0818 -0.6326
11037WAT     H244869   0.440   3.837   2.660 -1.8444  1.0325 -0.0877
11037WAT    EPW44870   0.471   3.906   2.679 -0.2931  0.4062 -0.1897
11038WAT      O44871   6.460   2.531   2.808 -0.4905 -0.5443  0.4702
11038WAT     H144872   6.401   2.478   2.845 -1.4646  0.7190  0.7874
11038WAT     H244873   6.434   2.611   2.832 -0.0162  0.2029 -1.3451
11038WAT    EPW44874   6.448   2.535   2.817 -0.5643 -0.2473  0.2489
11039WAT      O44875   1.447   6.221   6.549 -0.3331  0.9235  0.1867
11039WAT     H144876   1.361   6.220   6.557 -0.3736 -3.0689  2.1955
11039WAT     H244877   1.460   6.204   6.465 -1.7784 -2.1179  0.4420
11039WAT    EPW44878   1.436   6.218   6.538 -0.5526 -0.1155  0.5212
11040WAT      O44879   6.153   2.590   7.103 -0.5148 -0.4442 -0.4810
11040WAT     H144880   6.100   2.658   7.089  0.3470  0.6323  1.0774
11040WAT     H244881   6.118   2.552   7.174  0.1797 -0.3481 -0.0799
11040WAT    EPW44882   6.140   2.594   7.112 -0.2849 -0.2710 -0.1916
11041WAT      O44883   5.949   5.870   5.539 -0.3942  0.6273  0.0267
11041WAT     H144884   5.922   5.920   5.473 -0.6105 -0.3465 -0.6528
11041WAT     H244885   6.033   5.891   5.548 -0.5407  1.2667 -0.0958
11041WAT    EPW44886   5.958   5.880   5.530 -0.4478  0.5779 -0.0918
11042WAT      O44887   6.612   0.279   5.419  0.4337  0.3397 -0.1606
11042WAT     H144888   6.686   0.235   5.405  0.2713 -0.5387  1.4414
11042WAT     H244889   6.594   0.261   5.502 -2.0831 -0.2496 -0.7618
11042WAT    EPW44890   6.620   0.270   5.429  0.0379  0.1229 -0.0127
11043WAT      O44891   4.696   3.456   4.354 -0.0774  0.0073 -0.3822
11043WAT     H144892   4.629   3.408   4.325 -0.5455  0.3116  0.1718
11043WAT     H244893   4.734   3.485   4.281 -0.7029  0.0447 -0.6952
11043WAT    EPW44894   4.692   3.453   4.339 -0.2389  0.0578 -0.3466
11044WAT      O44895   6.837   0.273   4.128 -0.4349  0.0423  0.4998
11044WAT     H144896   6.792   0.336   4.169 -2.1618 -0.9934  0.2826
11044WAT     H244897   6.852   0.307   4.049 -1.2303  0.2378  0.4254
11044WAT    EPW44898   6.833   0.288   4.122 -0.8075 -0.0818  0.4567
11045WAT      O44899   5.558   3.016   2.680 -0.3365  0.2993  0.3451
11045WAT     H144900   5.631   3.004   2.633 -0.0350  1.3077  0.5188
11045WAT     H244901   5.512   3.072   2.632 -0.5021  0.5157  0.7478
11045WAT    EPW44902   5.562   3.023   2.666 -0.3164  0.4802  0.4302
11046WAT      O44903   5.002   2.531   0.290  0.1854 -0.2269 -0.3183
11046WAT     H144904   4.957   2.583   0.344  0.3681 -0.0808 -0.3058
11046WAT     H244905   5.058   2.585   0.250 -0.9865 -0.0458 -1.8023
11046WAT    EPW44906   5.004   2.546   0.292  0.0393 -0.1785 -0.5357
11047WAT      O44907   2.280   2.786   1.057 -0.2199  0.2409 -0.5896
11047WAT     H144908   2.273   2.700   1.070  0.8053  0.5578  3.5146
11047WAT     H244909   2.364   2.802   1.075 -0.6012  2.1889 -0.3712
11047WAT    EPW44910   2.292   2.776   1.062 -0.1248  0.5755  0.0489
11048WAT      O44911   4.925   3.610   6.270  0.3354 -0.2571  0.0535
11048WAT     H144912   4.865   3.672   6.263 -0.3336 -0.8086  0.7509
11048WAT     H244913   4.879   3.536   6.275  1.0953 -0.7668 -0.2659
11048WAT    EPW44914   4.909   3.608   6.270  0.3488 -0.4139  0.1094
11049WAT      O44915   0.555   3.380   2.492  0.0775 -0.2493 -0.2007
11049WAT     H144916   0.573   3.407   2.411 -0.3334 -0.2460 -0.2931
11049WAT     H244917   0.600   3.435   2.542 -1.5460  1.3212 -0.3437
11049WAT    EPW44918   0.564   3.392   2.487 -0.2230 -0.0168 -0.2355
11050WAT      O44919   0.606   4.451   2.120 -0.1585  0.0980 -0.5029
11050WAT     H144920   0.622   4.518   2.067  1.5947  0.1082 -0.0342
11050WAT     H244921   0.528   4.422   2.095  1.0368 -0.6262 -3.8878
11050WAT    EPW44922   0.597   4.457   2.108  0.2770 -0.0075 -0.9336
11051WAT      O44923   3.191   0.035   2.399  0.0500 -0.4496 -0.0804
11051WAT     H144924   3.241  -0.032   2.375  1.6336  0.5025  0.4397
11051WAT     H244925   3.212   0.047   2.482 -1.9832 -0.7793  0.5347
11051WAT    EPW44926   3.201   0.027   2.408 -0.0165 -0.3577  0.0873
11052WAT      O44927   5.099   2.386   3.021 -0.2719  0.9164  0.4766
11052WAT     H144928   5.020   2.378   3.056 -0.8746 -0.4048 -1.0513
11052WAT     H244929   5.129   2.304   3.021 -0.2573  0.8376 -1.8433
11052WAT    EPW44930   5.092   2.373   3.026 -0.3587  0.7096 -0.0918
11053WAT      O44931   5.964   5.916   2.954  0.1862  0.0469  0.3604
11053WAT     H144932   6.023   5.980   2.958  1.4257 -1.0918  1.1404
11053WAT     H244933   6.011   5.847   2.928 -0.8824 -0.7997  0.6181
11053WAT    EPW44934   5.980   5.916   2.950  0.2115 -0.2464  0.5137
11054WAT      O44935   1.687   2.730   1.778 -0.8359  0.1350  0.4120
11054WAT     H144936   1.742   2.664   1.791 -0.5687  0.4166  0.7555
11054WAT     H244937   1.739   2.798   1.761 -1.1332  0.0649 -0.9356
11054WAT    EPW44938   1.703   2.730   1.777 -0.8404  0.1663  0.2636
11055WAT      O44939   6.162   0.875   5.747 -0.2519  0.3220  0.3064
11055WAT     H144940   6.248   0.872   5.733 -0.5839 -0.6648 -1.9104
11055WAT     H244941   6.154   0.851   5.830  1.5004 -2.0622 -0.1099
11055WAT    EPW44942   6.173   0.871   5.757 -0.0421 -0.1759 -0.0825
11056WAT      O44943   3.235   3.382   3.541  0.5996 -0.2634 -0.2209
11056WAT     H144944   3.224   3.416   3.462  1.3185 -0.6916 -0.5127
11056WAT     H244945   3.154   3.380   3.574  0.2757 -0.2178 -0.9968
11056WAT    EPW44946   3.222   3.387   3.534  0.6580 -0.3199 -0.3786
11057WAT      O44947   5.480   6.263   1.107  0.4181  0.3337  0.1057
11057WAT     H144948   5.460   6.287   1.188  1.0738 -1.1203  0.7494
11057WAT     H244949   5.567   6.255   1.109  0.4401  0.2413 -0.7248
11057WAT    EPW44950   5.490   6.265   1.119  0.5182  0.1052  0.0781
11058WAT      O44951   4.121   6.504   4.434 -0.0202 -0.0393  1.2103
11058WAT     H144952   4.116   6.435   4.487  2.1056 -0.7301  0.6189
11058WAT     H244953   4.117   6.572   4.488  1.1736 -0.7073  2.2102
11058WAT    EPW44954   4.120   6.504   4.450  0.4701 -0.2400  1.2706
11059WAT      O44955   1.130   6.430   0.970  0.5350  0.7820 -0.2386
11059WAT     H144956   1.180   6.396   0.907 -1.6999 -1.3952 -0.9700
11059WAT     H244957   1.142   6.375   1.037 -0.3847  0.5859 -0.2268
11059WAT    EPW44958   1.139   6.417   0.971  0.0690  0.4314 -0.3449
11060WAT      O44959   2.742   7.034   6.270  0.3637  0.1420 -0.5220
11060WAT     H144960   2.735   7.080   6.196 -0.2705  0.0344 -0.5402
11060WAT     H244961   2.828   7.025   6.281  0.4748 -0.2968 -1.5472
11060WAT    EPW44962   2.754   7.039   6.261  0.2864  0.0613 -0.6761
11061WAT      O44963   0.642   0.153   5.005  0.1780 -0.2689  0.2702
11061WAT     H144964   0.707   0.097   5.024 -0.5926 -1.8903 -1.5473
11061WAT     H244965   0.683   0.229   4.997  1.7463 -1.0909  0.0149
11061WAT    EPW44966   0.658   0.156   5.006  0.2958 -0.6298 -0.0360
11062WAT      O44967   3.369   1.718   5.670  0.0410  0.1992  0.1160
11062WAT     H144968   3.342   1.636   5.678 -0.6959  0.4114 -0.1161
11062WAT     H244969   3.329   1.747   5.598  0.9960  0.4946 -0.3129
11062WAT    EPW44970   3.359   1.710   5.661  0.0732  0.2742  0.0183
11063WAT      O44971   6.334   1.423   1.156 -0.3910  0.0076 -0.7404
11063WAT     H144972   6.363   1.504   1.169 -0.4628 -0.0562 -0.1531
11063WAT     H244973   6.319   1.393   1.237 -0.1343 -0.6709 -0.9319
11063WAT    EPW44974   6.336   1.430   1.170 -0.3637 -0.1020 -0.6820
11064WAT      O44975   2.882   1.831   6.249  0.3021  0.1050  0.4519
11064WAT     H144976   2.820   1.879   6.288  0.4440  0.9016 -0.2757
11064WAT     H244977   2.923   1.793   6.316 -1.2866 -0.8738  0.9253
11064WAT    EPW44978   2.879   1.832   6.265  0.0884  0.0781  0.4144
11065WAT      O44979   3.548   3.167   5.110  0.4813 -0.5231  0.3413
11065WAT     H144980   3.631   3.194   5.106  0.3689 -0.1815  0.2449
11065WAT     H244981   3.521   3.172   5.027 -0.4112  1.8932  0.6956
11065WAT    EPW44982   3.556   3.172   5.097  0.3329 -0.1157  0.3794
11066WAT      O44983   1.310   2.464   6.187 -0.0093  0.9004  0.0656
11066WAT     H144984   1.378   2.516   6.201  1.9750 -0.4150 -3.3803
11066WAT     H244985   1.344   2.384   6.195 -1.7640  0.1681  0.5523
11066WAT    EPW44986   1.325   2.460   6.190  0.0246  0.5979 -0.3715
11067WAT      O44987   4.919   5.580   3.892 -0.3302  0.4954  0.2463
11067WAT     H144988   4.940   5.519   3.951  0.4603 -0.2669 -0.7988
11067WAT     H244989   4.985   5.636   3.895  0.0989  0.0373 -0.4585
11067WAT    EPW44990   4.932   5.579   3.901 -0.1500  0.3151 -0.0122
11068WAT      O44991   6.236   4.852   6.038 -0.1535  0.3511  0.2129
11068WAT     H144992   6.323   4.858   6.048  0.0755  1.9612 -1.9793
11068WAT     H244993   6.224   4.769   6.012  0.4374 -0.4591  2.3113
11068WAT    EPW44994   6.247   4.840   6.035 -0.0324  0.4692  0.1990
11069WAT      O44995   0.482   0.900   0.050 -0.7763 -0.2045 -0.4440
11069WAT     H144996   0.418   0.936   0.003 -0.7408  2.5879  1.4036
11069WAT     H244997   0.467   0.814   0.043 -1.5963  0.0545 -4.2238
11069WAT    EPW44998   0.470   0.892   0.042 -0.8922  0.2462 -0.7294
11070WAT      O44999   4.594   2.924   2.882 -0.4190 -0.3845 -0.0133
11070WAT     H145000   4.601   3.011   2.892 -1.8919 -0.1356 -0.8533
11070WAT     H245001   4.515   2.906   2.913  0.0455 -1.5181  0.5655
11070WAT    EPW45002   4.584   2.934   2.888 -0.5679 -0.5152 -0.0519
11071WAT      O45003   3.966   0.852   1.925 -0.0819 -0.6793  0.0514
11071WAT     H145004   3.987   0.830   2.007  1.7745 -0.5587 -0.3499
11071WAT     H245005   3.963   0.939   1.927  1.2084 -0.6068 -0.2487
11071WAT    EPW45006   3.969   0.861   1.937  0.3829 -0.6508 -0.0522
11072WAT      O45007   1.682   3.896   0.281  0.2943 -0.2520  0.1310
11072WAT     H145008   1.737   3.928   0.341  0.1531  2.2316 -0.9596
11072WAT     H245009   1.671   3.813   0.306  1.8993  0.0957  2.2865
11072WAT    EPW45010   1.689   3.889   0.293  0.5105  0.1662  0.2883
11073WAT      O45011   0.791   0.860   6.549 -0.1373  0.3209 -1.0918
11073WAT     H145012   0.780   0.942   6.520  0.2754  1.2693  1.1727
11073WAT     H245013   0.750   0.811   6.490 -0.1960  2.1337 -2.6539
11073WAT    EPW45014   0.784   0.865   6.536 -0.0850  0.7288 -0.9880
11074WAT      O45015   5.403   1.856   0.282  0.3921 -0.5689  0.1029
11074WAT     H145016   5.392   1.942   0.274 -1.9862 -0.6689  1.4640
11074WAT     H245017   5.489   1.845   0.269  0.7791  2.0007  0.0022
11074WAT    EPW45018   5.414   1.867   0.279  0.0980 -0.2041  0.2891
11075WAT      O45019   2.418   5.813   0.848  0.9932  0.8476  0.4656
11075WAT     H145020   2.457   5.840   0.775 -1.7400  0.0847 -1.4357
11075WAT     H245021   2.423   5.726   0.844 -1.1143  0.6887 -0.1004
11075WAT    EPW45022   2.424   5.804   0.837  0.2781  0.7115  0.1011
11076WAT      O45023   5.353   0.539   2.474  0.2218 -0.8484  0.1614
11076WAT     H145024   5.304   0.530   2.402  1.2581 -1.0920 -0.5407
11076WAT     H245025   5.333   0.470   2.522 -0.0215 -1.0162 -0.1771
11076WAT    EPW45026   5.342   0.528   2.470  0.3390 -0.9092  0.0077
11077WAT      O45027   6.656   1.625   1.870 -0.4154  0.3592  0.2764
11077WAT     H145028   6.655   1.565   1.807  0.5332  0.7765 -0.1548
11077WAT     H245029   6.581   1.612   1.912 -0.8799 -0.1867 -0.6949
11077WAT    EPW45030   6.645   1.614   1.867 -0.3439  0.3402  0.0693
11078WAT      O45031   3.045   3.038   5.764 -0.6852 -0.3993 -0.4224
11078WAT     H145032   3.012   2.988   5.701 -0.8237 -0.8144 -0.0280
11078WAT     H245033   3.060   2.982   5.829  2.2566 -0.5428 -1.0780
11078WAT    EPW45034   3.042   3.023   5.764 -0.2711 -0.4818 -0.4610
11079WAT      O45035   5.028   3.943   4.874 -0.5694  0.1799 -0.1610
11079WAT     H145036   4.944   3.920   4.872 -0.5595  0.1604 -1.0080
11079WAT     H245037   5.031   4.013   4.822  0.3331 -1.3401 -2.3102
11079WAT    EPW45038   5.016   3.950   4.866 -0.4346 -0.0475 -0.6036
11080WAT      O45039   2.476   0.887   1.993  0.1210  0.2013 -0.2217
11080WAT     H145040   2.477   0.972   1.971 -0.4810  0.1148 -0.6163
11080WAT     H245041   2.457   0.888   2.078  2.7650  0.5547  0.4607
11080WAT    EPW45042   2.473   0.900   2.003  0.4226  0.2407 -0.1792
11081WAT      O45043   5.618   0.478   5.807 -0.3780  0.1697  0.1010
11081WAT     H145044   5.589   0.412   5.759 -1.6495  0.1628  0.8400
11081WAT     H245045   5.620   0.445   5.888  0.8204  0.4651  0.2161
11081WAT    EPW45046   5.614   0.464   5.812 -0.3888  0.2123  0.2272
11082WAT      O45047   0.597   1.176   0.322  0.3815 -0.2106  0.3635
11082WAT     H145048   0.662   1.139   0.366  1.6074  1.8492  0.4378
11082WAT     H245049   0.604   1.141   0.242  3.2379  1.6585 -0.3443
11082WAT    EPW45050   0.608   1.165   0.316  0.9845  0.3698  0.2699
11083WAT      O45051   2.042   3.439   4.246 -0.1426  0.0505 -0.5910
11083WAT     H145052   2.078   3.510   4.210  0.0184 -0.0651 -0.6563
11083WAT     H245053   1.962   3.438   4.212 -1.0910  1.6742  1.3638
11083WAT    EPW45054   2.036   3.450   4.235 -0.2589  0.2733 -0.3119
11084WAT      O45055   5.314   6.857   1.890  0.5289 -0.7230 -0.1627
11084WAT     H145056   5.312   6.774   1.917 -2.6205 -0.7549 -0.0884
11084WAT     H245057   5.263   6.856   1.819  0.9802  1.0544 -0.5480
11084WAT    EPW45058   5.306   6.844   1.883  0.1303 -0.4651 -0.2086
11085WAT      O45059   0.808   0.606   1.252 -0.3534  0.6291 -0.6649
11085WAT     H145060   0.831   0.688   1.232 -2.2709  0.6760 -3.0418
11085WAT     H245061   0.875   0.558   1.223  0.5613  1.2703  0.3016
11085WAT    EPW45062   0.821   0.611   1.245 -0.5015  0.7308 -0.8732
11086WAT      O45063   6.032   5.770   1.472  0.0768 -0.2738  0.7733
11086WAT     H145064   6.035   5.700   1.419  0.0784  0.9290 -0.9108
11086WAT     H245065   5.973   5.822   1.434  0.9482  1.1497  1.2827
11086WAT    EPW45066   6.024   5.767   1.459  0.2058  0.1142  0.5998
11087WAT      O45067   5.078   5.830   3.609 -0.5046  1.0422  0.2731
11087WAT     H145068   5.101   5.912   3.629  0.6622  0.4516  1.5288
11087WAT     H245069   5.137   5.782   3.652 -2.6402 -0.5291  1.6514
11087WAT    EPW45070   5.090   5.835   3.619 -0.6477  0.7229  0.6622
11088WAT      O45071   3.115   0.392   1.815  0.0807  0.0455 -0.7978
11088WAT     H145072   3.147   0.397   1.734  0.0852  3.7627 -0.7279
11088WAT     H245073   3.113   0.475   1.842 -1.1181 -0.9064  2.5814
11088WAT    EPW45074   3.119   0.405   1.807 -0.0957  0.4540 -0.2883
11089WAT      O45075   0.834   6.716   4.217  0.1148  0.3195 -0.0587
11089WAT     H145076   0.833   6.802   4.231  1.0875  0.4006 -0.3623
11089WAT     H245077   0.828   6.682   4.297 -0.2935  0.6726  0.0618
11089WAT    EPW45078   0.833   6.724   4.231  0.1982  0.3836 -0.0858
11090WAT      O45079   2.020   1.092   4.316  0.4126 -0.0180  0.2407
11090WAT     H145080   1.967   1.111   4.383 -0.6764 -2.6080  0.2114
11090WAT     H245081   1.969   1.100   4.246  0.3528 -1.3371  0.1074
11090WAT    EPW45082   2.005   1.096   4.316  0.2429 -0.5954  0.2167
11091WAT      O45083   3.358   3.546   5.935  0.0425 -0.6603  0.4443
11091WAT     H145084   3.300   3.561   5.998  0.5542 -0.2104  0.8080
11091WAT     H245085   3.400   3.474   5.962 -3.1461 -3.7625 -1.8049
11091WAT    EPW45086   3.356   3.537   5.948 -0.3529 -1.0521  0.1658
11092WAT      O45087   3.724   2.613   0.147 -0.2980 -0.0234  0.2316
11092WAT     H145088   3.745   2.563   0.079 -0.2920  0.7424 -0.3412
11092WAT     H245089   3.744   2.694   0.121 -1.8528  0.4880  0.5022
11092WAT    EPW45090   3.730   2.618   0.133 -0.5268  0.1653  0.1870
11093WAT      O45091   1.342   5.975   7.137  0.2361  0.0707 -0.4182
11093WAT     H145092   1.387   6.049   7.127 -0.4956  0.3410 -1.9825
11093WAT     H245093   1.309   5.981   7.218 -0.1076  1.6264 -0.6557
11093WAT    EPW45094   1.344   5.987   7.148  0.0772  0.3404 -0.6844
11094WAT      O45095   5.325   6.947   0.601 -0.2653 -0.2243  0.1383
11094WAT     H145096   5.410   6.959   0.618 -0.6053  2.1815  0.4911
11094WAT     H245097   5.326   6.901   0.527  1.4520  2.0124 -1.4021
11094WAT    EPW45098   5.338   6.942   0.593 -0.0618  0.4615 -0.0371
11095WAT      O45099   0.734   1.829   5.003 -0.8012  0.7005  0.4364
11095WAT     H145100   0.821   1.826   5.001 -0.8223 -0.5568 -0.3285
11095WAT     H245101   0.711   1.799   4.924 -1.9261  0.7014  0.7423
11095WAT    EPW45102   0.743   1.824   4.991 -0.9705  0.5149  0.3686
11096WAT      O45103   3.405   1.790   4.209  0.0037  0.1059 -0.5198
11096WAT     H145104   3.488   1.790   4.237 -0.3000 -0.2040  0.3819
11096WAT     H245105   3.414   1.798   4.122  1.0929 -2.3095 -0.7310
11096WAT    EPW45106   3.419   1.791   4.200  0.1197 -0.2967 -0.4178
11097WAT      O45107   0.498   5.371   6.907  0.6302  0.2529  0.1983
11097WAT     H145108   0.555   5.391   6.970  1.4737 -0.4689 -0.3148
11097WAT     H245109   0.502   5.284   6.902  0.6501  0.2977 -0.8915
11097WAT    EPW45110   0.507   5.361   6.916  0.7577  0.1529 -0.0385
11098WAT      O45111   4.744   1.468   4.585  0.2390  0.3394 -0.1632
11098WAT     H145112   4.789   1.468   4.660 -0.0249 -1.3242  0.0513
11098WAT     H245113   4.795   1.512   4.530  2.6641 -2.1630 -0.1653
11098WAT    EPW45114   4.758   1.474   4.588  0.5583 -0.2760 -0.1318
11099WAT      O45115   1.006   5.683   1.536  0.2038  0.3921 -0.1547
11099WAT     H145116   0.958   5.682   1.608 -0.6230 -2.7656 -0.5797
11099WAT     H245117   1.068   5.624   1.552  1.8892  1.8519 -0.9330
11099WAT    EPW45118   1.008   5.674   1.549  0.3307  0.1413 -0.3325
11100WAT      O45119   6.609   0.161   1.294  0.2650  0.6924  0.2043
11100WAT     H145120   6.557   0.099   1.327 -0.1793  0.7347 -0.3909
11100WAT     H245121   6.592   0.230   1.344  0.8985  0.2967  0.9870
11100WAT    EPW45122   6.599   0.162   1.306  0.2930  0.6402  0.2320
11101WAT      O45123   7.218   0.986   4.527 -0.0994 -0.0249  0.7208
11101WAT     H145124   7.268   1.031   4.583  0.2424 -0.2216  0.5777
11101WAT     H245125   7.166   1.046   4.493  0.6034  0.3313  0.2545
11101WAT    EPW45126   7.218   1.001   4.530  0.0549 -0.0013  0.6308
11102WAT      O45127   4.073   2.001   4.900  0.1668 -1.0082  0.1479
11102WAT     H145128   3.988   2.014   4.885 -0.1412 -3.9687 -1.4532
11102WAT     H245129   4.078   1.992   4.987 -1.0159 -0.0910  0.3280
11102WAT    EPW45130   4.061   2.001   4.911 -0.0535 -1.3100 -0.0620
11103WAT      O45131   0.929   6.511   3.338  0.0552 -0.1463 -0.0523
11103WAT     H145132   0.918   6.518   3.252  0.3942  0.5228 -0.0412
11103WAT     H245133   0.847   6.505   3.369 -0.1408  0.9963 -0.3036
11103WAT    EPW45134   0.915   6.511   3.330  0.0763  0.1214 -0.0878
11104WAT      O45135   2.908   5.046   3.948  0.6632 -0.6847 -0.1150
11104WAT     H145136   2.964   5.011   4.006  0.6436 -1.9960 -0.8612
11104WAT     H245137   2.830   5.029   3.983  0.6904  0.8374  0.7520
11104WAT    EPW45138   2.905   5.038   3.962  0.6643 -0.6536 -0.0972
11105WAT      O45139   5.266   0.414   4.113  0.5193  0.4314 -0.1877
11105WAT     H145140   5.209   0.480   4.100  0.2092  0.1417 -0.3025
11105WAT     H245141   5.264   0.371   4.037 -0.2462 -0.4634  0.3319
11105WAT    EPW45142   5.258   0.418   4.100  0.3604  0.2564 -0.1279
11106WAT      O45143   1.712   2.894   3.811 -0.3387  0.0088  0.4097
11106WAT     H145144   1.797   2.885   3.792 -0.8392  0.2680 -2.2837
11106WAT     H245145   1.697   2.979   3.801 -1.1662 -0.2205 -0.4747
11106WAT    EPW45146   1.722   2.905   3.807 -0.5349  0.0132 -0.1188
11107WAT      O45147   0.394   5.330   1.108  0.0143  0.3072 -0.4647
11107WAT     H145148   0.463   5.325   1.054  0.9998  0.3064  0.7515
11107WAT     H245149   0.341   5.266   1.079  0.9891 -0.3802 -0.7854
11107WAT    EPW45150   0.396   5.320   1.096  0.3039  0.2055 -0.3324
11108WAT      O45151   6.978   5.527   5.155  0.7892 -0.6971  0.0401
11108WAT     H145152   6.919   5.581   5.120 -0.7841 -2.5480 -0.2897
11108WAT     H245153   7.051   5.575   5.156 -0.9410  2.2379  1.8418
11108WAT    EPW45154   6.980   5.542   5.150  0.3012 -0.5370  0.2575
11109WAT      O45155   3.183   2.435   3.892 -0.2736  0.3771 -0.0065
11109WAT     H145156   3.196   2.350   3.910 -0.1792  0.7256  1.7424
11109WAT     H245157   3.123   2.459   3.951 -1.2321  1.2425 -1.3068
11109WAT    EPW45158   3.176   2.426   3.904 -0.4013  0.5564  0.0598
11110WAT      O45159   0.463   6.421   5.908 -0.5996  0.4427  0.2404
11110WAT     H145160   0.515   6.451   5.845 -1.5083 -1.6274 -1.6419
11110WAT     H245161   0.517   6.403   5.973  1.0457 -1.1036 -1.4446
11110WAT    EPW45162   0.478   6.422   5.908 -0.4908 -0.0916 -0.2866
11111WAT      O45163   4.796   2.807   0.708 -0.3157 -0.1317 -0.6583
11111WAT     H145164   4.802   2.758   0.636 -3.4932 -0.6026 -0.7456
11111WAT     H245165   4.718   2.786   0.741 -0.7962  3.0741  0.6511
11111WAT    EPW45166   4.785   2.797   0.702 -0.8560  0.2723 -0.4778
11112WAT      O45167   4.802   0.187   4.227  0.3023  0.1203 -0.2953
11112WAT     H145168   4.740   0.160   4.282  1.9978 -1.3959  1.0088
11112WAT     H245169   4.772   0.164   4.149 -2.2736  2.5003 -0.1628
11112WAT    EPW45170   4.789   0.180   4.224  0.1723  0.2479 -0.0830
11113WAT      O45171   5.909   3.623   7.102  0.8280 -0.1600 -0.6565
11113WAT     H145172   5.867   3.698   7.119 -0.0821 -0.8095  0.0704
11113WAT     H245173   5.987   3.634   7.140  0.5013  0.2137 -0.0714
11113WAT    EPW45174   5.914   3.636   7.110  0.6453 -0.2007 -0.4627
11114WAT      O45175   6.076   3.336   0.217 -0.6710 -0.2808 -0.5040
11114WAT     H145176   6.059   3.371   0.295  2.4202 -1.5767  0.9249
11114WAT     H245177   6.057   3.251   0.228 -0.0985 -0.5011 -1.1263
11114WAT    EPW45178   6.071   3.329   0.230 -0.1298 -0.5047 -0.3849
11115WAT      O45179   3.104   6.299   2.082 -0.0857 -0.0266 -0.1358
11115WAT     H145180   3.099   6.348   2.010  2.5848 -0.5821 -0.8315
11115WAT     H245181   3.139   6.353   2.140 -0.0974 -0.2208  0.0499
11115WAT    EPW45182   3.109   6.315   2.080  0.3071 -0.1373 -0.2112
11116WAT      O45183   4.900   6.069   7.385 -0.0570 -1.0677  0.0757
11116WAT     H145184   4.965   6.123   7.364 -1.4764  1.3936  1.6246
11116WAT     H245185   4.833   6.097   7.338 -1.6101  0.5852  3.0007
11116WAT    EPW45186   4.900   6.081   7.375 -0.4961 -0.4599  0.7366
11117WAT      O45187   5.941   6.331   0.627  0.1153 -0.4507  0.8779
11117WAT     H145188   5.905   6.409   0.612 -0.6973 -0.6710  1.5976
11117WAT     H245189   5.899   6.278   0.573  1.5489 -0.2044 -0.5400
11117WAT    EPW45190   5.930   6.335   0.617  0.2070 -0.4469  0.7748
11118WAT      O45191   2.773   4.530   6.281  0.0536  0.4296 -0.1250
11118WAT     H145192   2.771   4.610   6.315 -1.6594  0.0063  0.9049
11118WAT     H245193   2.858   4.515   6.268  0.4030  2.4633 -0.5208
11118WAT    EPW45194   2.785   4.539   6.284 -0.1478  0.6675 -0.0313
11119WAT      O45195   5.879   2.328   6.106 -0.2154 -0.1752  0.2047
11119WAT     H145196   5.879   2.399   6.157  0.7112 -1.6647  2.4751
11119WAT     H245197   5.797   2.323   6.077 -0.5120  1.3523  0.7001
11119WAT    EPW45198   5.867   2.338   6.109 -0.1223 -0.1696  0.6133
11120WAT      O45199   6.852   6.448   5.294 -0.1178 -0.2407  0.1441
11120WAT     H145200   6.900   6.518   5.315  0.5327 -1.3118  2.5608
11120WAT     H245201   6.777   6.482   5.267  1.1005  1.4258 -1.4180
11120WAT    EPW45202   6.848   6.463   5.293  0.1582 -0.1527  0.2704
11121WAT      O45203   6.406   0.125   0.032 -0.6222  1.0268  0.3983
11121WAT     H145204   6.380   0.047   0.060 -0.7987  0.9393 -0.0055
11121WAT     H245205   6.395   0.177   0.101  1.6579  0.2594  1.4122
11121WAT    EPW45206   6.400   0.121   0.046 -0.3114  0.9005  0.4884
11122WAT      O45207   2.420   2.752   3.928 -0.0096 -0.7381  0.3462
11122WAT     H145208   2.472   2.701   3.879  0.4482  1.6948 -1.9387
11122WAT     H245209   2.477   2.802   3.971 -0.4132  0.4936 -0.5219
11122WAT    EPW45210   2.436   2.752   3.927 -0.0016 -0.1968 -0.1196
11123WAT      O45211   3.132   0.689   5.139  0.1723 -0.0442 -0.9036
11123WAT     H145212   3.162   0.727   5.066  0.6799 -0.9550 -1.1924
11123WAT     H245213   3.046   0.703   5.136  0.3908  1.5286 -0.7173
11123WAT    EPW45214   3.124   0.697   5.128  0.2796  0.0536 -0.9187
11124WAT      O45215   5.619   2.744   3.879  0.5529  0.6794  0.5939
11124WAT     H145216   5.540   2.776   3.865 -0.7234 -1.5121  2.0848
11124WAT     H245217   5.653   2.735   3.799 -1.9808 -1.2375 -0.3991
11124WAT    EPW45218   5.612   2.747   3.865 -0.0099  0.0725  0.6675
11125WAT      O45219   4.072   0.303   5.522  0.3288  0.3315 -0.0709
11125WAT     H145220   3.997   0.318   5.479  0.3918  0.4361 -0.1470
11125WAT     H245221   4.130   0.350   5.477  0.1423  1.6493  1.0022
11125WAT    EPW45222   4.070   0.312   5.509  0.3105  0.5416  0.0764
11126WAT      O45223   5.308   4.538   1.317 -0.0018 -0.2359 -0.8505
11126WAT     H145224   5.255   4.601   1.346  0.9522  0.6835 -1.0540
11126WAT     H245225   5.291   4.471   1.370  0.3288  0.8009  0.6086
11126WAT    EPW45226   5.297   4.537   1.329  0.1879  0.0531 -0.6651
11127WAT      O45227   3.913   1.506   5.508  0.2529 -1.0835 -0.0567
11127WAT     H145228   3.971   1.554   5.552 -0.4238 -0.8808  0.6292
11127WAT     H245229   3.878   1.564   5.452  0.2610 -1.0605 -0.0379
11127WAT    EPW45230   3.916   1.522   5.506  0.1541 -1.0501  0.0474
11128WAT      O45231   7.191   1.401   4.521 -0.1299  0.1586  0.1481
11128WAT     H145232   7.175   1.336   4.465 -1.4461  0.6878 -0.1125
11128WAT     H245233   7.127   1.458   4.506  1.1174  1.6532  0.1973
11128WAT    EPW45234   7.179   1.400   4.510 -0.1401  0.4576  0.1168
11129WAT      O45235   4.453   1.373   0.584 -0.7054 -0.4797  0.1203
11129WAT     H145236   4.476   1.341   0.662 -1.1477  0.0912  0.4944
11129WAT     H245237   4.419   1.304   0.542  2.0086 -1.4898 -0.6417
11129WAT    EPW45238   4.451   1.358   0.589 -0.3698 -0.5446  0.0630
11130WAT      O45239   1.259   6.136   5.670  0.1017  0.2428 -0.1976
11130WAT     H145240   1.209   6.205   5.686  1.3725  1.1507  0.0203
11130WAT     H245241   1.289   6.149   5.589  2.0309  1.0968  0.5870
11130WAT    EPW45242   1.256   6.148   5.661  0.5744  0.5030 -0.0495
11131WAT      O45243   3.744   7.131   6.033  0.6127  0.2672 -0.7705
11131WAT     H145244   3.773   7.082   6.100 -0.1384  0.0275 -0.6073
11131WAT     H245245   3.776   7.090   5.963  0.4064 -0.1722 -0.6113
11131WAT    EPW45246   3.753   7.118   6.033  0.4713  0.1669 -0.7229
11132WAT      O45247   2.870   0.838   3.503  0.5648  0.4992 -0.6193
11132WAT     H145248   2.931   0.785   3.469  2.1601  1.4786  0.5980
11132WAT     H245249   2.861   0.810   3.585  0.2823  1.1521 -0.4211
11132WAT    EPW45250   2.878   0.826   3.510  0.7588  0.7403 -0.4102
11133WAT      O45251   2.039   0.125   5.431 -0.2171  0.4259  0.0543
11133WAT     H145252   2.055   0.198   5.387  1.9915  0.8028  1.3289
11133WAT     H245253   1.973   0.147   5.485  1.1295  1.9024  1.2121
11133WAT    EPW45254   2.032   0.139   5.433  0.3081  0.6997  0.4136
11134WAT      O45255   1.722   4.778   4.910 -0.0642  0.2914  0.3092
11134WAT     H145256   1.773   4.849   4.914  0.5604  0.2621 -3.4364
11134WAT     H245257   1.772   4.719   4.870 -1.1854 -1.7359  1.7060
11134WAT    EPW45258   1.737   4.780   4.904 -0.1376 -0.0124 -0.0378
11135WAT      O45259   7.162   5.426   0.252 -0.2790  0.2185  0.3111
11135WAT     H145260   7.209   5.476   0.306 -1.1803  0.1105  1.2334
11135WAT     H245261   7.086   5.469   0.244 -1.2819 -1.1899  1.5535
11135WAT    EPW45262   7.158   5.440   0.259 -0.5603 -0.0055  0.6309
11136WAT      O45263   2.830   4.850   6.890  0.5483  0.0713 -0.1648
11136WAT     H145264   2.820   4.878   6.808 -1.4381 -0.3719 -0.1375
11136WAT     H245265   2.808   4.920   6.937  1.9345  0.4044  0.0284
11136WAT    EPW45266   2.825   4.865   6.885  0.4596  0.0551 -0.1322
11137WAT      O45267   6.101   3.972   1.587  0.2288 -0.1554 -0.6582
11137WAT     H145268   6.055   3.955   1.515 -0.8225 -1.1313  0.2046
11137WAT     H245269   6.041   4.001   1.643  0.6541 -1.3636  0.4663
11137WAT    EPW45270   6.085   3.973   1.584  0.1363 -0.4781 -0.3647
11138WAT      O45271   2.713   5.299   6.247 -0.2237 -0.0995 -0.0483
11138WAT     H145272   2.780   5.250   6.275  1.7938  1.3231 -2.0636
11138WAT     H245273   2.725   5.303   6.161 -1.1377  2.6926 -0.1330
11138WAT    EPW45274   2.725   5.293   6.238 -0.0607  0.5231 -0.3585
11139WAT      O45275   4.670   6.695   1.579  0.0044  0.0887  0.2204
11139WAT     H145276   4.753   6.692   1.553 -0.3011 -0.0500 -0.7679
11139WAT     H245277   4.646   6.777   1.561  0.1703  0.4072  1.3403
11139WAT    EPW45278   4.679   6.707   1.573 -0.0162  0.1152  0.2398
11140WAT      O45279   6.648   4.146   1.559  0.0882 -0.0200  0.0668
11140WAT     H145280   6.602   4.092   1.507  0.6555  0.2585 -0.7589
11140WAT     H245281   6.589   4.203   1.588 -0.1857  0.0430 -0.5858
11140WAT    EPW45282   6.633   4.146   1.555  0.1315  0.0304 -0.1516
11141WAT      O45283   1.701   6.124   3.112 -0.3230  0.6468 -0.2770
11141WAT     H145284   1.660   6.046   3.110 -0.2366  0.5805 -2.5213
11141WAT     H245285   1.699   6.146   3.196 -2.3402 -0.7576  0.1350
11141WAT    EPW45286   1.694   6.116   3.124 -0.6082  0.4296 -0.5476
11142WAT      O45287   5.424   2.576   2.238  0.0079  0.5917 -0.6453
11142WAT     H145288   5.492   2.608   2.193  0.6611  0.7844  0.4483
11142WAT     H245289   5.448   2.587   2.321 -1.0326 -0.0686 -0.2482
11142WAT    EPW45290   5.438   2.583   2.243 -0.0493  0.5226 -0.4251
11143WAT      O45291   1.814   6.235   0.679  0.2341 -0.1774  0.4292
11143WAT     H145292   1.804   6.279   0.754 -2.0995 -1.0650  0.7291
11143WAT     H245293   1.761   6.276   0.623 -0.1090 -1.1096  0.0393
11143WAT    EPW45294   1.805   6.247   0.682 -0.1613 -0.4462  0.4159
11144WAT      O45295   5.738   6.190   4.549 -0.0914 -0.1445  0.0885
11144WAT     H145296   5.782   6.264   4.567 -0.9162  0.1223  1.0519
11144WAT     H245297   5.656   6.210   4.569 -0.5462 -0.8978 -0.9487
11144WAT    EPW45298   5.733   6.204   4.554 -0.2804 -0.2164  0.0776
11145WAT      O45299   3.367   4.749   0.813 -0.3741 -0.1327  0.0387
11145WAT     H145300   3.445   4.775   0.786 -0.0818  0.8676  1.6916
11145WAT     H245301   3.315   4.762   0.744  0.9144 -1.0115 -1.1543
11145WAT    EPW45302   3.371   4.755   0.799 -0.1406 -0.1148  0.1066
11146WAT      O45303   3.398   6.227   6.004 -0.3736 -0.4832 -0.2002
11146WAT     H145304   3.407   6.291   6.062 -1.3898 -0.6787  0.1997
11146WAT     H245305   3.478   6.194   5.997  0.2450  1.0044 -0.6433
11146WAT    EPW45306   3.411   6.232   6.012 -0.4324 -0.2923 -0.2066
11147WAT      O45307   0.649   2.684   1.685  0.1649  0.4232  0.0429
11147WAT     H145308   0.704   2.681   1.617 -0.9834 -0.4917 -0.8811
11147WAT     H245309   0.698   2.720   1.748  1.0395  2.0616 -1.4465
11147WAT    EPW45310   0.665   2.689   1.684  0.1245  0.5301 -0.3136
11148WAT      O45311   7.263   1.195   4.759  0.1798 -0.5708  0.6550
11148WAT     H145312   7.208   1.260   4.740  0.7031 -0.3657 -0.1758
11148WAT     H245313   7.210   1.127   4.773 -0.3568 -0.0520  1.2153
11148WAT    EPW45314   7.247   1.195   4.759  0.1778 -0.4639  0.6150
11149WAT      O45315   0.115   5.612   6.263 -0.4842 -0.3766 -0.1480
11149WAT     H145316   0.105   5.698   6.278 -0.7315 -0.4660  0.2061
11149WAT     H245317   0.201   5.602   6.258 -0.4398 -0.1651  0.1565
11149WAT    EPW45318   0.126   5.623   6.265 -0.5141 -0.3586 -0.0507
11150WAT      O45319   2.455   6.012   3.641 -0.5970  0.1254  0.2275
11150WAT     H145320   2.499   6.025   3.716  0.7486 -0.9781 -0.3227
11150WAT     H245321   2.462   6.088   3.599  0.6677  0.0359  0.2389
11150WAT    EPW45322   2.462   6.025   3.646 -0.2114 -0.0508  0.1479
11151WAT      O45323   1.189   0.932   5.591 -0.6827  0.1393  0.2226
11151WAT     H145324   1.274   0.947   5.608 -0.8333 -0.2508  1.3752
11151WAT     H245325   1.190   0.856   5.548 -0.5232 -0.5396  1.3779
11151WAT    EPW45326   1.202   0.923   5.587 -0.6814 -0.0186  0.5635
11152WAT      O45327   7.024   5.436   5.975 -0.1135 -0.0526 -0.6483
11152WAT     H145328   7.085   5.492   6.003  0.8673 -1.2010 -0.4218
11152WAT     H245329   6.994   5.473   5.902  0.5249  0.7564 -0.5109
11152WAT    EPW45330   7.029   5.450   5.968  0.1257 -0.1027 -0.5946
11153WAT      O45331   2.719   0.731   0.220 -0.0989  0.1565 -0.5570
11153WAT     H145332   2.732   0.810   0.186  0.6065  0.4456  0.3298
11153WAT     H245333   2.772   0.680   0.174  1.2498  0.6319  0.3991
11153WAT    EPW45334   2.729   0.735   0.208  0.2045  0.2694 -0.2848
11154WAT      O45335   0.316   1.010   3.841  0.0282 -0.3688  0.4040
11154WAT     H145336   0.400   0.998   3.819  0.0641  1.5901 -0.7373
11154WAT     H245337   0.277   1.026   3.765 -1.4765 -1.5351  0.8824
11154WAT    EPW45338   0.323   1.011   3.826 -0.1888 -0.2517  0.3061
11155WAT      O45339   4.831   4.911   1.773 -0.5687  0.3481  0.2347
11155WAT     H145340   4.905   4.956   1.769  0.2522 -0.9613  0.1153
11155WAT     H245341   4.808   4.916   1.857 -0.1382  0.4396  0.3462
11155WAT    EPW45342   4.838   4.918   1.785 -0.3839  0.1682  0.2336
11156WAT      O45343   2.779   1.597   5.486 -0.4842 -0.0750  0.5677
11156WAT     H145344   2.729   1.645   5.433  0.0418  1.2767  1.2630
11156WAT     H245345   2.791   1.523   5.441 -2.4353 -0.1300  0.0489
11156WAT    EPW45346   2.773   1.593   5.471 -0.6947  0.1166  0.5938
11157WAT      O45347   2.288   0.814   6.440 -0.4252  0.2692 -0.6308
11157WAT     H145348   2.317   0.887   6.402 -0.9896  0.2433 -1.1216
11157WAT     H245349   2.307   0.826   6.524 -1.2300  1.3415 -0.5799
11157WAT    EPW45350   2.295   0.827   6.447 -0.6275  0.4237 -0.6957
11158WAT      O45351   6.970   6.691   5.718 -0.2346  0.7496 -0.4154
11158WAT     H145352   6.930   6.717   5.791 -1.7253 -0.9490 -0.5648
11158WAT     H245353   6.974   6.605   5.726  0.8602  0.6427 -1.7257
11158WAT    EPW45354   6.965   6.682   5.730 -0.2931  0.4829 -0.6310
11159WAT      O45355   2.402   0.335   4.420 -0.5419 -0.3371 -0.0464
11159WAT     H145356   2.365   0.306   4.493 -1.2733 -0.8543 -0.6024
11159WAT     H245357   2.359   0.409   4.404 -0.5167 -0.3227 -0.0463
11159WAT    EPW45358   2.390   0.341   4.428 -0.6462 -0.4114 -0.1285
11160WAT      O45359   3.808   2.586   6.035  0.1718  0.1241  0.4624
11160WAT     H145360   3.826   2.536   5.966  0.6533  0.8450  0.0527
11160WAT     H245361   3.791   2.664   6.000  0.1459  0.4341  1.1446
11160WAT    EPW45362   3.808   2.590   6.020  0.2391  0.2764  0.5026
11161WAT      O45363   5.831   6.758   1.555  0.3867 -0.2250  0.6165
11161WAT     H145364   5.835   6.755   1.642  0.9365  0.9896  0.6633
11161WAT     H245365   5.762   6.810   1.539  0.2215 -0.5297  0.3230
11161WAT    EPW45366   5.822   6.765   1.565  0.4435 -0.0906  0.5800
11162WAT      O45367   4.936   1.094   1.327 -0.1670  0.4796  0.0741
11162WAT     H145368   4.935   1.050   1.402 -0.9694  0.2662 -0.0611
11162WAT     H245369   4.950   1.033   1.266 -0.1126  0.5737 -0.0105
11162WAT    EPW45370   4.938   1.079   1.329 -0.2775  0.4620  0.0416
11163WAT      O45371   4.500   6.162   7.154  0.1288  0.0462  0.5990
11163WAT     H145372   4.578   6.189   7.182  0.2996  0.7649 -0.4900
11163WAT     H245373   4.494   6.198   7.074 -1.5223  0.4336  0.8647
11163WAT    EPW45374   4.511   6.172   7.146 -0.0899  0.2096  0.4773
11164WAT      O45375   1.790   5.214   0.250 -0.0261 -0.3180 -0.3108
11164WAT     H145376   1.816   5.131   0.248  0.1941 -0.2373 -1.1856
11164WAT     H245377   1.841   5.253   0.191 -0.2732  0.4019 -0.0661
11164WAT    EPW45378   1.801   5.208   0.241 -0.0300 -0.1997 -0.4039
11165WAT      O45379   0.177   3.168   1.588 -0.2642  0.1133 -0.1270
11165WAT     H145380   0.110   3.155   1.534 -2.3061  1.3257  1.9674
11165WAT     H245381   0.202   3.250   1.569 -0.3398  0.1888  0.0996
11165WAT    EPW45382   0.171   3.178   1.577 -0.5770  0.3035  0.2158
11166WAT      O45383   7.164   4.935   5.778 -0.6266 -0.4891  0.1876
11166WAT     H145384   7.179   4.863   5.825  1.9620 -0.4069 -0.3344
11166WAT     H245385   7.244   4.960   5.752 -1.5780  1.6565 -1.0224
11166WAT    EPW45386   7.178   4.928   5.781 -0.3848 -0.1600 -0.0683
11167WAT      O45387   1.106   3.140   1.809 -0.5227  0.1111  0.0739
11167WAT     H145388   1.042   3.112   1.861 -0.9636  1.6495  0.4146
11167WAT     H245389   1.072   3.133   1.729 -0.0453 -1.7316 -0.0053
11167WAT    EPW45390   1.092   3.135   1.805 -0.5173  0.0662  0.1125
11168WAT      O45391   5.780   3.725   5.926 -0.0659 -0.4038  0.8462
11168WAT     H145392   5.778   3.637   5.929 -1.9191 -0.4118  0.9334
11168WAT     H245393   5.707   3.745   5.883  0.1523  1.1201  1.1241
11168WAT    EPW45394   5.769   3.715   5.920 -0.3074 -0.1799  0.9001
11169WAT      O45395   4.561   6.376   6.067 -0.1964  0.0114 -0.3168
11169WAT     H145396   4.570   6.380   5.980 -0.7729 -0.1304 -0.3848
11169WAT     H245397   4.613   6.310   6.089  0.1368  0.1943 -0.5191
11169WAT    EPW45398   4.570   6.367   6.057 -0.2324  0.0174 -0.3567
11170WAT      O45399   4.163   5.410   3.961  0.4044 -0.2012  0.0734
11170WAT     H145400   4.143   5.359   4.030  2.6151  0.2838  1.1559
11170WAT     H245401   4.230   5.458   3.990  0.8309  0.6560 -2.1625
11170WAT    EPW45402   4.170   5.409   3.976  0.7940 -0.0030 -0.0970
11171WAT      O45403   3.758   4.194   2.720 -0.0420  0.0144  0.0858
11171WAT     H145404   3.795   4.262   2.760 -2.9687  1.7072  0.1891
11171WAT     H245405   3.705   4.161   2.780 -1.6768  0.2200 -1.1727
11171WAT    EPW45406   3.756   4.200   2.735 -0.7158  0.2948 -0.0848
11172WAT      O45407   3.378   5.625   1.250 -0.3755 -0.3806 -0.0093
11172WAT     H145408   3.446   5.606   1.301  1.5117  2.1846 -1.3431
11172WAT     H245409   3.348   5.700   1.283 -1.4665 -0.5883 -0.4849
11172WAT    EPW45410   3.384   5.633   1.262 -0.2579 -0.0323 -0.2766
11173WAT      O45411   0.026   5.404   4.689 -0.0271  0.1988  0.3361
11173WAT     H145412   0.054   5.355   4.622  1.8072 -1.6563  2.2907
11173WAT     H245413   0.072   5.478   4.680  0.1960 -0.0214 -0.4423
11173WAT    EPW45414   0.037   5.408   4.678  0.2768 -0.1078  0.5099
11174WAT      O45415   4.188   5.932   6.209 -0.6692  0.0303  0.1959
11174WAT     H145416   4.230   5.923   6.285 -0.3099  0.5564  0.0709
11174WAT     H245417   4.169   5.850   6.185 -0.2798 -0.1736  0.5741
11174WAT    EPW45418   4.191   5.919   6.217 -0.5586  0.0779  0.2333
11175WAT      O45419   4.520   7.096   3.566 -0.1793  0.6042  0.4261
11175WAT     H145420   4.607   7.083   3.560 -0.1283  1.3545 -0.6521
11175WAT     H245421   4.500   7.057   3.642  0.8173 -1.0764 -0.0969
11175WAT    EPW45422   4.530   7.088   3.576 -0.0246  0.4668  0.1896
11176WAT      O45423   6.503   6.287   5.814  0.2052  0.1782  0.1318
11176WAT     H145424   6.436   6.264   5.762 -0.1740  0.8064  0.3379
11176WAT     H245425   6.487   6.244   5.888 -0.4039  0.9297  0.4521
11176WAT    EPW45426   6.491   6.277   5.817  0.0592  0.3820  0.2096
11177WAT      O45427   4.931   0.537   4.900 -0.6090 -0.1144  0.4985
11177WAT     H145428   5.005   0.519   4.858  0.7959 -0.6016  2.9697
11177WAT     H245429   4.905   0.459   4.930 -1.5100  0.2139  0.5968
11177WAT    EPW45430   4.938   0.522   4.898 -0.5346 -0.1379  0.8781
11178WAT      O45431   6.683   2.632   6.969  0.0667  0.2742 -0.1039
11178WAT     H145432   6.668   2.623   6.883 -0.8825  0.1201  0.0725
11178WAT     H245433   6.726   2.709   6.974  0.0292  0.3393 -0.6988
11178WAT    EPW45434   6.687   2.642   6.957 -0.0791  0.2610 -0.1657
11179WAT      O45435   6.917   2.388   2.348  0.1258 -0.1272  0.2134
11179WAT     H145436   6.914   2.475   2.342  2.3856 -0.0022  0.3980
11179WAT     H245437   6.996   2.367   2.319 -1.0084 -2.3247 -1.7128
11179WAT    EPW45438   6.928   2.398   2.343  0.2920 -0.4333 -0.0439
11180WAT      O45439   4.518   5.201   0.969 -0.5641 -0.0039  0.2746
11180WAT     H145440   4.442   5.162   0.949 -0.4515 -1.2941  2.1319
11180WAT     H245441   4.543   5.160   1.042  2.5137 -0.4016 -0.8804
11180WAT    EPW45442   4.510   5.189   0.977 -0.0928 -0.2532  0.3783
11181WAT      O45443   0.617   2.507   4.491  0.9227 -0.1182  0.0446
11181WAT     H145444   0.659   2.431   4.478 -0.7251 -1.1449  0.3509
11181WAT     H245445   0.677   2.558   4.527  1.6830 -1.8179  1.3374
11181WAT    EPW45446   0.632   2.503   4.495  0.7916 -0.5209  0.2808
11182WAT      O45447   3.683   6.747   7.093  0.0945  0.4507  0.1638
11182WAT     H145448   3.760   6.767   7.059 -0.4656 -0.7402 -2.0172
11182WAT     H245449   3.658   6.820   7.134  1.3394  1.6336 -1.1011
11182WAT    EPW45450   3.691   6.761   7.094  0.1957  0.4496 -0.3452
11183WAT      O45451   1.405   1.542   5.090  0.4412  0.0178  0.3806
11183WAT     H145452   1.329   1.515   5.057  1.0746 -0.4801 -0.7227
11183WAT     H245453   1.419   1.487   5.156  0.9503 -1.3967 -0.8616
11183WAT    EPW45454   1.396   1.530   5.095  0.6100 -0.2647  0.0341
11184WAT      O45455   6.318   4.952   3.860 -0.0856  0.3112 -0.0657
11184WAT     H145456   6.258   4.932   3.919 -0.0552 -1.4794 -0.5761
11184WAT     H245457   6.282   5.019   3.816 -0.3488  1.2828  1.5334
11184WAT    EPW45458   6.304   4.959   3.862 -0.1200  0.1902  0.0951
11185WAT      O45459   2.946   3.316   6.009  0.7843 -0.3888  0.6687
11185WAT     H145460   3.025   3.279   6.008  0.7373 -0.4882  0.6513
11185WAT     H245461   2.910   3.288   5.935  2.4010  3.1822 -1.8007
11185WAT    EPW45462   2.952   3.306   5.998  1.0162  0.1240  0.3013
11186WAT      O45463   5.646   6.644   2.658  0.3429  0.5319  0.2331
11186WAT     H145464   5.730   6.620   2.655 -0.2324 -1.7244  0.5483
11186WAT     H245465   5.605   6.571   2.681 -1.8191  1.3242 -0.8771
11186WAT    EPW45466   5.653   6.630   2.661 -0.0615  0.3156  0.1157
11187WAT      O45467   0.092   5.809   4.898 -0.0183  0.1613 -0.0529
11187WAT     H145468   0.020   5.851   4.874  0.4650  0.8505 -0.3451
11187WAT     H245469   0.144   5.873   4.927  0.3055 -0.3779  0.5632
11187WAT    EPW45470   0.089   5.825   4.898  0.1009  0.1835 -0.0051
11188WAT      O45471   5.058   3.130   4.512 -0.2262  0.0633 -0.2015
11188WAT     H145472   5.101   3.169   4.447 -0.9600 -0.9339 -1.3415
11188WAT     H245473   4.975   3.153   4.499 -0.3103  0.3657  0.7869
11188WAT    EPW45474   5.052   3.139   4.500 -0.3471 -0.0394 -0.2239
11189WAT      O45475   6.330   2.378   4.379  0.4811 -0.3835  0.3479
11189WAT     H145476   6.323   2.335   4.454  0.5023  0.2055  0.6850
11189WAT     H245477   6.320   2.462   4.401  0.1877 -0.2287 -0.3437
11189WAT    EPW45478   6.328   2.384   4.393  0.4409 -0.2737  0.2955
11190WAT      O45479   3.141   3.985   3.831  0.1533  0.0542  0.0543
11190WAT     H145480   3.133   3.980   3.918 -1.1693  0.7503 -0.0047
11190WAT     H245481   3.059   3.978   3.803  0.4418  1.0249 -1.0762
11190WAT    EPW45482   3.128   3.983   3.840  0.0005  0.3004 -0.1214
11191WAT      O45483   0.209   1.158   5.881 -0.4301  0.4821 -0.1367
11191WAT     H145484   0.169   1.101   5.828 -1.1007  1.0159 -0.2247
11191WAT     H245485   0.292   1.155   5.855 -0.6829  0.4681 -1.0004
11191WAT    EPW45486   0.215   1.149   5.869 -0.5665  0.5589 -0.2773
11192WAT      O45487   0.220   0.774   4.462 -0.3795 -0.1023 -0.2579
11192WAT     H145488   0.293   0.746   4.499 -0.7676  0.7477  1.2028
11192WAT     H245489   0.196   0.841   4.511 -0.8587  1.1759 -2.1293
11192WAT    EPW45490   0.227   0.780   4.474 -0.5076  0.2121 -0.3186
11193WAT      O45491   0.058   5.841   0.659 -0.4440 -0.0179  0.3046
11193WAT     H145492   0.088   5.821   0.580 -0.0364 -1.3209  0.7698
11193WAT     H245493   0.098   5.916   0.678  0.2880 -0.2512 -0.2794
11193WAT    EPW45494   0.068   5.849   0.650 -0.2757 -0.2448  0.2871
11194WAT      O45495   4.995   0.900   4.853  0.2709  0.1975 -0.0261
11194WAT     H145496   5.079   0.878   4.852  0.6378  1.5181 -0.2366
11194WAT     H245497   4.981   0.923   4.936  0.0948 -0.0933  0.0256
11194WAT    EPW45498   5.005   0.900   4.865  0.2991  0.3496 -0.0496
11195WAT      O45499   3.118   3.379   0.957  0.0379 -0.0458  0.1492
11195WAT     H145500   3.190   3.371   1.006  0.4798  0.3759 -0.4049
11195WAT     H245501   3.111   3.465   0.945  0.0721 -0.1505 -0.6964
11195WAT    EPW45502   3.128   3.391   0.962  0.1082  0.0010 -0.0576
11196WAT      O45503   1.884   7.223   4.620  0.3691 -0.0994  0.2514
11196WAT     H145504   1.945   7.165   4.643 -1.0770 -0.7638  2.9083
11196WAT     H245505   1.820   7.173   4.587 -0.8019 -0.0993  2.3611
11196WAT    EPW45506   1.884   7.207   4.618 -0.0175 -0.1975  0.9555
11197WAT      O45507   5.263   6.878   5.949 -0.1742 -0.3552 -0.0490
11197WAT     H145508   5.197   6.825   5.969 -0.7430 -0.7146 -2.4808
11197WAT     H245509   5.334   6.829   5.961 -0.5210 -0.8248  0.1268
11197WAT    EPW45510   5.264   6.863   5.954 -0.3094 -0.4777 -0.3823
11198WAT      O45511   5.218   6.361   3.575 -0.9330 -0.4354  0.1410
11198WAT     H145512   5.240   6.334   3.495 -0.1185 -0.1479  0.2510
11198WAT     H245513   5.187   6.441   3.562  0.1447  0.0125  0.2021
11198WAT    EPW45514   5.217   6.369   3.561 -0.6535 -0.3268  0.1663
11199WAT      O45515   3.856   3.059   2.282  0.5431  0.2124  0.0800
11199WAT     H145516   3.807   2.990   2.302  0.4505 -0.1230 -1.2159
11199WAT     H245517   3.936   3.034   2.304  0.2193  0.5757  1.7479
11199WAT    EPW45518   3.860   3.045   2.288  0.4816  0.2165  0.1350
11200WAT      O45519   5.688   1.198   6.972  0.4425 -0.2410  0.1387
11200WAT     H145520   5.602   1.196   6.984  0.2475  0.5311 -1.0186
11200WAT     H245521   5.720   1.207   7.053 -0.5585 -0.3484  0.5552
11200WAT    EPW45522   5.680   1.199   6.986  0.2658 -0.1428  0.0293
11201WAT      O45523   3.106   0.614   3.539  0.2711  0.1439 -0.6829
11201WAT     H145524   3.084   0.667   3.605 -1.7721 -0.1704 -1.0442
11201WAT     H245525   3.190   0.633   3.524 -0.3950  3.3854 -0.9242
11201WAT    EPW45526   3.115   0.624   3.547 -0.1292  0.5763 -0.7719
11202WAT      O45527   4.152   0.430   4.399  0.0770  0.5642 -0.3441
11202WAT     H145528   4.154   0.510   4.363  0.5461  0.4253 -0.6262
11202WAT     H245529   4.172   0.445   4.482  3.1065  0.4330 -0.9432
11202WAT    EPW45530   4.155   0.444   4.406  0.5938  0.5243 -0.4743
11203WAT      O45531   0.871   3.700   3.753 -0.2730 -0.4427 -0.1709
11203WAT     H145532   0.859   3.713   3.668 -1.4908 -0.1691  0.0237
11203WAT     H245533   0.860   3.614   3.763 -0.1254 -0.4757 -0.2883
11203WAT    EPW45534   0.868   3.689   3.742 -0.4311 -0.4071 -0.1595
11204WAT      O45535   2.575   5.309   0.237 -0.1512 -0.0250  0.3332
11204WAT     H145536   2.622   5.375   0.206 -2.1463  0.5783 -1.6810
11204WAT     H245537   2.514   5.348   0.286 -0.4951 -0.4916  0.2927
11204WAT    EPW45538   2.573   5.324   0.240 -0.4967 -0.0048  0.0297
11205WAT      O45539   6.736   3.599   4.479 -0.1431 -0.2025  0.6415
11205WAT     H145540   6.708   3.517   4.468  0.7397 -0.7060  1.8733
11205WAT     H245541   6.814   3.589   4.516  0.3023  1.2020  0.1197
11205WAT    EPW45542   6.743   3.585   4.483  0.0531 -0.0694  0.7464
11206WAT      O45543   4.036   2.790   3.428  0.4238 -0.1969 -0.1355
11206WAT     H145544   4.013   2.846   3.364 -0.3633  1.2288  1.3193
11206WAT     H245545   4.097   2.740   3.390  1.1755  1.6445 -1.5371
11206WAT    EPW45546   4.042   2.791   3.413  0.4186  0.2857 -0.1276
11207WAT      O45547   0.176   2.221   0.122 -0.3600 -0.0995 -0.4325
11207WAT     H145548   0.252   2.263   0.135 -0.7980  1.4144 -2.3666
11207WAT     H245549   0.130   2.276   0.073 -2.2818 -1.4915 -0.2957
11207WAT    EPW45550   0.181   2.236   0.117 -0.7086 -0.0815 -0.6980
11208WAT      O45551   3.548   6.449   4.607 -0.2850  0.0302 -0.3975
11208WAT     H145552   3.533   6.532   4.629 -0.1633  0.3654 -1.4850
11208WAT     H245553   3.509   6.442   4.529 -0.4830 -1.0046 -0.2221
11208WAT    EPW45554   3.540   6.460   4.599 -0.2963 -0.0732 -0.5322
11209WAT      O45555   7.099   5.704   3.209 -0.3817  0.3379 -0.0769
11209WAT     H145556   7.071   5.754   3.143  2.5013  2.5320  0.1744
11209WAT     H245557   7.029   5.698   3.260 -2.3135 -0.2693 -2.5853
11209WAT    EPW45558   7.084   5.711   3.207 -0.2412  0.5723 -0.4104
11210WAT      O45559   1.106   5.338   1.249 -0.3132  0.2754  0.0472
11210WAT     H145560   1.156   5.289   1.196 -0.4266  1.9759 -1.7585
11210WAT     H245561   1.158   5.405   1.269 -1.0354  0.7890  0.2412
11210WAT    EPW45562   1.121   5.341   1.244 -0.4366  0.6024 -0.1909
11211WAT      O45563   4.317   2.622   0.024 -0.5222  0.1419  0.1226
11211WAT     H145564   4.251   2.596  -0.026 -0.2694  1.6872 -1.1207
11211WAT     H245565   4.386   2.580  -0.010 -0.5380  0.2312 -0.0197
11211WAT    EPW45566   4.318   2.612   0.011 -0.4872  0.3834 -0.0821
11212WAT      O45567   0.924   0.195   5.116 -0.0938  0.4488  0.0837
11212WAT     H145568   0.918   0.272   5.155 -0.3782  2.3071 -3.2516
11212WAT     H245569   0.997   0.201   5.068 -2.3677  0.6908 -3.8055
11212WAT    EPW45570   0.934   0.207   5.115 -0.4717  0.7591 -0.9835
11213WAT      O45571   1.803   2.715   5.983 -0.4891 -0.4825  0.0334
11213WAT     H145572   1.783   2.799   5.997  0.6291 -0.4248  1.4985
11213WAT     H245573   1.733   2.684   5.942 -1.2199  0.9855  0.0912
11213WAT    EPW45574   1.790   2.723   5.979 -0.4319 -0.2571  0.2584
11214WAT      O45575   2.170   3.082   2.621 -0.3271 -0.0244 -0.2081
11214WAT     H145576   2.166   3.159   2.579  0.5366  1.2520  1.8720
11214WAT     H245577   2.203   3.028   2.562  1.6258  1.8719 -1.0109
11214WAT    EPW45578   2.174   3.086   2.606  0.0889  0.4443 -0.0194
11215WAT      O45579   5.687   3.891   0.679  0.4725 -0.1870  0.4170
11215WAT     H145580   5.631   3.868   0.741 -0.7639 -1.4604 -1.0973
11215WAT     H245581   5.656   3.967   0.650  1.3425  0.6736  1.6264
11215WAT    EPW45582   5.674   3.899   0.684  0.4184 -0.2480  0.3719
11216WAT      O45583   2.266   1.533   1.833 -0.2708  0.8932 -0.2983
11216WAT     H145584   2.295   1.556   1.754  0.7325  0.4152 -0.0869
11216WAT     H245585   2.251   1.609   1.872 -1.0416  1.1362 -1.0337
11216WAT    EPW45586   2.268   1.547   1.827 -0.2364  0.8585 -0.3757
11217WAT      O45587   2.607   2.898   6.786 -0.2420  0.1179 -0.5003
11217WAT     H145588   2.641   2.910   6.707 -0.6217  0.4664 -0.6160
11217WAT     H245589   2.588   2.813   6.788  0.8596 -0.1400 -0.3340
11217WAT    EPW45590   2.609   2.888   6.774 -0.1354  0.1313 -0.4928
11218WAT      O45591   1.729   3.367   0.314  0.2928 -0.4138  0.6738
11218WAT     H145592   1.731   3.434   0.370  0.0103  1.5207 -1.4734
11218WAT     H245593   1.787   3.389   0.253 -0.8683 -1.3716 -0.8726
11218WAT    EPW45594   1.738   3.380   0.313  0.0796 -0.2695  0.1282
11219WAT      O45595   4.677   6.576   6.206 -0.1623  0.0336 -0.0891
11219WAT     H145596   4.621   6.574   6.273  0.3754 -1.4437  0.3585
11219WAT     H245597   4.644   6.518   6.150 -0.1293  0.6095 -0.7234
11219WAT    EPW45598   4.664   6.567   6.207 -0.0780 -0.0996 -0.1167
11220WAT      O45599   6.165   4.642   6.722 -0.8916 -0.5880 -0.3537
11220WAT     H145600   6.187   4.592   6.790 -1.5298  0.3062  0.5648
11220WAT     H245601   6.106   4.697   6.757 -0.5442  0.4938 -1.4147
11220WAT    EPW45602   6.159   4.643   6.737 -0.9345 -0.2961 -0.3747
11221WAT      O45603   0.162   0.916   0.874 -0.2311  0.1509  0.3532
11221WAT     H145604   0.080   0.906   0.848  0.1746 -0.8699 -0.5865
11221WAT     H245605   0.200   0.959   0.808  0.3824 -0.8939  0.0000
11221WAT    EPW45606   0.156   0.921   0.861 -0.0806 -0.1543  0.1622
11222WAT      O45607   7.165   2.527   6.314  0.2166 -0.2862  0.3981
11222WAT     H145608   7.123   2.462   6.354 -0.4515 -0.3533 -0.3981
11222WAT     H245609   7.103   2.565   6.267  0.7937  0.3904  0.1704
11222WAT    EPW45610   7.150   2.523   6.313  0.2031 -0.1961  0.2469
11223WAT      O45611   6.034   5.257   4.716  0.0335 -0.1486 -0.8607
11223WAT     H145612   6.042   5.309   4.785  0.6745 -1.9717  0.5187
11223WAT     H245613   6.097   5.198   4.728 -0.1785 -0.8203 -2.7444
11223WAT    EPW45614   6.044   5.256   4.728  0.0968 -0.5172 -0.9352
11224WAT      O45615   1.727   1.322   0.244 -0.0357  0.0176  0.6659
11224WAT     H145616   1.668   1.280   0.194 -0.3172  2.6101 -1.3904
11224WAT     H245617   1.802   1.284   0.223 -0.2238  0.6893 -1.4501
11224WAT    EPW45618   1.729   1.310   0.234 -0.1050  0.4998  0.0496
11225WAT      O45619   3.411   3.640   3.441 -0.4260  0.0831  0.6723
11225WAT     H145620   3.324   3.649   3.443 -0.4629 -0.3647  2.4341
11225WAT     H245621   3.429   3.591   3.511  1.3322  0.9027  0.8641
11225WAT    EPW45622   3.401   3.634   3.451 -0.1717  0.1380  0.9609
11226WAT      O45623   0.258   3.869   1.686 -0.5526 -0.1069  0.2644
11226WAT     H145624   0.302   3.923   1.738  0.1804  0.0709 -0.4987
11226WAT     H245625   0.261   3.909   1.608  0.5062 -1.4741 -0.4535
11226WAT    EPW45626   0.265   3.883   1.682 -0.2879 -0.2826  0.0456
11227WAT      O45627   5.650   3.774   6.193  0.3646  0.3706  0.7198
11227WAT     H145628   5.706   3.763   6.127 -0.1054  1.0630  0.1888
11227WAT     H245629   5.587   3.715   6.176  0.6791 -0.0637  1.0436
11227WAT    EPW45630   5.649   3.763   6.181  0.3416  0.4087  0.6892
11228WAT      O45631   6.447   1.558   3.941  0.6471  0.0120 -0.2948
11228WAT     H145632   6.421   1.501   3.881 -0.7288  1.1643 -0.8591
11228WAT     H245633   6.385   1.620   3.939  1.2145  0.7111  1.4369
11228WAT    EPW45634   6.434   1.559   3.932  0.5277  0.2855 -0.1223
11229WAT      O45635   4.603   0.044   0.136  0.1280 -0.2739 -0.2928
11229WAT     H145636   4.657   0.101   0.174 -0.1316  1.0986 -1.8822
11229WAT     H245637   4.654  -0.024   0.119  0.4692 -0.5293  1.5436
11229WAT    EPW45638   4.618   0.042   0.139  0.1400 -0.1089 -0.2563
11230WAT      O45639   4.880   3.382   2.083 -0.4300  0.3630  0.2499
11230WAT     H145640   4.840   3.313   2.118  0.7196 -0.1729  0.5707
11230WAT     H245641   4.936   3.346   2.026  1.9409  0.7818  2.1352
11230WAT    EPW45642   4.882   3.366   2.080  0.0900  0.3457  0.5758
11231WAT      O45643   6.729   1.429   1.322  0.2020  0.3632 -0.2748
11231WAT     H145644   6.778   1.428   1.394  1.0725  1.5793 -0.8177
11231WAT     H245645   6.714   1.344   1.307  0.5188  0.0592  0.9756
11231WAT    EPW45646   6.734   1.416   1.330  0.3774  0.4979 -0.1703
11232WAT      O45647   2.961   1.086   4.293 -0.2339 -0.3744  0.0791
11232WAT     H145648   2.885   1.108   4.256  0.9514  1.7474 -1.3186
11232WAT     H245649   2.965   1.000   4.283 -1.6076 -0.3048 -1.5323
11232WAT    EPW45650   2.951   1.077   4.286 -0.2617 -0.0507 -0.3654
11233WAT      O45651   5.886   1.737   5.548 -0.1601  0.1769  0.2133
11233WAT     H145652   5.825   1.769   5.601 -1.8400  1.2816 -2.1845
11233WAT     H245653   5.958   1.779   5.571 -0.4899 -0.3762  2.4456
11233WAT    EPW45654   5.887   1.748   5.559 -0.4570  0.2584  0.1888
11234WAT      O45655   3.672   5.122   0.642  0.0298 -0.0875  0.3511
11234WAT     H145656   3.631   5.104   0.567 -0.0872  0.1438  0.3567
11234WAT     H245657   3.622   5.184   0.678 -0.3961 -0.8179  1.0430
11234WAT    EPW45658   3.659   5.129   0.636 -0.0504 -0.1612  0.4541
11235WAT      O45659   0.056   3.921   0.543 -0.2260 -0.0429 -0.0795
11235WAT     H145660   0.029   4.004   0.547 -0.5196 -0.1412  0.0465
11235WAT     H245661   0.039   3.890   0.623  1.4349  0.2320  0.4128
11235WAT    EPW45662   0.049   3.929   0.556 -0.0240 -0.0168  0.0118
11236WAT      O45663   5.405   3.935   7.171 -0.7844  0.3506  0.0209
11236WAT     H145664   5.362   3.977   7.234 -1.0936 -0.3646  0.2967
11236WAT     H245665   5.392   3.984   7.100  0.8249  2.0122  0.7763
11236WAT    EPW45666   5.397   3.949   7.170 -0.5923  0.4904  0.1732
11237WAT      O45667   3.415   3.403   7.122 -0.5729 -0.1757  0.1282
11237WAT     H145668   3.492   3.365   7.137 -0.3963 -0.7821 -2.0245
11237WAT     H245669   3.365   3.338   7.094 -1.3085  0.5538 -0.2825
11237WAT    EPW45670   3.419   3.388   7.120 -0.6555 -0.1575 -0.2504
11238WAT      O45671   6.486   0.526   3.096  0.9581 -0.0428  0.3425
11238WAT     H145672   6.490   0.602   3.055  2.2189 -0.4093 -0.2520
11238WAT     H245673   6.406   0.497   3.078  0.4041  1.1921  0.7076
11238WAT    EPW45674   6.475   0.533   3.087  1.0625  0.0854  0.3086
11239WAT      O45675   1.062   6.873   0.943  0.1648  0.0974 -0.3655
11239WAT     H145676   1.131   6.926   0.934 -0.3146  0.5725 -1.4054
11239WAT     H245677   1.094   6.806   0.989  1.7109 -0.3689 -1.9978
11239WAT    EPW45678   1.077   6.871   0.948  0.3223  0.0987 -0.7602
11240WAT      O45679   6.473   5.175   3.956  0.2884  0.2450  0.2400
11240WAT     H145680   6.543   5.140   3.995 -0.2896 -0.0673  1.0223
11240WAT     H245681   6.438   5.107   3.914 -0.1445  0.1542  0.7410
11240WAT    EPW45682   6.479   5.160   3.956  0.1391  0.1855  0.4296
11241WAT      O45683   2.887   6.615   0.646 -0.3738 -0.2734  0.3782
11241WAT     H145684   2.838   6.557   0.689 -1.6532 -0.0890 -0.7583
11241WAT     H245685   2.935   6.565   0.592  0.8205 -0.4626  1.5749
11241WAT    EPW45686   2.887   6.599   0.644 -0.3864 -0.2741  0.3871
11242WAT      O45687   7.161   2.462   2.680 -0.1473  0.1782 -0.7029
11242WAT     H145688   7.076   2.483   2.685 -0.0547  0.2323  1.2749
11242WAT     H245689   7.160   2.379   2.654 -0.6850  0.8361 -3.0598
11242WAT    EPW45690   7.148   2.453   2.677 -0.2130  0.2834 -0.7589
11243WAT      O45691   5.579   5.651   5.943  0.3997 -0.4246 -0.3933
11243WAT     H145692   5.591   5.720   5.891  1.3847 -0.5243 -0.3195
11243WAT     H245693   5.505   5.669   5.985  0.9776  0.9208  0.1243
11243WAT    EPW45694   5.570   5.664   5.942  0.6306 -0.2406 -0.3060
11244WAT      O45695   1.684   0.452   5.869 -0.0864 -0.1472  0.4144
11244WAT     H145696   1.634   0.453   5.941 -2.1545  1.8961 -0.9179
11244WAT     H245697   1.721   0.531   5.869 -2.0486  0.8842 -1.9201
11244WAT    EPW45698   1.682   0.463   5.880 -0.6817  0.3070 -0.1273
11245WAT      O45699   6.925   4.323   7.224  0.9302 -0.5630  0.0313
11245WAT     H145700   6.939   4.404   7.253  3.3873 -1.1851  0.8123
11245WAT     H245701   6.971   4.273   7.280 -0.1937 -2.4652 -0.6596
11245WAT    EPW45702   6.934   4.327   7.237  1.1271 -0.9359  0.0446
11246WAT      O45703   0.907   5.495   4.083  0.2168  0.0382  0.1406
11246WAT     H145704   0.968   5.518   4.141  0.2095  0.8870 -0.1729
11246WAT     H245705   0.950   5.445   4.026  0.4885  0.1495  0.2472
11246WAT    EPW45706   0.922   5.491   4.083  0.2558  0.1800  0.1100
11247WAT      O45707   2.171   5.607   3.388  0.1532 -0.1371  0.2632
11247WAT     H145708   2.256   5.620   3.396 -0.2520  2.2035  1.5050
11247WAT     H245709   2.140   5.621   3.469 -1.4850 -0.2438 -0.3074
11247WAT    EPW45710   2.179   5.611   3.401 -0.1487  0.1929  0.3623
11248WAT      O45711   3.937   1.370   2.005 -0.3718 -0.2528  0.0778
11248WAT     H145712   4.020   1.343   2.005 -0.3112 -0.0635  0.4893
11248WAT     H245713   3.924   1.392   1.921 -0.5340 -1.8692 -0.3628
11248WAT    EPW45714   3.947   1.369   1.992 -0.3868 -0.4636  0.0735
11249WAT      O45715   5.795   1.479   4.581  0.6005 -0.3388 -0.2068
11249WAT     H145716   5.721   1.490   4.626  0.7421 -0.3219  0.0227
11249WAT     H245717   5.803   1.554   4.537  1.4235  0.4220  1.1494
11249WAT    EPW45718   5.785   1.492   4.581  0.7430 -0.2239  0.0274
11250WAT      O45719   5.479   5.991   1.691  0.2701  0.4622 -0.3536
11250WAT     H145720   5.540   5.978   1.751 -1.4733  0.8490  1.5968
11250WAT     H245721   5.520   6.039   1.631  1.5289  1.8397  1.5008
11250WAT    EPW45722   5.494   5.996   1.691  0.1985  0.7229  0.2084
11251WAT      O45723   5.045   1.282   3.730  0.0327 -0.0563  0.0158
11251WAT     H145724   5.040   1.310   3.648  0.0321 -1.2732 -0.4291
11251WAT     H245725   4.969   1.306   3.766 -0.4847 -0.5827 -0.7072
11251WAT    EPW45726   5.033   1.290   3.723 -0.0438 -0.3138 -0.1567
11252WAT      O45727   1.187   6.584   5.516  0.1554  0.0857  0.0281
11252WAT     H145728   1.262   6.565   5.474 -0.2815 -0.4204 -0.5460
11252WAT     H245729   1.132   6.602   5.451  0.3773  2.9079  0.5032
11252WAT    EPW45730   1.190   6.584   5.500  0.1236  0.4279  0.0135
11253WAT      O45731   3.488   6.257   2.193  0.1495  0.5515 -0.4562
11253WAT     H145732   3.469   6.193   2.250  1.7132 -0.7013 -1.2741
11253WAT     H245733   3.560   6.293   2.225  0.0927  0.9597 -0.7774
11253WAT    EPW45734   3.496   6.253   2.206  0.3721  0.4267 -0.6245
11254WAT      O45735   6.208   4.232   2.918 -0.2481  0.3503 -0.1603
11254WAT     H145736   6.274   4.283   2.892 -0.3838  0.2231 -0.7775
11254WAT     H245737   6.140   4.285   2.921 -0.1828  0.4149  0.1649
11254WAT    EPW45738   6.208   4.247   2.914 -0.2585  0.3410 -0.2034
11255WAT      O45739   6.701   0.661   5.349 -0.2709 -0.4125 -0.3614
11255WAT     H145740   6.717   0.730   5.400 -1.0492  0.3656 -1.1374
11255WAT     H245741   6.763   0.603   5.373  0.2048  0.4254  0.5137
11255WAT    EPW45742   6.713   0.663   5.360 -0.3156 -0.1738 -0.3468
11256WAT      O45743   0.383   6.374   4.080  0.0148  0.0048 -0.5555
11256WAT     H145744   0.323   6.352   4.140  1.4340  2.2758  1.8956
11256WAT     H245745   0.336   6.416   4.020 -1.1045  0.1680  0.3918
11256WAT    EPW45746   0.367   6.377   4.080  0.0591  0.3644 -0.0535
11257WAT      O45747   0.371   4.392   1.933 -0.6040  0.7893 -0.5080
11257WAT     H145748   0.331   4.372   1.858  0.1300 -1.4457 -0.3663
11257WAT     H245749   0.412   4.467   1.915 -0.3792  0.2606 -2.3671
11257WAT    EPW45750   0.371   4.400   1.919 -0.4623  0.3810 -0.7617
11258WAT      O45751   1.600   1.612   5.907 -0.4602 -0.3797 -0.2027
11258WAT     H145752   1.630   1.619   5.988  1.0934 -1.1725 -0.6584
11258WAT     H245753   1.569   1.691   5.889  0.2853  0.1423  0.7444
11258WAT    EPW45754   1.600   1.625   5.916 -0.1206 -0.4197 -0.1301
11259WAT      O45755   5.156   3.642   1.128 -0.2282 -0.5492 -0.5838
11259WAT     H145756   5.164   3.635   1.042 -0.7246 -0.7487 -0.6175
11259WAT     H245757   5.235   3.667   1.154 -0.2220  0.0535 -1.1502
11259WAT    EPW45758   5.169   3.644   1.119 -0.3006 -0.4896 -0.6724
11260WAT      O45759   4.227   1.303   5.960 -0.6754 -0.4335  0.3331
11260WAT     H145760   4.294   1.270   5.914  0.4735  1.6185  0.4236
11260WAT     H245761   4.160   1.298   5.905  0.2151  0.1172 -0.8382
11260WAT    EPW45762   4.227   1.297   5.945 -0.3742 -0.0490  0.1734
11261WAT      O45763   5.891   6.873   5.140 -0.6727 -0.2673 -0.3058
11261WAT     H145764   5.961   6.925   5.130  0.5558 -1.7086  0.3382
11261WAT     H245765   5.830   6.925   5.173  0.4291  0.8136  0.0748
11261WAT    EPW45766   5.893   6.888   5.143 -0.3285 -0.3206 -0.1545
11262WAT      O45767   5.031   4.236   3.805 -0.7201  0.1951 -0.2965
11262WAT     H145768   4.960   4.199   3.772 -0.3021  0.1860 -1.2335
11262WAT     H245769   5.032   4.210   3.888 -1.0785 -0.9102 -0.6260
11262WAT    EPW45770   5.021   4.227   3.813 -0.7113  0.0305 -0.4836
11263WAT      O45771   5.161   3.373   0.541  0.2529  0.5021  0.0654
11263WAT     H145772   5.183   3.449   0.503 -1.4618  1.6680  1.2621
11263WAT     H245773   5.082   3.388   0.573  0.5936 -1.2196  1.9245
11263WAT    EPW45774   5.153   3.386   0.540  0.0499  0.4200  0.5168
11264WAT      O45775   0.817   7.191   1.923  0.9452 -0.6127  0.1977
11264WAT     H145776   0.862   7.184   1.998  0.5665  0.5320  0.5390
11264WAT     H245777   0.815   7.109   1.893  3.5527 -0.6893 -0.0059
11264WAT    EPW45778   0.824   7.178   1.930  1.2744 -0.4549  0.2181
11265WAT      O45779   1.880   0.193   2.681  0.5370 -0.3140  0.1862
11265WAT     H145780   1.799   0.160   2.690  0.4650 -0.4518 -0.8516
11265WAT     H245781   1.910   0.194   2.763  0.1311 -1.9321  0.4019
11265WAT    EPW45782   1.872   0.188   2.695  0.4664 -0.5734  0.0648
11266WAT      O45783   4.783   5.937   6.042  0.0898  0.0381  0.0951
11266WAT     H145784   4.856   5.896   6.066  0.3665  0.4276 -0.0621
11266WAT     H245785   4.810   5.991   5.979 -0.1071  1.0320  0.8333
11266WAT    EPW45786   4.798   5.939   6.037  0.1015  0.2425  0.1809
11267WAT      O45787   1.719   3.681   1.687  0.2277 -0.5711  0.1676
11267WAT     H145788   1.700   3.660   1.605  1.6099  0.4723 -0.4456
11267WAT     H245789   1.656   3.737   1.710 -0.1410 -0.8417 -0.1775
11267WAT    EPW45790   1.706   3.686   1.679  0.3774 -0.4569  0.0260
11268WAT      O45791   4.217   3.281   2.855 -0.6066 -0.3228  0.9899
11268WAT     H145792   4.280   3.283   2.794  0.6266  0.0978  2.2059
11268WAT     H245793   4.155   3.233   2.819  0.6645 -1.2635 -0.0587
11268WAT    EPW45794   4.217   3.274   2.841 -0.2366 -0.3996  1.0146
11269WAT      O45795   1.846   5.951   0.734 -0.3581 -0.1946  0.0165
11269WAT     H145796   1.902   5.941   0.801 -1.9215  1.5887  1.6929
11269WAT     H245797   1.830   6.037   0.733 -0.4507 -0.1580 -2.6659
11269WAT    EPW45798   1.852   5.962   0.744 -0.6028  0.0742 -0.1321
11270WAT      O45799   4.394   1.910   2.774  0.9703  0.0481  0.1006
11270WAT     H145800   4.319   1.903   2.818  0.9006  0.7475  0.1039
11270WAT     H245801   4.387   1.848   2.713  0.5371 -0.1187  0.3136
11270WAT    EPW45802   4.382   1.900   2.771  0.8960  0.1268  0.1326
11271WAT      O45803   5.867   5.872   1.270 -0.7106 -0.2150  0.2273
11271WAT     H145804   5.839   5.803   1.225  2.2479 -0.3838 -1.6785
11271WAT     H245805   5.911   5.918   1.211 -0.1339  1.7827  2.0873
11271WAT    EPW45806   5.870   5.868   1.255 -0.1884  0.0552  0.2205
11272WAT      O45807   6.311   5.605   5.871 -0.5523 -0.1178  0.2041
11272WAT     H145808   6.253   5.599   5.806 -0.9333 -0.3546  0.5651
11272WAT     H245809   6.284   5.546   5.929  1.4871 -2.1116 -0.7040
11272WAT    EPW45810   6.298   5.596   5.870 -0.3073 -0.4473  0.1233
11273WAT      O45811   1.528   0.349   4.061 -0.3266  0.9008 -0.5287
11273WAT     H145812   1.574   0.421   4.076 -0.5013  0.9734 -0.3385
11273WAT     H245813   1.495   0.329   4.139  1.2015 -0.4217 -0.1424
11273WAT    EPW45814   1.530   0.357   4.075 -0.1267  0.7161 -0.4435
11274WAT      O45815   2.399   6.150   0.717 -0.0813 -0.7171  0.0050
11274WAT     H145816   2.433   6.213   0.667 -0.1585 -0.8383 -0.2018
11274WAT     H245817   2.461   6.089   0.719  0.1229 -0.5016  0.4673
11274WAT    EPW45818   2.413   6.151   0.710 -0.0625 -0.7032  0.0427
11275WAT      O45819   0.321   5.340   5.831  0.2952  0.0635  0.0923
11275WAT     H145820   0.398   5.304   5.810 -0.9787 -2.2563 -0.9971
11275WAT     H245821   0.328   5.356   5.916  1.9395 -0.1449  0.0264
11275WAT    EPW45822   0.333   5.337   5.840  0.3499 -0.3100 -0.0783
11276WAT      O45823   4.585   3.773   5.800  0.0449  0.5289 -0.1279
11276WAT     H145824   4.559   3.842   5.752  0.8059 -0.2979 -1.7960
11276WAT     H245825   4.616   3.810   5.873 -0.2006  1.9135 -0.6888
11276WAT    EPW45826   4.585   3.789   5.804  0.1211  0.6113 -0.4572
11277WAT      O45827   5.396   4.582   4.287 -0.7682  0.3641 -0.3566
11277WAT     H145828   5.440   4.642   4.241  1.4861 -0.1631  0.9555
11277WAT     H245829   5.358   4.629   4.350  0.5350  0.5509  0.3397
11277WAT    EPW45830   5.397   4.598   4.289 -0.2427  0.3138 -0.0600
11278WAT      O45831   0.897   2.186   0.354 -0.5424  0.2110  0.4929
11278WAT     H145832   0.951   2.131   0.313  0.5547  1.9390 -0.4949
11278WAT     H245833   0.936   2.200   0.431  0.0072  0.8440  0.0999
11278WAT    EPW45834   0.911   2.180   0.359 -0.2992  0.5598  0.2889
11279WAT      O45835   3.295   0.958   6.413  0.4385  0.5715 -0.1190
11279WAT     H145836   3.216   0.960   6.451  0.5425  0.3232  0.1130
11279WAT     H245837   3.318   0.874   6.420  1.3209  0.8849  1.0420
11279WAT    EPW45838   3.287   0.946   6.420  0.5842  0.5811  0.0868
11280WAT      O45839   4.275   3.814   5.838  0.1067  0.3314  0.5621
11280WAT     H145840   4.288   3.794   5.922  2.8970 -0.7732  0.0020
11280WAT     H245841   4.315   3.891   5.829  1.7997 -0.5520 -0.0973
11280WAT    EPW45842   4.283   3.822   5.849  0.7690  0.0377  0.3820
11281WAT      O45843   6.784   5.982   5.541  0.2249 -0.3697 -0.1517
11281WAT     H145844   6.819   5.934   5.477  2.8142 -0.3669  1.1256
11281WAT     H245845   6.815   6.062   5.525  2.4613 -0.7012  2.0025
11281WAT    EPW45846   6.794   5.987   5.529  0.9378 -0.4183  0.3552
11282WAT      O45847   7.145   2.187   6.105 -0.1238 -0.0863 -0.1566
11282WAT     H145848   7.154   2.101   6.100 -1.0033 -0.2876  1.1913
11282WAT     H245849   7.149   2.213   6.022  0.8936 -1.3205 -0.5380
11282WAT    EPW45850   7.147   2.178   6.092 -0.1035 -0.2983 -0.0138
11283WAT      O45851   0.755   1.805   6.466 -0.4510  0.6271 -0.4710
11283WAT     H145852   0.743   1.731   6.422 -0.1404  0.0854  0.3324
11283WAT     H245853   0.681   1.814   6.511 -0.2095  0.4318 -0.0331
11283WAT    EPW45854   0.742   1.796   6.466 -0.3694  0.5183 -0.2877
11284WAT      O45855   1.700   2.280   0.097  0.1893 -0.2153 -0.0086
11284WAT     H145856   1.776   2.321   0.108  0.2367 -0.6794  1.5223
11284WAT     H245857   1.646   2.323   0.150 -0.6808  0.2024 -1.1857
11284WAT    EPW45858   1.703   2.292   0.106  0.0678 -0.2222  0.0437
11285WAT      O45859   0.677   6.862   5.284 -0.2995  0.1525  0.3793
11285WAT     H145860   0.669   6.776   5.273  0.9401  0.2768 -1.9522
11285WAT     H245861   0.677   6.894   5.203 -0.0566  2.2995  1.1555
11285WAT    EPW45862   0.676   6.854   5.270 -0.0805  0.4880  0.1495
11286WAT      O45863   2.251   1.503   0.790 -0.1673  0.2073 -0.4023
11286WAT     H145864   2.224   1.420   0.794 -0.4985  0.3469  2.6934
11286WAT     H245865   2.199   1.544   0.846  0.8306  2.2803 -0.8986
11286WAT    EPW45866   2.239   1.497   0.799 -0.0688  0.5342 -0.0183
11287WAT      O45867   5.345   4.483   7.054 -0.1773  0.4270 -0.0981
11287WAT     H145868   5.377   4.482   6.973  0.8681  0.0525  0.3022
11287WAT     H245869   5.354   4.566   7.079 -0.5707  0.5583 -0.3902
11287WAT    EPW45870   5.351   4.495   7.045 -0.0810  0.3911 -0.0821
11288WAT      O45871   4.889   5.538   6.058  0.4905  0.1628  0.2230
11288WAT     H145872   4.895   5.477   5.995  0.4325  1.0773 -0.7025
11288WAT     H245873   4.852   5.495   6.124 -0.9878 -0.4702 -0.9272
11288WAT    EPW45874   4.884   5.522   6.058  0.2636  0.2044 -0.0836
11289WAT      O45875   2.810   2.154   3.436 -0.3555  0.1241  0.1853
11289WAT     H145876   2.838   2.074   3.455  0.5498  0.3226 -0.2352
11289WAT     H245877   2.805   2.154   3.349  1.2731  1.0021  0.0463
11289WAT    EPW45878   2.813   2.143   3.426  0.0188  0.2831  0.1027
11290WAT      O45879   5.502   0.632   2.823 -0.2233 -0.0212  0.8056
11290WAT     H145880   5.521   0.567   2.878  2.8779  0.2056  0.1716
11290WAT     H245881   5.464   0.691   2.875  0.3660 -0.8157  2.2180
11290WAT    EPW45882   5.499   0.631   2.839  0.3218 -0.1050  0.9205
11291WAT      O45883   5.016   4.286   6.941  0.0128  0.1561  0.2246
11291WAT     H145884   4.938   4.268   6.906  0.4377 -2.6193  0.4749
11291WAT     H245885   4.996   4.313   7.022 -0.7271  1.0682 -0.2462
11291WAT    EPW45886   5.002   4.287   6.948 -0.0337 -0.1192  0.1920
11292WAT      O45887   6.345   0.872   2.047  0.0843 -0.2084 -0.0904
11292WAT     H145888   6.430   0.849   2.046  0.0955 -0.1691 -0.0097
11292WAT     H245889   6.307   0.810   1.999  0.1127 -0.4012  0.1349
11292WAT    EPW45890   6.352   0.859   2.040  0.0902 -0.2311 -0.0452
11293WAT      O45891   3.258   5.834   3.564 -0.0472 -0.2090 -0.0314
11293WAT     H145892   3.184   5.829   3.609  0.5324 -0.2441  0.9353
11293WAT     H245893   3.236   5.803   3.485 -1.1267  0.0824  0.1390
11293WAT    EPW45894   3.244   5.829   3.559 -0.1211 -0.1712  0.1365
11294WAT      O45895   2.823   2.879   5.964  0.5295  0.1606  0.2872
11294WAT     H145896   2.794   2.861   6.043  1.2792  0.5112  0.6611
11294WAT     H245897   2.910   2.877   5.973  0.6591  2.1602 -0.0261
11294WAT    EPW45898   2.832   2.876   5.977  0.6594  0.5077  0.2961
11295WAT      O45899   2.301   6.418   5.848 -0.4954 -0.3572 -0.2878
11295WAT     H145900   2.297   6.379   5.770  2.6099  0.1164 -0.8005
11295WAT     H245901   2.317   6.352   5.903  1.5989 -0.2484 -0.7110
11295WAT    EPW45902   2.303   6.402   5.845  0.2727 -0.2711 -0.4260
11296WAT      O45903   5.639   3.940   3.939  0.2442 -0.5959  0.7360
11296WAT     H145904   5.681   4.011   3.969 -2.6139  1.0814  1.0570
11296WAT     H245905   5.603   3.906   4.010  0.4716 -1.6159  0.3742
11296WAT    EPW45906   5.640   3.946   3.954 -0.1444 -0.4988  0.7300
11297WAT      O45907   5.949   0.635   2.221 -1.1064  0.3729 -0.2976
11297WAT     H145908   5.956   0.662   2.304  0.0543  0.4030 -0.3833
11297WAT     H245909   5.977   0.705   2.175  0.7045 -0.4765 -0.5805
11297WAT    EPW45910   5.954   0.650   2.226 -0.6674  0.2519 -0.3520
11298WAT      O45911   1.491   5.300   5.697 -0.0784 -0.0193 -0.3324
11298WAT     H145912   1.507   5.242   5.760  0.7401  1.1904  0.6265
11298WAT     H245913   1.496   5.377   5.738 -2.6820  0.7339 -1.1961
11298WAT    EPW45914   1.494   5.303   5.712 -0.3421  0.2706 -0.3184
11299WAT      O45915   7.172   1.945   0.222 -0.5867 -0.2157  0.3321
11299WAT     H145916   7.219   1.989   0.163 -1.9612  1.3718  0.3471
11299WAT     H245917   7.127   2.007   0.263 -1.2284 -1.4884  1.6446
11299WAT    EPW45918   7.172   1.961   0.219 -0.8845 -0.1692  0.5282
11300WAT      O45919   2.884   1.748   1.378  0.2634  0.0895 -0.7110
11300WAT     H145920   2.896   1.770   1.295 -0.2339 -1.9711 -1.3711
11300WAT     H245921   2.895   1.662   1.379  1.6625  0.1899  1.6387
11300WAT    EPW45922   2.887   1.739   1.366  0.3966 -0.2000 -0.4614
11301WAT      O45923   4.393   5.296   6.362  0.0684 -0.1693  0.1872
11301WAT     H145924   4.389   5.283   6.276 -1.4906 -0.0026  0.1967
11301WAT     H245925   4.357   5.224   6.396  0.7732 -0.2841  0.7084
11301WAT    EPW45926   4.387   5.284   6.354 -0.0578 -0.1616  0.2656
11302WAT      O45927   4.929   6.188   6.581  0.3075 -0.2987  1.0502
11302WAT     H145928   4.906   6.232   6.509 -0.0803  0.2148  1.4798
11302WAT     H245929   4.914   6.105   6.559  2.9377 -0.4773 -0.4950
11302WAT    EPW45930   4.923   6.183   6.567  0.6388 -0.2493  0.8854
11303WAT      O45931   0.544   2.276   5.829 -0.3655 -0.2715  0.3814
11303WAT     H145932   0.502   2.336   5.781 -0.9814 -1.7889 -1.0782
11303WAT     H245933   0.628   2.292   5.814 -0.5425 -0.4399 -0.9134
11303WAT    EPW45934   0.550   2.287   5.820 -0.4826 -0.5205 -0.0255
11304WAT      O45935   2.900   3.000   0.353  0.0158  0.6758  0.1426
11304WAT     H145936   2.962   3.060   0.357  0.4028  0.2702  0.3457
11304WAT     H245937   2.918   2.955   0.281 -1.3675  1.9598 -1.0608
11304WAT    EPW45938   2.912   3.002   0.343 -0.1314  0.8055 -0.0052
11305WAT      O45939   2.343   6.450   3.546 -0.2771  0.3126 -0.0311
11305WAT     H145940   2.327   6.531   3.516 -1.0654  0.1140 -0.1633
11305WAT     H245941   2.342   6.461   3.632 -0.0013  0.5123 -0.0499
11305WAT    EPW45942   2.341   6.464   3.554 -0.3528  0.3128 -0.0534
11306WAT      O45943   2.296   6.083   5.257 -0.2622  0.0673 -0.4791
11306WAT     H145944   2.294   6.062   5.342 -0.2747 -1.4589 -0.8256
11306WAT     H245945   2.293   6.006   5.217  1.1701  0.6729 -1.8605
11306WAT    EPW45946   2.295   6.068   5.263 -0.0525 -0.0687 -0.7343
11307WAT      O45947   5.805   5.132   4.368  0.3855  0.1197  0.2274
11307WAT     H145948   5.822   5.215   4.390  0.2375  0.2712 -0.2033
11307WAT     H245949   5.853   5.086   4.423 -0.3562  0.4608  1.1828
11307WAT    EPW45950   5.815   5.138   4.379  0.2541  0.1925  0.3049
11308WAT      O45951   2.156   3.755   1.917 -0.5018 -0.0281 -0.0973
11308WAT     H145952   2.169   3.674   1.947  0.0160  0.9889  2.7557
11308WAT     H245953   2.092   3.785   1.968 -0.0290  1.6524 -0.4485
11308WAT    EPW45954   2.149   3.747   1.929 -0.3555  0.3704  0.2722
11309WAT      O45955   6.041   2.779   4.430  0.0989  0.0418 -0.3865
11309WAT     H145956   6.031   2.855   4.472 -0.3024  0.2058 -0.7730
11309WAT     H245957   5.972   2.732   4.456 -0.0914  0.1045 -0.7790
11309WAT    EPW45958   6.029   2.783   4.440  0.0115  0.0753 -0.5015
11310WAT      O45959   1.964   0.551   7.000  0.0141  0.0588 -0.7820
11310WAT     H145960   1.902   0.589   6.952  0.8082  1.8149 -0.5224
11310WAT     H245961   2.014   0.511   6.941 -0.2398  0.3628 -1.2063
11310WAT    EPW45962   1.962   0.551   6.984  0.0939  0.3632 -0.8064
11311WAT      O45963   5.245   1.068   6.627 -0.0502 -0.0367 -0.1588
11311WAT     H145964   5.266   1.024   6.555 -0.7658 -0.6156 -0.0220
11311WAT     H245965   5.182   1.020   6.664  0.7105 -0.0674  1.1660
11311WAT    EPW45966   5.239   1.055   6.622 -0.0435 -0.1267  0.0571
11312WAT      O45967   4.408   2.116   4.528  0.1585 -0.1624  0.2573
11312WAT     H145968   4.399   2.033   4.503  0.2293 -0.0708 -0.0767
11312WAT     H245969   4.341   2.129   4.582 -1.7682  0.4702 -2.0933
11312WAT    EPW45970   4.397   2.106   4.532 -0.1157 -0.0554 -0.1393
11313WAT      O45971   6.478   1.291   1.869 -0.3980  0.3484 -0.1737
11313WAT     H145972   6.506   1.330   1.796 -0.1894  1.8853  0.6707
11313WAT     H245973   6.548   1.295   1.922 -0.2247 -1.6382 -0.1870
11313WAT    EPW45974   6.493   1.297   1.866 -0.3416  0.2820 -0.0509
11314WAT      O45975   3.832   6.993   1.868 -0.5228 -0.0147  0.1231
11314WAT     H145976   3.778   7.050   1.905 -0.4605 -0.8168  1.5424
11314WAT     H245977   3.785   6.960   1.802 -1.3033  0.2297  0.5426
11314WAT    EPW45978   3.817   6.996   1.864 -0.6289 -0.0970  0.3947
11315WAT      O45979   4.382   7.198   0.694  0.1968  0.0887 -0.5027
11315WAT     H145980   4.424   7.232   0.625  0.6230 -1.2851 -0.9491
11315WAT     H245981   4.299   7.220   0.680  0.4444  0.8629 -0.8102
11315WAT    EPW45982   4.376   7.206   0.682  0.2963  0.0001 -0.6141
11316WAT      O45983   3.621   3.009   0.466 -0.3917 -0.3658 -0.0999
11316WAT     H145984   3.627   3.032   0.382 -0.3026 -1.8807 -0.5453
11316WAT     H245985   3.630   3.084   0.509  2.5132  0.1296 -1.3323
11316WAT    EPW45986   3.623   3.024   0.460  0.0505 -0.5164 -0.3478
11317WAT      O45987   1.361   3.029   6.604  0.2145  0.1727 -0.3814
11317WAT     H145988   1.387   2.999   6.682  0.4624  0.1852 -0.4598
11317WAT     H245989   1.319   3.103   6.623  0.0015  0.0176 -0.2304
11317WAT    EPW45990   1.358   3.035   6.619  0.2196  0.1516 -0.3707
11318WAT      O45991   0.942   4.469   3.090 -0.8349 -0.3829 -0.4696
11318WAT     H145992   0.893   4.464   3.019 -0.5527 -1.6109 -0.6096
11318WAT     H245993   0.891   4.437   3.153 -1.1452  0.8603 -0.0744
11318WAT    EPW45994   0.927   4.463   3.089 -0.8391 -0.3806 -0.4319
11319WAT      O45995   3.136   6.208   2.653 -0.1185 -0.3189  0.4152
11319WAT     H145996   3.208   6.252   2.675  0.1139 -0.7610  0.5374
11319WAT     H245997   3.149   6.129   2.686 -0.3757 -0.5939 -0.1352
11319WAT    EPW45998   3.148   6.203   2.661 -0.1222 -0.4248  0.3520
11320WAT      O45999   3.560   0.240   4.735  0.2901 -0.0694  0.3745
11320WAT     H146000   3.619   0.180   4.757 -0.6567 -1.3081 -0.2697
11320WAT     H246001   3.484   0.203   4.760 -0.1572  2.0430  2.4464
11320WAT    EPW46002   3.557   0.225   4.742  0.0842  0.0597  0.5854
11321WAT      O46003   3.428   6.995   5.012 -0.7005 -0.0069  0.2937
11321WAT     H146004   3.456   7.052   4.952  0.1585  1.3500  1.9014
11321WAT     H246005   3.463   7.024   5.086 -0.5359 -2.4369  1.2706
11321WAT    EPW46006   3.438   7.008   5.014 -0.5493 -0.1654  0.6755
11322WAT      O46007   4.198   2.174   6.088 -0.3349 -0.0038  0.1923
11322WAT     H146008   4.185   2.240   6.143 -2.1499 -0.1309 -0.0105
11322WAT     H246009   4.214   2.213   6.012  1.7562  0.1688  0.6612
11322WAT    EPW46010   4.198   2.190   6.085 -0.2941  0.0029  0.2316
11323WAT      O46011   1.854   3.896   7.113 -0.1308 -0.3239 -1.1112
11323WAT     H146012   1.882   3.870   7.035 -1.2380 -0.8281 -1.3464
11323WAT     H246013   1.903   3.849   7.168  0.6781  0.0564 -1.4800
11323WAT    EPW46014   1.865   3.885   7.110 -0.1748 -0.3422 -1.2004
11324WAT      O46015   0.060   3.504   4.763  0.3968 -0.1867  0.1228
11324WAT     H146016   0.007   3.447   4.723  0.2343  0.5498 -0.7252
11324WAT     H246017   0.105   3.453   4.819 -0.7515 -0.9131  0.4224
11324WAT    EPW46018   0.059   3.488   4.766  0.2032 -0.1852  0.0418
11325WAT      O46019   2.936   1.156   0.812  0.8245  0.4949 -0.8118
11325WAT     H146020   3.010   1.125   0.846  0.3298  0.6447  0.4685
11325WAT     H246021   2.882   1.087   0.814  0.0306  1.1003  1.1073
11325WAT    EPW46022   2.939   1.141   0.818  0.6341  0.6065 -0.3392
11326WAT      O46023   6.912   3.260   3.933  0.4991 -0.0732  0.7469
11326WAT     H146024   6.938   3.205   3.871 -0.9982 -0.8891  0.7963
11326WAT     H246025   6.827   3.269   3.918  0.7566  2.5992  0.4940
11326WAT    EPW46026   6.903   3.253   3.922  0.3160  0.2010  0.7168
11327WAT      O46027   1.858   2.117   7.248  0.3757  0.9177 -0.2013
11327WAT     H146028   1.945   2.110   7.253  0.2850 -0.2236  0.1563
11327WAT     H246029   1.834   2.117   7.332  0.0624  1.8777 -0.2831
11327WAT    EPW46030   1.867   2.116   7.261  0.3161  0.8910 -0.1605
11328WAT      O46031   4.129   0.649   3.566 -0.1264  0.6644  0.2822
11328WAT     H146032   4.158   0.635   3.647  0.9007 -0.2853 -0.2300
11328WAT     H246033   4.076   0.718   3.575 -0.0371  0.5706  1.7538
11328WAT    EPW46034   4.125   0.657   3.580  0.0385  0.5103  0.4239
11329WAT      O46035   2.196   1.593   3.633  0.0899 -0.6672 -0.5445
11329WAT     H146036   2.126   1.639   3.608 -0.0630 -0.8568 -0.4690
11329WAT     H246037   2.179   1.575   3.716  0.5479 -0.1265 -0.3238
11329WAT    EPW46038   2.183   1.597   3.641  0.1350 -0.6153 -0.5007
11330WAT      O46039   1.534   1.799   6.316  0.1580 -0.0445 -0.1060
11330WAT     H146040   1.542   1.768   6.397 -1.6652 -0.0561  0.1119
11330WAT     H246041   1.566   1.735   6.266  2.1781  0.3456  0.6125
11330WAT    EPW46042   1.539   1.785   6.320  0.1871  0.0114  0.0323
11331WAT      O46043   4.222   1.269   1.871  0.1525 -0.1635  0.1071
11331WAT     H146044   4.212   1.203   1.815  1.5669 -1.1087  0.9001
11331WAT     H246045   4.221   1.340   1.820 -1.2391 -0.7707 -0.7843
11331WAT    EPW46046   4.221   1.270   1.855  0.1558 -0.3928  0.0926
11332WAT      O46047   1.471   4.148   7.308  0.7297 -0.1093  0.4148
11332WAT     H146048   1.510   4.081   7.268  1.9660 -0.4926  2.1556
11332WAT     H246049   1.519   4.217   7.284  0.8875 -0.1967  0.4787
11332WAT    EPW46050   1.483   4.148   7.299  0.9356 -0.1788  0.6814
11333WAT      O46051   2.129   6.210   0.276 -0.1097 -0.2000 -0.0563
11333WAT     H146052   2.102   6.195   0.358 -1.6608  0.5423 -0.3812
11333WAT     H246053   2.096   6.143   0.231 -0.0838 -0.1075 -0.2129
11333WAT    EPW46054   2.120   6.198   0.281 -0.3350 -0.0767 -0.1274
11334WAT      O46055   6.235   5.934   5.276  0.0172 -0.1732  0.4219
11334WAT     H146056   6.315   5.901   5.283 -0.8076 -2.2360  0.8064
11334WAT     H246057   6.195   5.905   5.348 -1.1462  0.6578  0.1371
11334WAT    EPW46058   6.241   5.925   5.288 -0.2765 -0.3552  0.4366
11335WAT      O46059   2.750   1.918   6.514  0.6833  0.2826  0.3390
11335WAT     H146060   2.761   1.843   6.558 -0.1245  0.7532  1.3816
11335WAT     H246061   2.817   1.967   6.541  0.8430  0.1715  0.1505
11335WAT    EPW46062   2.762   1.914   6.524  0.5875  0.3357  0.4652
11336WAT      O46063   1.355   5.108   3.225 -0.1804 -0.5064  0.3076
11336WAT     H146064   1.295   5.080   3.282 -1.8838  0.6322 -0.8467
11336WAT     H246065   1.316   5.099   3.148  0.6293  1.4759 -0.3860
11336WAT    EPW46066   1.340   5.102   3.222 -0.3124 -0.0453  0.0346
11337WAT      O46067   4.693   6.290   0.334 -0.3518 -0.5747  0.1184
11337WAT     H146068   4.645   6.271   0.405 -1.4809 -3.8952 -1.3221
11337WAT     H246069   4.763   6.239   0.342  1.5853  1.9672  0.6579
11337WAT    EPW46070   4.696   6.280   0.346 -0.2325 -0.6897 -0.0147
11338WAT      O46071   4.382   1.772   4.218 -0.2789 -0.2013  0.5820
11338WAT     H146072   4.409   1.846   4.180 -2.3697  0.5244  0.3581
11338WAT     H246073   4.327   1.738   4.159  0.1936 -1.6453  0.9390
11338WAT    EPW46074   4.378   1.778   4.203 -0.5179 -0.3074  0.6017
11339WAT      O46075   0.271   4.269   2.799  0.0903 -0.0289  0.3596
11339WAT     H146076   0.273   4.221   2.726 -1.1119 -0.9865  0.9126
11339WAT     H246077   0.187   4.286   2.810  0.2477  0.0969  1.5204
11339WAT    EPW46078   0.259   4.264   2.790 -0.0640 -0.1518  0.6127
11340WAT      O46079   3.721   5.327   1.458  0.1632  0.3305  0.0763
11340WAT     H146080   3.796   5.282   1.456 -0.4139 -0.6454 -0.4252
11340WAT     H246081   3.668   5.277   1.506  0.3286  1.8784  1.9694
11340WAT    EPW46082   3.724   5.313   1.465  0.1024  0.4150  0.2819
11341WAT      O46083   0.469   4.657   0.836  0.2264 -0.1120  0.1247
11341WAT     H146084   0.417   4.610   0.784 -0.4394 -0.4190  1.0442
11341WAT     H246085   0.529   4.688   0.781 -1.3331  0.8839 -1.1344
11341WAT    EPW46086   0.470   4.655   0.820 -0.1023 -0.0102  0.0745
11342WAT      O46087   1.184   0.370   1.314 -0.6088 -0.5303  0.4227
11342WAT     H146088   1.169   0.373   1.400 -1.6221 -0.2345  0.2573
11342WAT     H246089   1.230   0.296   1.303  1.1382  0.3589  1.4127
11342WAT    EPW46090   1.188   0.359   1.325 -0.5004 -0.3552  0.5445
11343WAT      O46091   1.533   5.506   5.164  0.4082  0.2127 -0.8161
11343WAT     H146092   1.539   5.590   5.188  0.9577  0.5312 -2.0104
11343WAT     H246093   1.614   5.476   5.177 -0.5013 -1.1452  2.9807
11343WAT    EPW46094   1.546   5.514   5.170  0.3550  0.0591 -0.4316
11344WAT      O46095   2.847   0.060   2.769  0.0259 -0.0006  0.5130
11344WAT     H146096   2.841   0.135   2.726 -1.8015  0.1229  0.9004
11344WAT     H246097   2.862   0.084   2.851  1.3860 -0.1603  0.3332
11344WAT    EPW46098   2.849   0.074   2.774 -0.0432 -0.0059  0.5437
11345WAT      O46099   2.995   2.982   0.870 -0.1715  0.0136 -0.2032
11345WAT     H146100   2.954   3.021   0.937 -0.4905 -1.2814  0.4051
11345WAT     H246101   2.931   2.968   0.813 -0.2184 -0.2907 -0.0812
11345WAT    EPW46102   2.979   2.986   0.872 -0.2256 -0.2226 -0.0953
11346WAT      O46103   2.533   3.697   3.052  0.0834  0.0643  0.5058
11346WAT     H146104   2.480   3.668   3.114 -0.5050  0.3186  0.1323
11346WAT     H246105   2.593   3.743   3.095 -0.2299  0.1056  0.8969
11346WAT    EPW46106   2.534   3.700   3.067 -0.0498  0.1080  0.5084
11347WAT      O46107   3.448   2.513   3.597  0.5089 -0.0921  0.2482
11347WAT     H146108   3.419   2.540   3.519  1.3057  0.4430  0.1248
11347WAT     H246109   3.509   2.572   3.618 -0.6485  0.5952  1.9384
11347WAT    EPW46110   3.452   2.526   3.589  0.4556  0.0885  0.4796
11348WAT      O46111   3.418   0.785   3.096 -0.4001  0.1582 -0.1346
11348WAT     H146112   3.364   0.818   3.036 -0.3804  0.9040  0.2463
11348WAT     H246113   3.393   0.701   3.103 -1.4479  0.4686 -0.0274
11348WAT    EPW46114   3.407   0.777   3.088 -0.5519  0.3143 -0.0625
11349WAT      O46115   6.999   1.238   3.684  0.2086  0.1594 -0.5369
11349WAT     H146116   7.063   1.286   3.718 -0.9608  1.9203 -0.7122
11349WAT     H246117   7.010   1.249   3.598 -0.1443  0.2165 -0.5741
11349WAT    EPW46118   7.010   1.247   3.676 -0.0163  0.4280 -0.5683
11350WAT      O46119   5.765   6.398   5.875 -0.0743 -0.6604  0.1612
11350WAT     H146120   5.762   6.436   5.954  1.9770  0.3237 -0.1667
11350WAT     H246121   5.801   6.320   5.891  1.7510  0.1178  0.0679
11350WAT    EPW46122   5.770   6.392   5.889  0.4984 -0.4001  0.0990
11351WAT      O46123   0.533   6.997   1.913 -0.1009  0.1068 -0.1537
11351WAT     H146124   0.530   6.922   1.958  0.9798 -0.0791 -0.3591
11351WAT     H246125   0.582   7.049   1.964  0.2987  0.2195 -0.6435
11351WAT    EPW46126   0.540   6.994   1.928  0.1178  0.0960 -0.2564
11352WAT      O46127   6.462   6.893   6.788 -0.4775 -0.4610  0.1482
11352WAT     H146128   6.445   6.892   6.873  2.5621 -0.8573  0.8530
11352WAT     H246129   6.445   6.976   6.765  1.8328  0.6251  1.9634
11352WAT    EPW46130   6.457   6.905   6.797  0.3128 -0.3591  0.5204
11353WAT      O46131   2.260   5.073   0.155  0.5580  0.1496  0.7061
11353WAT     H146132   2.216   5.030   0.093  1.7123  1.3277 -1.0397
11353WAT     H246133   2.343   5.054   0.139  0.9896  1.7219  0.8620
11353WAT    EPW46134   2.266   5.064   0.143  0.7922  0.5559  0.4712
11354WAT      O46135   6.990   1.679   0.609  0.2422 -0.2203 -0.2817
11354WAT     H146136   7.039   1.714   0.546  0.4454  0.3692  0.1907
11354WAT     H246137   7.029   1.602   0.625 -0.2686 -0.7342 -1.3976
11354WAT    EPW46138   7.003   1.673   0.602  0.1967 -0.2091 -0.3768
11355WAT      O46139   0.529   6.912   3.494 -0.4030  0.0777  0.3410
11355WAT     H146140   0.538   6.982   3.442 -0.0158  0.3347  0.7519
11355WAT     H246141   0.443   6.907   3.505 -0.5404 -0.2977 -0.7508
11355WAT    EPW46142   0.518   6.922   3.488 -0.3661  0.0602  0.2404
11356WAT      O46143   0.269   2.917   5.657 -0.4737 -0.1053 -0.3964
11356WAT     H146144   0.353   2.921   5.635  0.5826 -2.4536  2.4778
11356WAT     H246145   0.237   2.856   5.605 -0.2381  0.2728 -0.9985
11356WAT    EPW46146   0.277   2.909   5.646 -0.2828 -0.3963 -0.0607
11357WAT      O46147   5.338   3.202   6.945  0.2848  0.2471  0.4224
11357WAT     H146148   5.286   3.246   6.890  1.6549  1.2137 -0.1627
11357WAT     H246149   5.282   3.153   6.991 -0.9140 -1.1576 -2.2699
11357WAT    EPW46150   5.322   3.201   6.944  0.3101  0.1824 -0.0617
11358WAT      O46151   6.462   1.524   2.077  0.6433  0.1291  0.3823
11358WAT     H146152   6.406   1.501   2.014  1.1793  1.5045 -0.6326
11358WAT     H246153   6.410   1.538   2.146 -0.3727  1.8642 -0.6653
11358WAT    EPW46154   6.446   1.522   2.078  0.5724  0.5886  0.0776
11359WAT      O46155   6.565   4.635   6.304 -0.2969  0.2082 -0.0509
11359WAT     H146156   6.538   4.583   6.239 -1.1182  1.1744 -0.5048
11359WAT     H246157   6.517   4.609   6.372 -0.9275  0.5607 -0.3532
11359WAT    EPW46158   6.554   4.623   6.305 -0.5114  0.4030 -0.1626
11360WAT      O46159   4.767   4.877   3.373 -0.5900  0.4598 -0.0176
11360WAT     H146160   4.701   4.934   3.371 -1.5231 -0.5822  0.1806
11360WAT     H246161   4.748   4.826   3.441 -0.7899 -1.2357 -1.2677
11360WAT    EPW46162   4.755   4.878   3.383 -0.7574  0.0554 -0.1730
11361WAT      O46163   7.145   4.769   3.791  0.5848  0.5260 -0.6420
11361WAT     H146164   7.109   4.805   3.862  1.0170  0.3361 -0.3288
11361WAT     H246165   7.080   4.720   3.758  0.9160 -0.8171  0.6124
11361WAT    EPW46166   7.130   4.767   3.796  0.6976  0.2995 -0.4105
11362WAT      O46167   0.967   2.846   7.189 -0.3932  0.2070 -0.1673
11362WAT     H146168   1.016   2.783   7.155 -1.5437 -1.1003  0.4921
11362WAT     H246169   0.892   2.806   7.210 -0.5281  1.3595  1.9397
11362WAT    EPW46170   0.963   2.831   7.187 -0.5831  0.1841  0.2413
11363WAT      O46171   2.066   4.966   7.382 -0.1905 -0.3496 -0.0850
11363WAT     H146172   2.014   4.972   7.452 -0.0088 -1.2327  0.1378
11363WAT     H246173   2.051   4.885   7.352  0.2021 -0.2018 -0.6961
11363WAT    EPW46174   2.056   4.955   7.388 -0.1057 -0.4582 -0.1423
11364WAT      O46175   2.849   6.988   1.128  0.0805 -0.4962  0.5969
11364WAT     H146176   2.904   6.974   1.062 -0.6304  0.4096 -0.2186
11364WAT     H246177   2.900   7.014   1.193  0.6059  0.4864 -0.1932
11364WAT    EPW46178   2.864   6.990   1.128  0.0531 -0.2173  0.3597
11365WAT      O46179   0.377   1.837   5.187  0.4548  0.6738  0.3239
11365WAT     H146180   0.385   1.905   5.134 -0.3972  1.3055  0.9840
11365WAT     H246181   0.327   1.782   5.142  0.6177  0.7465  0.0496
11365WAT    EPW46182   0.371   1.839   5.173  0.3530  0.7778  0.3809
11366WAT      O46183   1.573   5.216   2.932 -0.3518  0.2066 -0.1850
11366WAT     H146184   1.549   5.132   2.938 -0.0707  0.0994 -0.5118
11366WAT     H246185   1.582   5.228   2.846  1.0267  0.1618 -0.0624
11366WAT    EPW46186   1.571   5.205   2.920 -0.1066  0.1842 -0.2152
11367WAT      O46187   5.990   0.281   5.815 -0.6676  0.0193  0.3004
11367WAT     H146188   5.969   0.331   5.747 -0.6838  0.8453  0.9105
11367WAT     H246189   5.922   0.290   5.869  0.3304  1.1194  1.4010
11367WAT    EPW46190   5.977   0.290   5.813 -0.5226  0.3038  0.5531
11368WAT      O46191   2.107   6.697   1.913  0.2046  0.1652  0.2628
11368WAT     H146192   2.173   6.687   1.857  0.2297 -1.6644  0.5724
11368WAT     H246193   2.036   6.688   1.863  0.1740  1.3391  0.0689
11368WAT    EPW46194   2.106   6.694   1.897  0.2038  0.0684  0.2799
11369WAT      O46195   0.338   5.209   5.048  0.0541 -0.3879 -0.1323
11369WAT     H146196   0.379   5.262   5.104  0.3826 -0.8507  0.0666
11369WAT     H246197   0.375   5.229   4.971 -0.9454  0.8094 -0.3356
11369WAT    EPW46198   0.350   5.220   5.045 -0.0450 -0.2794 -0.1329
11370WAT      O46199   0.673   0.745   4.054  0.0578  0.2367 -0.5443
11370WAT     H146200   0.595   0.720   4.082  1.1208 -1.4813  1.1183
11370WAT     H246201   0.676   0.830   4.073 -1.1027  0.1506  0.0727
11370WAT    EPW46202   0.662   0.754   4.061  0.0434 -0.0298 -0.2076
11371WAT      O46203   2.110   3.120   0.867 -0.2504  0.0377  0.1450
11371WAT     H146204   2.040   3.170   0.858 -1.5848 -1.6360  0.6089
11371WAT     H246205   2.123   3.087   0.787 -0.1660  0.1370  0.1180
11371WAT    EPW46206   2.102   3.122   0.854 -0.4351 -0.1948  0.2096
11372WAT      O46207   2.479   3.468   1.436 -0.2337 -0.0463  0.2675
11372WAT     H146208   2.458   3.440   1.516  0.7770 -1.7519 -0.0120
11372WAT     H246209   2.566   3.474   1.438 -0.3446  2.4968  0.0585
11372WAT    EPW46210   2.488   3.464   1.448 -0.1008  0.0774  0.1953
11373WAT      O46211   1.358   7.203   3.175  0.1978  0.2040 -0.6759
11373WAT     H146212   1.278   7.183   3.147 -0.3243 -0.2176  0.9633
11373WAT     H246213   1.369   7.286   3.148 -0.6188  0.1387 -1.2617
11373WAT    EPW46214   1.348   7.213   3.167  0.0000  0.1321 -0.5203
11374WAT      O46215   3.378   4.288   2.288  0.1408 -0.5398  0.3807
11374WAT     H146216   3.443   4.230   2.286 -0.7536 -1.7913  3.1983
11374WAT     H246217   3.419   4.364   2.304  1.0712 -0.8785 -0.2988
11374WAT    EPW46218   3.394   4.291   2.290  0.1461 -0.7747  0.6965
11375WAT      O46219   1.700   0.661   4.433 -0.1135 -0.4886 -0.4238
11375WAT     H146220   1.688   0.586   4.475  2.2117  0.4388  2.3058
11375WAT     H246221   1.767   0.645   4.380  0.8235 -0.2412  0.6506
11375WAT    EPW46222   1.708   0.648   4.432  0.3684 -0.3150  0.1381
11376WAT      O46223   3.131   0.978   4.522 -0.2367 -0.3003  0.2082
11376WAT     H146224   3.111   0.962   4.439  0.1548 -0.9736  0.2334
11376WAT     H246225   3.165   1.058   4.521 -0.3734 -0.2483 -0.2567
11376WAT    EPW46226   3.133   0.988   4.510 -0.1990 -0.3921  0.1432
11377WAT      O46227   4.276   4.921   5.255 -0.7338 -0.4309 -0.2773
11377WAT     H146228   4.294   4.861   5.316 -0.3732  0.5634  0.6109
11377WAT     H246229   4.228   4.876   5.197 -1.0780 -1.4082  0.7141
11377WAT    EPW46230   4.272   4.905   5.255 -0.7314 -0.4284  0.0003
11378WAT      O46231   3.349   0.962   1.250 -0.1099 -0.1455  0.1865
11378WAT     H146232   3.423   1.000   1.277  0.9748 -2.2360  0.3938
11378WAT     H246233   3.306   0.946   1.324  0.7351 -1.7158  0.3971
11378WAT    EPW46234   3.353   0.965   1.265  0.1752 -0.6863  0.2482
11379WAT      O46235   0.727   5.523   2.921 -0.3177 -0.7996 -0.9028
11379WAT     H146236   0.793   5.521   2.978 -2.6290 -1.3901  1.9982
11379WAT     H246237   0.697   5.442   2.923 -1.4457 -0.4162 -1.7713
11379WAT    EPW46238   0.733   5.511   2.930 -0.8258 -0.8302 -0.6026
11380WAT      O46239   3.181   2.295   2.508 -0.3641 -0.5773 -0.4228
11380WAT     H146240   3.236   2.249   2.457  2.6787  1.2986  0.8540
11380WAT     H246241   3.106   2.251   2.502  1.0289 -2.9628 -2.9219
11380WAT    EPW46242   3.178   2.282   2.500  0.2911 -0.6526 -0.6034
11381WAT      O46243   4.880   0.682   7.057  0.6250  0.2343  0.1529
11381WAT     H146244   4.963   0.658   7.050  1.0666  1.3256  1.4386
11381WAT     H246245   4.867   0.688   7.143 -0.6208  0.6698 -0.0411
11381WAT    EPW46246   4.890   0.679   7.068  0.5062  0.4598  0.3142
11382WAT      O46247   7.230   2.810   2.044  0.6636 -0.4149  0.0887
11382WAT     H146248   7.150   2.822   2.076  0.9231 -2.9979  1.9864
11382WAT     H246249   7.282   2.850   2.102  0.8852 -1.4566  0.6367
11382WAT    EPW46250   7.226   2.818   2.057  0.7347 -0.9503  0.4500
11383WAT      O46251   3.716   7.130   0.434  0.0226  0.3795  0.4770
11383WAT     H146252   3.649   7.180   0.460  1.2541  2.4497 -0.1492
11383WAT     H246253   3.690   7.101   0.356 -1.0783 -0.7983  1.2270
11383WAT    EPW46254   3.702   7.133   0.427  0.0419  0.5113  0.4953
11384WAT      O46255   0.477   0.149   0.427 -0.5688  0.4152  0.6684
11384WAT     H146256   0.515   0.140   0.505 -1.5256  2.0968  1.3767
11384WAT     H246257   0.518   0.217   0.391 -0.4322 -0.0725 -0.1217
11384WAT    EPW46258   0.488   0.157   0.433 -0.6899  0.5916  0.6563
11385WAT      O46259   0.142   6.503   3.107  0.2399 -0.6326  0.0388
11385WAT     H146260   0.138   6.422   3.077 -1.3327 -0.8136  0.6307
11385WAT     H246261   0.066   6.538   3.081  1.3143  0.9752 -1.0794
11385WAT    EPW46262   0.130   6.496   3.099  0.1663 -0.4218 -0.0390
11386WAT      O46263   1.072   5.800   3.022  0.3040  1.1951  0.3565
11386WAT     H146264   1.126   5.740   3.054  0.0967  0.0432 -1.3376
11386WAT     H246265   1.107   5.819   2.944 -2.7580 -1.1446 -1.7829
11386WAT    EPW46266   1.085   5.794   3.015 -0.1790  0.6793 -0.2098
11387WAT      O46267   4.268   0.702   3.316 -0.1727  0.0929  0.3585
11387WAT     H146268   4.355   0.696   3.312 -0.1454  0.5664  0.1799
11387WAT     H246269   4.252   0.697   3.401  0.1277  1.1902  0.4932
11387WAT    EPW46270   4.279   0.701   3.328 -0.1243  0.3249  0.3520
11388WAT      O46271   1.539   3.251   2.837  0.0868 -0.0946 -0.0027
11388WAT     H146272   1.474   3.286   2.882  2.3725  3.1882  1.1578
11388WAT     H246273   1.524   3.277   2.755 -0.0692  0.6417  0.2563
11388WAT    EPW46274   1.527   3.260   2.831  0.4014  0.4991  0.2070
11389WAT      O46275   1.804   1.010   2.967  0.0523  0.5053  0.4921
11389WAT     H146276   1.827   1.094   2.965  0.9600  0.3476  2.2584
11389WAT     H246277   1.717   1.012   2.962  0.0822  1.5240  0.2575
11389WAT    EPW46278   1.795   1.023   2.966  0.1908  0.6325  0.7183
11390WAT      O46279   6.868   6.471   2.252  0.2956 -0.1972 -0.0730
11390WAT     H146280   6.886   6.441   2.332  1.4138 -0.3148 -0.3404
11390WAT     H246281   6.782   6.461   2.245  0.4586 -2.3974  0.2362
11390WAT    EPW46282   6.858   6.465   2.263  0.4848 -0.5396 -0.0668
11391WAT      O46283   4.640   4.297   5.312  0.2704  0.9828 -0.5541
11391WAT     H146284   4.685   4.372   5.313  0.0661  1.1039 -0.4225
11391WAT     H246285   4.605   4.296   5.233  1.0358  0.5669 -0.9037
11391WAT    EPW46286   4.642   4.308   5.301  0.3533  0.9393 -0.5863
11392WAT      O46287   3.513   7.041   6.369 -0.0839 -0.6894 -0.3676
11392WAT     H146288   3.493   7.119   6.335 -0.7813 -0.0018  1.5132
11392WAT     H246289   3.498   6.986   6.303 -1.1594  0.6011 -1.2636
11392WAT    EPW46290   3.508   7.045   6.354 -0.3458 -0.3972 -0.2221
11393WAT      O46291   3.241   0.661   1.816  0.3129 -0.1496 -0.2544
11393WAT     H146292   3.317   0.654   1.859 -0.4408  0.1816  1.1995
11393WAT     H246293   3.224   0.747   1.819  0.1337 -0.1424 -1.0767
11393WAT    EPW46294   3.250   0.673   1.823  0.1751 -0.0996 -0.1611
11394WAT      O46295   2.155   6.842   0.494  0.2527 -0.3771 -0.0659
11394WAT     H146296   2.202   6.769   0.486  0.2942 -0.1583 -2.8829
11394WAT     H246297   2.206   6.903   0.457 -0.7408  0.6147  0.1491
11394WAT    EPW46298   2.169   6.840   0.487  0.1121 -0.1983 -0.4503
11395WAT      O46299   5.599   5.622   1.850  0.0341  0.4332  0.3294
11395WAT     H146300   5.600   5.540   1.880  3.4460  0.0300 -0.4905
11395WAT     H246301   5.578   5.670   1.920 -1.1283 -1.0336  1.0420
11395WAT    EPW46302   5.596   5.617   1.865  0.3664  0.1570  0.3136
11396WAT      O46303   2.015   6.284   7.049 -0.5071  0.3235  0.1699
11396WAT     H146304   2.022   6.238   7.123  0.9630  0.5437  0.1993
11396WAT     H246305   1.930   6.279   7.030 -0.5338 -1.8468  0.5350
11396WAT    EPW46306   2.003   6.276   7.057 -0.2939  0.0354  0.2282
11397WAT      O46307   6.402   3.862   0.231  0.4902 -0.4230  0.6619
11397WAT     H146308   6.327   3.822   0.249 -0.0138  0.2880  0.1821
11397WAT     H246309   6.457   3.796   0.214 -0.7109 -0.9347 -1.7090
11397WAT    EPW46310   6.399   3.846   0.231  0.2383 -0.3935  0.2408
11398WAT      O46311   7.142   0.267   4.918  0.1276  0.0943 -0.0644
11398WAT     H146312   7.109   0.290   4.841  1.6410 -1.3198 -1.1843
11398WAT     H246313   7.194   0.334   4.939  0.8986 -0.1834 -1.0380
11398WAT    EPW46314   7.145   0.280   4.910  0.4651 -0.1556 -0.3736
11399WAT      O46315   3.908   7.037   6.511  0.4094  0.1572 -0.1430
11399WAT     H146316   3.994   7.037   6.523  0.3868  0.5449  0.0397
11399WAT     H246317   3.877   7.007   6.587  0.3354  1.1464  0.2374
11399WAT    EPW46318   3.916   7.033   6.524  0.3951  0.3606 -0.0598
11400WAT      O46319   3.141   5.224   3.549  0.0206  0.1985 -0.3116
11400WAT     H146320   3.158   5.238   3.464  1.2687  1.1612  0.0716
11400WAT     H246321   3.212   5.183   3.577 -0.2805  0.1174  0.3361
11400WAT    EPW46322   3.154   5.220   3.540  0.1605  0.3287 -0.1593
11401WAT      O46323   0.312   5.922   2.406 -0.0675 -0.3538  0.6140
11401WAT     H146324   0.236   5.950   2.438  0.3024  1.0500  0.2868
11401WAT     H246325   0.292   5.897   2.325 -0.4716 -1.4905  1.0307
11401WAT    EPW46326   0.298   5.922   2.399 -0.0725 -0.3144  0.6272
11402WAT      O46327   3.421   0.167   6.336 -0.3336 -0.5567  0.4426
11402WAT     H146328   3.439   0.250   6.316 -0.4336 -1.0951 -2.1804
11402WAT     H246329   3.450   0.123   6.267 -1.3010 -2.6192  1.2879
11402WAT    EPW46330   3.428   0.173   6.323 -0.4913 -0.9409  0.1800
11403WAT      O46331   1.914   4.784   6.571 -0.3241 -0.4992  0.2562
11403WAT     H146332   1.953   4.835   6.631 -0.8300 -1.0960  1.1249
11403WAT     H246333   1.909   4.707   6.611  0.6676 -1.3270 -1.1347
11403WAT    EPW46334   1.919   4.780   6.586 -0.2523 -0.7096  0.1790
11404WAT      O46335   2.708   3.593   2.842 -0.4201 -0.1178  0.3684
11404WAT     H146336   2.659   3.618   2.910 -2.7735 -1.4320 -0.7117
11404WAT     H246337   2.765   3.537   2.877 -0.6707  0.2659  1.4447
11404WAT    EPW46338   2.709   3.588   2.857 -0.8047 -0.2552  0.3678
11405WAT      O46339   0.254   3.442   5.547  0.2735  0.3270 -0.5656
11405WAT     H146340   0.221   3.435   5.627 -0.1449  0.1294 -0.7548
11405WAT     H246341   0.247   3.362   5.514  1.1519  0.2251 -0.5326
11405WAT    EPW46342   0.248   3.429   5.554  0.3415  0.2828 -0.5887
11406WAT      O46343   2.958   5.314   3.960 -0.3848 -0.0725  0.4563
11406WAT     H146344   2.961   5.227   3.953 -1.1938 -0.0519 -0.3805
11406WAT     H246345   3.039   5.339   3.941 -0.3554 -0.6016 -0.1645
11406WAT    EPW46346   2.970   5.304   3.956 -0.5000 -0.1476  0.2410
11407WAT      O46347   4.306   2.347   2.769 -0.1849  0.0368  0.3087
11407WAT     H146348   4.223   2.368   2.754 -0.2588 -0.3146  0.2174
11407WAT     H246349   4.316   2.272   2.725 -0.5998 -1.3983  2.5009
11407WAT    EPW46350   4.295   2.339   2.760 -0.2571 -0.2271  0.6190
11408WAT      O46351   3.971   6.182   1.463  0.4799  0.1841 -0.8164
11408WAT     H146352   3.985   6.160   1.380 -0.1179  1.6698 -1.3436
11408WAT     H246353   3.965   6.105   1.504  1.0471 -0.5703 -2.0876
11408WAT    EPW46354   3.973   6.167   1.457  0.4754  0.2921 -1.0821
11409WAT      O46355   6.938   3.436   1.275 -0.3683 -0.5481  0.4088
11409WAT     H146356   6.883   3.382   1.315 -0.2414 -0.6002  0.5093
11409WAT     H246357   6.996   3.383   1.237 -1.4136 -0.6025 -1.2274
11409WAT    EPW46358   6.938   3.420   1.275 -0.5040 -0.5638  0.1820
11410WAT      O46359   2.604   7.045   0.589 -0.4518 -0.1841  0.3114
11410WAT     H146360   2.640   7.038   0.668  0.1380 -0.5913  0.0180
11410WAT     H246361   2.529   7.085   0.604  0.0939  0.6315  0.9560
11410WAT    EPW46362   2.599   7.050   0.603 -0.2841 -0.1238  0.3633
11411WAT      O46363   1.499   0.239   4.432 -0.4018 -0.4363  0.1200
11411WAT     H146364   1.530   0.297   4.489  3.6439 -0.5350 -1.6411
11411WAT     H246365   1.442   0.285   4.385 -0.8188  0.7325  1.6746
11411WAT    EPW46366   1.495   0.254   4.433  0.1342 -0.2782  0.0895
11412WAT      O46367   4.445   5.522   7.153 -0.3649 -1.0928 -0.2444
11412WAT     H146368   4.456   5.559   7.231  0.0754  0.4892 -1.0213
11412WAT     H246369   4.525   5.494   7.133 -0.6376 -2.2652  0.2061
11412WAT    EPW46370   4.459   5.523   7.162 -0.3402 -1.0323 -0.2926
11413WAT      O46371   0.892   3.220   4.437  0.5882 -0.3420  0.7278
11413WAT     H146372   0.967   3.226   4.481 -0.2282 -0.7438  2.2852
11413WAT     H246373   0.881   3.134   4.427 -0.2478 -0.3652  1.6556
11413WAT    EPW46374   0.901   3.209   4.442  0.3441 -0.4048  1.0949
11414WAT      O46375   3.868   1.046   0.842 -0.6446 -0.3070  0.0092
11414WAT     H146376   3.844   1.100   0.907 -0.8434  1.2470 -1.2988
11414WAT     H246377   3.934   1.000   0.877  0.1744  1.4383  0.8873
11414WAT    EPW46378   3.874   1.047   0.857 -0.5530  0.1803 -0.0543
11415WAT      O46379   6.372   0.999   6.170 -0.0027 -0.8239  0.6998
11415WAT     H146380   6.296   0.956   6.168 -0.9932  0.8329  1.0004
11415WAT     H246381   6.393   1.000   6.255 -0.4243 -0.0215  0.8060
11415WAT    EPW46382   6.364   0.993   6.182 -0.2113 -0.4606  0.7599
11416WAT      O46383   4.905   6.454   4.572  0.1778 -0.3634 -0.2842
11416WAT     H146384   4.928   6.380   4.612 -1.2403 -0.3023  0.7317
11416WAT     H246385   4.921   6.438   4.488  0.3302 -1.6563 -0.0281
11416WAT    EPW46386   4.911   6.440   4.565 -0.0092 -0.5453 -0.0963
11417WAT      O46387   0.639   0.169   4.290 -0.3464 -0.3096 -0.1122
11417WAT     H146388   0.684   0.193   4.219 -0.9560  1.4186  0.0351
11417WAT     H246389   0.701   0.141   4.345  0.5497  1.4884 -0.1183
11417WAT    EPW46390   0.655   0.168   4.287 -0.3041  0.2113 -0.0914
11418WAT      O46391   6.821   4.328   2.319  0.0708 -0.3092 -0.3959
11418WAT     H146392   6.833   4.402   2.275 -0.1379  0.8499  1.3632
11418WAT     H246393   6.792   4.273   2.259 -0.4665  1.2420 -1.6389
11418WAT    EPW46394   6.819   4.331   2.304 -0.0394  0.0912 -0.3197
11419WAT      O46395   3.050   1.920   2.346  0.7377  0.1529  0.1328
11419WAT     H146396   3.054   1.920   2.259 -1.4845 -2.1903 -0.0830
11419WAT     H246397   3.083   1.843   2.369 -1.3793 -0.5424  1.0801
11419WAT    EPW46398   3.055   1.909   2.337  0.0967 -0.2960  0.2409
11420WAT      O46399   5.358   6.351   7.046  0.1780 -0.1967  0.0315
11420WAT     H146400   5.293   6.308   7.007 -0.3767 -0.2542  1.0077
11420WAT     H246401   5.429   6.308   7.019 -0.3512 -1.6690  0.8605
11420WAT    EPW46402   5.359   6.338   7.036  0.0179 -0.4227  0.2982
11421WAT      O46403   5.698   5.599   2.753 -0.2987 -0.3061  0.1004
11421WAT     H146404   5.762   5.546   2.780 -0.1965 -0.0298  0.4109
11421WAT     H246405   5.627   5.549   2.756 -0.4778 -0.0098  1.9051
11421WAT    EPW46406   5.697   5.584   2.758 -0.3101 -0.2215  0.4129
11422WAT      O46407   5.859   0.526   1.915  0.1211  0.1005 -0.2252
11422WAT     H146408   5.788   0.564   1.882 -0.5802 -1.1953 -0.2375
11422WAT     H246409   5.841   0.519   2.000  0.7121  0.7655 -0.0326
11422WAT    EPW46410   5.846   0.531   1.923  0.1048  0.0073 -0.1986
11423WAT      O46411   5.097   0.593   0.031 -0.9525  0.1536  0.4034
11423WAT     H146412   5.106   0.523   0.082 -0.5233  0.5511  0.8743
11423WAT     H246413   5.122   0.660   0.082  0.9862  0.4004 -0.7944
11423WAT    EPW46414   5.102   0.593   0.046 -0.6027  0.2488  0.2960
11424WAT      O46415   1.609   3.301   2.109  0.2417  0.6385 -0.1310
11424WAT     H146416   1.689   3.331   2.091  0.6447 -0.1964  0.2206
11424WAT     H246417   1.557   3.348   2.056  0.8726  1.7318  0.1925
11424WAT    EPW46418   1.613   3.312   2.098  0.3945  0.6766 -0.0313
11425WAT      O46419   4.561   5.941   7.314 -0.4375  0.3458 -0.1737
11425WAT     H146420   4.579   5.990   7.384  1.7809  0.8184 -1.0006
11425WAT     H246421   4.543   6.000   7.252  0.9008  0.1000 -0.8239
11425WAT    EPW46422   4.561   5.957   7.315  0.0879  0.3793 -0.3919
11426WAT      O46423   0.867   3.121   2.284  0.2992  0.7065  0.3007
11426WAT     H146424   0.921   3.060   2.315 -0.9357 -1.0886 -0.8222
11426WAT     H246425   0.851   3.172   2.353  0.9246 -0.6126  1.4807
11426WAT    EPW46426   0.872   3.119   2.299  0.2091  0.2465  0.3091
11427WAT      O46427   4.306   3.143   4.985 -0.3257 -0.1468 -0.7880
11427WAT     H146428   4.265   3.071   5.012  1.1196 -0.6706  0.1142
11427WAT     H246429   4.376   3.113   4.942 -0.8276  0.7253 -2.3198
11427WAT    EPW46430   4.310   3.128   4.983 -0.1863 -0.0953 -0.8810
11428WAT      O46431   4.751   7.015   5.368  0.3220 -0.0425  0.6287
11428WAT     H146432   4.815   7.073   5.380 -1.4119  1.6104  2.8479
11428WAT     H246433   4.699   7.054   5.310  0.6302 -0.7770 -0.1554
11428WAT    EPW46434   4.753   7.030   5.361  0.1114  0.0931  0.8407
11429WAT      O46435   5.960   4.263   5.347 -0.7319  0.6724 -0.3141
11429WAT     H146436   6.010   4.193   5.364 -0.4192  0.6239 -1.3109
11429WAT     H246437   6.018   4.328   5.339 -0.4725  0.2280 -3.6552
11429WAT    EPW46438   5.976   4.262   5.348 -0.6474  0.5996 -0.9549
11430WAT      O46439   4.281   0.276   5.133  0.6090  0.2101 -0.1257
11430WAT     H146440   4.279   0.235   5.210  2.0330 -0.1576 -0.2550
11430WAT     H246441   4.264   0.359   5.153 -0.5022 -0.1210  0.3788
11430WAT    EPW46442   4.278   0.282   5.148  0.6552  0.1069 -0.0703
11431WAT      O46443   6.691   5.335   5.733  0.0674 -0.3511 -0.1486
11431WAT     H146444   6.676   5.411   5.695  0.1129  0.1982  0.8912
11431WAT     H246445   6.771   5.313   5.704 -0.0571 -0.1369 -0.6589
11431WAT    EPW46446   6.701   5.343   5.723  0.0557 -0.2383 -0.0703
11432WAT      O46447   6.113   5.331   3.925 -0.0490  0.4026  0.8403
11432WAT     H146448   6.061   5.270   3.960 -1.5745  0.9881 -0.2808
11432WAT     H246449   6.177   5.284   3.888 -0.8993 -0.5096  0.4713
11432WAT    EPW46450   6.115   5.315   3.924 -0.3999  0.3544  0.6202
11433WAT      O46451   3.604   1.512   4.557  0.2462  0.0394  0.1640
11433WAT     H146452   3.611   1.433   4.593  0.3622 -0.3664 -0.7378
11433WAT     H246453   3.682   1.548   4.572 -0.7671  1.2683  3.4282
11433WAT    EPW46454   3.617   1.506   4.565  0.1137  0.1610  0.5130
11434WAT      O46455   6.087   1.010   6.785  0.0811 -0.2249  0.1234
11434WAT     H146456   6.011   1.026   6.746 -0.3326 -1.3809  0.3942
11434WAT     H246457   6.075   1.039   6.867  0.2355  0.3466 -0.0514
11434WAT    EPW46458   6.074   1.017   6.791  0.0428 -0.3112  0.1376
11435WAT      O46459   0.859   2.291   2.562  0.1876  0.3231  0.2408
11435WAT     H146460   0.916   2.347   2.527  1.4287 -1.0241  0.0098
11435WAT     H246461   0.783   2.334   2.559  1.1518  2.1400  0.4650
11435WAT    EPW46462   0.856   2.305   2.557  0.5134  0.3925  0.2398
11436WAT      O46463   1.402   0.523   6.465  0.2445  0.7046  0.2075
11436WAT     H146464   1.334   0.570   6.437 -0.0867 -0.8002 -1.7163
11436WAT     H246465   1.375   0.490   6.541 -1.0578  0.4225 -0.3628
11436WAT    EPW46466   1.388   0.525   6.472  0.0032  0.4406 -0.1609
11437WAT      O46467   7.240   1.631   1.930  0.0759 -0.0459  0.0910
11437WAT     H146468   7.181   1.671   1.980  0.6542 -0.4122  1.0977
11437WAT     H246469   7.202   1.554   1.911  0.1563 -0.2138  0.5984
11437WAT    EPW46470   7.226   1.625   1.935  0.1732 -0.1248  0.3147
11438WAT      O46471   6.261   7.164   1.084  0.2279 -0.0682  0.4485
11438WAT     H146472   6.243   7.116   1.013  0.4667  0.5591 -0.0476
11438WAT     H246473   6.323   7.117   1.124 -0.3840 -0.7550  0.5960
11438WAT    EPW46474   6.268   7.150   1.079  0.1728 -0.0770  0.3970
11439WAT      O46475   5.031   6.907   2.119 -0.1827 -0.2815  0.3199
11439WAT     H146476   5.108   6.949   2.121 -0.2157 -0.1452 -0.7411
11439WAT     H246477   4.973   6.969   2.138  0.0292 -0.6624  2.5334
11439WAT    EPW46478   5.034   6.922   2.122 -0.1563 -0.3176  0.4902
11440WAT      O46479   1.010   4.397   1.689  0.0959 -0.4497  0.0209
11440WAT     H146480   0.958   4.439   1.633  0.7669 -0.2232 -0.4385
11440WAT     H246481   1.044   4.333   1.640 -0.8491 -1.4927  0.6838
11440WAT    EPW46482   1.007   4.393   1.673  0.0554 -0.5703  0.0509
11441WAT      O46483   6.700   6.307   7.071 -0.5169 -0.2614  0.4616
11441WAT     H146484   6.722   6.319   7.155 -1.1811  0.6450  0.5266
11441WAT     H246485   6.763   6.257   7.040  1.6083  2.0968  0.6616
11441WAT    EPW46486   6.712   6.302   7.079 -0.3011  0.2209  0.5008
11442WAT      O46487   6.754   6.024   2.723 -0.2405 -0.0202  0.2263
11442WAT     H146488   6.737   6.088   2.666 -3.2394 -0.6005  0.2929
11442WAT     H246489   6.807   5.971   2.679 -1.5859  0.1180 -1.6810
11442WAT    EPW46490   6.759   6.026   2.708 -0.8822 -0.0855 -0.0456
11443WAT      O46491   3.365   0.042   1.776  0.5371 -0.4836  0.2348
11443WAT     H146492   3.417   0.078   1.835 -0.2370 -0.6992  1.0804
11443WAT     H246493   3.332   0.110   1.732 -0.1449 -0.1885  1.1591
11443WAT    EPW46494   3.368   0.057   1.778  0.3220 -0.4719  0.4962
11444WAT      O46495   4.135   1.638   5.676  0.6186  0.0452  0.7957
11444WAT     H146496   4.102   1.616   5.754 -0.4655  0.0532  0.3680
11444WAT     H246497   4.134   1.725   5.677  0.6075  0.0453  0.7745
11444WAT    EPW46498   4.130   1.647   5.688  0.4568  0.0464  0.7294
11445WAT      O46499   1.582   0.782   6.400  0.1499  0.1860 -0.1033
11445WAT     H146500   1.505   0.752   6.426 -0.1069  0.8201 -0.1033
11445WAT     H246501   1.639   0.729   6.439 -0.2734  0.1630  0.5004
11445WAT    EPW46502   1.579   0.770   6.410  0.0494  0.2763 -0.0141
11446WAT      O46503   0.196   0.568   6.292 -0.1245  0.1581 -0.8404
11446WAT     H146504   0.265   0.522   6.264 -0.6181 -0.6247 -0.8134
11446WAT     H246505   0.150   0.583   6.220 -0.0470  0.4652 -0.8250
11446WAT    EPW46506   0.199   0.563   6.278 -0.1860  0.0878 -0.8341
11447WAT      O46507   4.469   3.522   1.276 -0.1784 -0.3372 -0.4253
11447WAT     H146508   4.444   3.451   1.232 -0.7402 -0.6672  0.4086
11447WAT     H246509   4.397   3.571   1.277 -0.2612 -0.4661  0.3787
11447WAT    EPW46510   4.455   3.519   1.270 -0.2736 -0.4050 -0.1834
11448WAT      O46511   3.371   3.740   4.678  0.0881  0.4968  0.3351
11448WAT     H146512   3.429   3.766   4.618  0.6049  0.9367  1.0288
11448WAT     H246513   3.363   3.808   4.731  0.2925 -0.1923  1.2804
11448WAT    EPW46514   3.378   3.754   4.677  0.1946  0.4600  0.5772
11449WAT      O46515   4.954   7.136   7.255  0.3161  0.1614  0.5151
11449WAT     H146516   5.016   7.192   7.230 -0.1338 -0.2612 -1.8381
11449WAT     H246517   4.963   7.069   7.199 -0.8939 -0.8711  1.4885
11449WAT    EPW46518   4.964   7.134   7.243  0.0709 -0.0535  0.3113
11450WAT      O46519   3.246   2.061   5.852 -0.3023 -0.1985  0.2702
11450WAT     H146520   3.291   2.135   5.860  0.4322 -0.5819 -0.1312
11450WAT     H246521   3.164   2.087   5.837  0.3854  0.6298 -2.8387
11450WAT    EPW46522   3.241   2.076   5.851 -0.0922 -0.1328 -0.2483
11451WAT      O46523   6.898   4.348   4.434  0.2424  0.2410  0.0667
11451WAT     H146524   6.979   4.351   4.403 -0.1119  0.0231 -0.9158
11451WAT     H246525   6.898   4.407   4.498  1.8930 -1.6083  1.8775
11451WAT    EPW46526   6.910   4.357   4.439  0.4339 -0.0644  0.1891
11452WAT      O46527   1.651   0.344   5.025 -0.1801 -0.2703  0.2816
11452WAT     H146528   1.681   0.394   4.960 -0.2979  0.1400  0.5434
11452WAT     H246529   1.639   0.267   4.987  0.6471 -0.2883  0.0321
11452WAT    EPW46530   1.654   0.340   5.010 -0.0753 -0.2123  0.2834
11453WAT      O46531   4.762   4.098   6.509 -0.1094 -0.3586  0.5180
11453WAT     H146532   4.765   4.086   6.423  1.7577 -1.4801  0.6762
11453WAT     H246533   4.766   4.185   6.518 -2.7500 -0.0335 -0.5115
11453WAT    EPW46534   4.763   4.109   6.498 -0.2236 -0.4762  0.3893
11454WAT      O46535   6.927   0.166   3.504 -0.3321  0.7813 -0.0950
11454WAT     H146536   6.945   0.210   3.430 -0.1384  1.2690  0.2416
11454WAT     H246537   6.884   0.224   3.553 -1.8954 -0.0247 -0.4395
11454WAT    EPW46538   6.923   0.181   3.500 -0.5344  0.7343 -0.0962
11455WAT      O46539   5.389   4.061   0.583 -0.1112  0.4217  0.0970
11455WAT     H146540   5.398   4.125   0.641  0.4454 -0.5993  1.1924
11455WAT     H246541   5.455   4.074   0.528 -0.1345  0.9097  0.1812
11455WAT    EPW46542   5.400   4.072   0.583 -0.0324  0.3430  0.2712
11456WAT      O46543   1.644   3.047   3.095 -0.0608 -0.3310 -0.1488
11456WAT     H146544   1.583   3.050   3.157 -1.0509 -1.5723 -1.0262
11456WAT     H246545   1.599   3.035   3.021  1.2198 -1.2171 -0.8332
11456WAT    EPW46546   1.628   3.046   3.093 -0.0179 -0.6453 -0.3796
11457WAT      O46547   7.049   6.241   5.838 -0.1244 -0.5610 -0.1976
11457WAT     H146548   6.972   6.280   5.822 -0.3231 -0.5730  0.6464
11457WAT     H246549   7.031   6.156   5.830 -0.3508 -0.5942  0.5209
11457WAT    EPW46550   7.035   6.234   5.835 -0.1872 -0.5677  0.0332
11458WAT      O46551   6.124   4.585   5.050 -0.5220 -0.0216 -0.2025
11458WAT     H146552   6.056   4.541   5.019 -0.5115  0.3490 -0.7603
11458WAT     H246553   6.110   4.667   5.023  0.3047 -0.0027 -0.6153
11458WAT    EPW46554   6.112   4.591   5.041 -0.3983  0.0360 -0.3459
11459WAT      O46555   0.616   4.130   1.324  0.0652 -0.2801 -0.2164
11459WAT     H146556   0.600   4.211   1.296 -0.5385 -0.3569 -0.1148
11459WAT     H246557   0.694   4.136   1.363 -0.6158  0.5921  1.0807
11459WAT    EPW46558   0.625   4.143   1.326 -0.1245 -0.1626 -0.0098
11460WAT      O46559   2.182   5.554   3.115  0.8193 -0.6632  0.2863
11460WAT     H146560   2.162   5.580   3.196 -0.4316  0.3711 -0.3211
11460WAT     H246561   2.234   5.618   3.085  0.4134 -0.4986 -0.0811
11460WAT    EPW46562   2.186   5.568   3.122  0.5746 -0.4861  0.1423
11461WAT      O46563   3.914   0.400   1.749 -0.0400 -0.1773 -0.0572
11461WAT     H146564   3.974   0.401   1.812  1.1190  0.2501 -1.1246
11461WAT     H246565   3.945   0.458   1.691 -1.6858  0.3401 -0.4614
11461WAT    EPW46566   3.928   0.409   1.750 -0.1119 -0.0377 -0.2746
11462WAT      O46567   7.139   1.902   1.969  0.0164 -0.2296 -0.9227
11462WAT     H146568   7.069   1.863   1.935 -0.1778  0.1044 -0.9051
11462WAT     H246569   7.114   1.985   1.978 -0.7133 -0.6902  2.1122
11462WAT    EPW46570   7.125   1.908   1.965 -0.1201 -0.2483 -0.4718
11463WAT      O46571   0.767   4.246   5.757 -0.0388  0.1633 -0.1471
11463WAT     H146572   0.739   4.194   5.822  0.1261 -0.3149 -0.4488
11463WAT     H246573   0.732   4.323   5.776  0.3305  0.1236  0.7218
11463WAT    EPW46574   0.758   4.250   5.769  0.0401  0.0868 -0.0633
11464WAT      O46575   4.935   4.391   7.227  0.1939 -0.3427  0.3326
11464WAT     H146576   4.901   4.329   7.278  2.1509 -1.2520  0.6501
11464WAT     H246577   4.961   4.452   7.284  0.3399 -0.3151  0.2379
11464WAT    EPW46578   4.934   4.391   7.243  0.5046 -0.4729  0.3655
11465WAT      O46579   4.623   0.989   1.270  0.4368  0.3736  0.4075
11465WAT     H146580   4.633   1.043   1.338 -2.1966  1.8724 -0.2663
11465WAT     H246581   4.661   1.033   1.205 -0.5226  0.8343  0.1397
11465WAT    EPW46582   4.630   1.004   1.271 -0.0939  0.6631  0.2684
11466WAT      O46583   0.552   1.391   6.069 -0.5966  0.2854  0.0871
11466WAT     H146584   0.545   1.428   6.148  0.4830 -0.7538  0.7195
11466WAT     H246585   0.491   1.329   6.070  0.7116 -1.0556  0.9460
11466WAT    EPW46586   0.542   1.387   6.081 -0.2439 -0.0662  0.3074
11467WAT      O46587   5.888   6.533   1.323 -0.3436  0.0947 -0.2227
11467WAT     H146588   5.830   6.492   1.374  0.1426  0.1770  0.4161
11467WAT     H246589   5.894   6.612   1.359  0.3481  0.0006 -0.1253
11467WAT    EPW46590   5.880   6.538   1.336 -0.1696  0.0930 -0.1140
11468WAT      O46591   3.080   1.696   2.610 -0.5514  0.4090  0.5556
11468WAT     H146592   3.088   1.783   2.619  0.6269  0.1329  2.8576
11468WAT     H246593   3.129   1.678   2.541  0.7413  1.3966  1.1718
11468WAT    EPW46594   3.088   1.706   2.601 -0.1864  0.5141  0.9867
11469WAT      O46595   4.287   4.169   0.632 -0.0121  0.1152  0.2383
11469WAT     H146596   4.347   4.183   0.570  0.9408 -0.0841  1.1010
11469WAT     H246597   4.249   4.094   0.606 -0.6161  0.7708 -0.8540
11469WAT    EPW46598   4.290   4.160   0.619  0.0394  0.1826  0.2044
11470WAT      O46599   1.491   5.092   5.891  0.1206  0.7503  0.5577
11470WAT     H146600   1.564   5.058   5.924 -1.4123 -0.4428  3.0071
11470WAT     H246601   1.444   5.021   5.868 -0.8901  1.4269  0.4699
11470WAT    EPW46602   1.495   5.076   5.892 -0.2551  0.6740  0.9065
11471WAT      O46603   1.704   6.784   6.212  0.4559 -0.0514 -0.2578
11471WAT     H146604   1.771   6.816   6.258  0.2398  2.7704 -1.6607
11471WAT     H246605   1.644   6.848   6.217 -1.2633 -1.5384 -0.8528
11471WAT    EPW46606   1.705   6.798   6.220  0.1700  0.1458 -0.5529
11472WAT      O46607   0.850   6.368   0.941  0.0262 -0.3676  0.3126
11472WAT     H146608   0.929   6.399   0.923 -0.1376 -0.5399 -0.7546
11472WAT     H246609   0.866   6.291   0.979  0.3787 -0.0922  0.7329
11472WAT    EPW46610   0.864   6.361   0.944  0.0541 -0.3524  0.2170
11473WAT      O46611   0.763   1.986   3.632  0.6938 -0.8947  0.0944
11473WAT     H146612   0.688   1.958   3.600  2.1998 -4.5007 -0.7362
11473WAT     H246613   0.763   1.956   3.714  1.3019 -1.1268  0.0156
11473WAT    EPW46614   0.752   1.978   3.640  1.0061 -1.4617 -0.0399
11474WAT      O46615   3.021   0.904   5.386  0.2620 -0.1003 -0.0643
11474WAT     H146616   2.949   0.861   5.411 -0.8066  1.0770 -0.9325
11474WAT     H246617   3.039   0.870   5.308 -0.6869  1.0629 -0.8298
11474WAT    EPW46618   3.013   0.893   5.378 -0.0360  0.2455 -0.3056
11475WAT      O46619   6.972   3.937   2.172 -0.1382  0.3442 -0.6869
11475WAT     H146620   7.032   3.897   2.222  0.7758  0.1556 -1.8652
11475WAT     H246621   7.021   3.987   2.119 -1.0706  0.6042 -1.3216
11475WAT    EPW46622   6.988   3.939   2.171 -0.1409  0.3547 -0.9547
11476WAT      O46623   4.385   4.495   0.500 -0.4625  0.5594 -0.1725
11476WAT     H146624   4.372   4.430   0.443  1.1398  0.8649 -0.9476
11476WAT     H246625   4.441   4.460   0.557  1.0867  1.4659 -1.0709
11476WAT    EPW46626   4.392   4.480   0.500  0.0031  0.7384 -0.4197
11477WAT      O46627   6.226   4.849   5.262 -0.4389  0.0124  0.1903
11477WAT     H146628   6.307   4.828   5.284 -1.1507 -2.1356  1.0271
11477WAT     H246629   6.230   4.859   5.175  0.6389 -0.4257  0.1802
11477WAT    EPW46630   6.238   4.847   5.252 -0.3848 -0.3696  0.3124
11478WAT      O46631   3.385   3.337   1.081  0.6664  0.0712  0.1486
11478WAT     H146632   3.447   3.399   1.081 -1.1407  1.9960  0.0759
11478WAT     H246633   3.387   3.307   1.163  1.8930 -0.1830  0.0546
11478WAT    EPW46634   3.395   3.342   1.093  0.5806  0.3180  0.1240
11479WAT      O46635   0.256   1.490   6.249 -0.4219  0.0431  0.6586
11479WAT     H146636   0.191   1.504   6.305 -1.3185 -1.2643 -0.0129
11479WAT     H246637   0.230   1.421   6.203  0.7546  0.4274 -0.6797
11479WAT    EPW46638   0.242   1.482   6.250 -0.3805 -0.0932  0.3617
11480WAT      O46639   0.096   4.825   6.456  0.3240  0.2319  0.4907
11480WAT     H146640   0.173   4.819   6.496  0.7980  1.7898 -0.0977
11480WAT     H246641   0.111   4.883   6.393 -0.0023 -2.9180 -2.8410
11480WAT    EPW46642   0.109   4.832   6.452  0.3458 -0.0032 -0.0884
11481WAT      O46643   3.941   5.936   3.094  0.6301  0.7799  0.1724
11481WAT     H146644   3.888   5.969   3.155  1.4599  2.9609 -0.1949
11481WAT     H246645   3.898   5.951   3.019  0.2562 -0.5895  0.0898
11481WAT    EPW46646   3.926   5.943   3.092  0.6974  0.8998  0.1060
11482WAT      O46647   5.723   1.967   5.263  0.0649  0.0334 -0.2369
11482WAT     H146648   5.745   1.883   5.267 -0.5423 -0.1018  0.4007
11482WAT     H246649   5.638   1.965   5.245  0.3245  0.5366 -1.6416
11482WAT    EPW46650   5.714   1.954   5.261  0.0135  0.0877 -0.3502
11483WAT      O46651   2.908   1.245   4.937  0.5506  0.0868 -0.0065
11483WAT     H146652   2.958   1.265   4.869  1.1412 -1.3780 -0.0448
11483WAT     H246653   2.884   1.162   4.922 -0.1919  0.0844  1.0328
11483WAT    EPW46654   2.912   1.235   4.925  0.5282 -0.1300  0.1413
11484WAT      O46655   7.147   5.209   1.891  0.8574  0.1186  0.2275
11484WAT     H146656   7.195   5.208   1.818  0.3760  2.3738 -0.1800
11484WAT     H246657   7.088   5.146   1.878  0.5180  0.7522 -1.5454
11484WAT    EPW46658   7.145   5.199   1.878  0.7361  0.5453 -0.0946
11485WAT      O46659   3.398   0.377   0.180  0.0812  0.1915 -0.7311
11485WAT     H146660   3.400   0.378   0.268 -0.5673 -1.4719 -0.6681
11485WAT     H246661   3.328   0.327   0.162  0.7176 -0.2052 -2.1895
11485WAT    EPW46662   3.388   0.370   0.191  0.0794 -0.1128 -0.9372
11486WAT      O46663   1.043   2.789   1.752 -0.2121 -0.3412 -0.0730
11486WAT     H146664   1.075   2.799   1.671 -2.5449 -0.1333 -1.0493
11486WAT     H246665   1.011   2.708   1.752  0.3718 -0.5987  0.9211
11486WAT    EPW46666   1.043   2.779   1.740 -0.4704 -0.3485 -0.0704
11487WAT      O46667   6.352   6.188   6.166 -0.1919 -0.6267 -0.1053
11487WAT     H146668   6.272   6.210   6.136  0.1005 -1.9845 -2.0490
11487WAT     H246669   6.393   6.265   6.172 -0.9701 -0.0826 -1.2582
11487WAT    EPW46670   6.346   6.203   6.162 -0.2637 -0.7469 -0.5628
11488WAT      O46671   2.806   2.198   4.031 -0.5489 -0.1809  0.5711
11488WAT     H146672   2.878   2.180   4.077  0.7545 -0.0075 -1.2738
11488WAT     H246673   2.787   2.280   4.053  0.6560  0.2523  0.0652
11488WAT    EPW46674   2.814   2.207   4.041 -0.1784 -0.0913  0.2239
11489WAT      O46675   3.133   0.360   6.029 -0.0461 -0.1414  0.1321
11489WAT     H146676   3.111   0.433   5.987  0.6625 -0.3059 -0.5436
11489WAT     H246677   3.146   0.302   5.965 -2.0716 -1.3258  0.6699
11489WAT    EPW46678   3.132   0.362   6.014 -0.2406 -0.3407  0.1118
11490WAT      O46679   6.727   7.129   6.611  0.1412  0.1423 -0.6537
11490WAT     H146680   6.749   7.209   6.638  0.1695  0.0777 -0.4851
11490WAT     H246681   6.799   7.082   6.626 -0.3105 -0.2082  0.4736
11490WAT    EPW46682   6.741   7.134   6.617  0.0787  0.0810 -0.4623
11491WAT      O46683   2.490   1.937   3.380  0.1820 -0.0080 -0.5146
11491WAT     H146684   2.531   2.014   3.369 -0.2939  0.0412 -2.1714
11491WAT     H246685   2.556   1.881   3.394  0.4768  0.8365  1.9724
11491WAT    EPW46686   2.506   1.940   3.381  0.1552  0.1240 -0.3919
11492WAT      O46687   6.415   0.132   2.510 -0.3533 -0.0356 -0.4877
11492WAT     H146688   6.437   0.068   2.455  2.0330 -0.0054  0.3283
11492WAT     H246689   6.337   0.107   2.541 -0.5397 -1.3316 -1.9167
11492WAT    EPW46690   6.407   0.119   2.507 -0.0283 -0.2226 -0.5782
11493WAT      O46691   4.051   1.855   1.019 -0.4376  0.4940 -0.8088
11493WAT     H146692   4.108   1.863   0.953  0.0765  0.7798 -0.3409
11493WAT     H246693   3.975   1.842   0.979 -0.2293  1.2526 -1.4746
11493WAT    EPW46694   4.048   1.854   1.004 -0.3309  0.6483 -0.8380
11494WAT      O46695   2.445   3.885   5.799  0.1059 -0.1207 -0.4413
11494WAT     H146696   2.389   3.948   5.821  0.5715  0.2280 -0.2474
11494WAT     H246697   2.457   3.898   5.713 -0.2395 -0.3030 -0.5188
11494WAT    EPW46698   2.438   3.896   5.789  0.1236 -0.0961 -0.4241
11495WAT      O46699   0.645   2.085   1.315  0.8161  0.0633 -0.1162
11495WAT     H146700   0.574   2.088   1.365  0.7288  1.0716 -0.2786
11495WAT     H246701   0.697   2.146   1.349  1.0075  0.3292 -0.8596
11495WAT    EPW46702   0.642   2.095   1.327  0.8315  0.2516 -0.2500
11496WAT      O46703   2.682   2.475   4.017  0.4022  0.4927 -0.1238
11496WAT     H146704   2.748   2.523   4.048 -0.2905  1.0677  0.4779
11496WAT     H246705   2.624   2.474   4.082 -0.1463 -0.1035 -0.6035
11496WAT    EPW46706   2.683   2.482   4.031  0.2188  0.4896 -0.1058
11497WAT      O46707   5.510   4.221   5.674 -0.8017 -0.8519 -0.2466
11497WAT     H146708   5.472   4.188   5.603  1.5707 -2.2350 -1.0076
11497WAT     H246709   5.595   4.217   5.655 -0.1707  0.5113  1.9561
11497WAT    EPW46710   5.517   4.215   5.661 -0.3580 -0.8549 -0.0336
11498WAT      O46711   3.840   0.471   0.231  0.3851 -0.2283 -0.0872
11498WAT     H146712   3.824   0.509   0.154  1.1303  0.3085  0.0203
11498WAT     H246713   3.926   0.456   0.229  0.0949 -2.2220 -0.2670
11498WAT    EPW46714   3.850   0.474   0.219  0.4524 -0.4435 -0.0979
11499WAT      O46715   2.923   6.495   0.995  0.0536 -0.4546 -0.7874
11499WAT     H146716   2.964   6.424   1.024  0.1551 -0.5998 -1.2856
11499WAT     H246717   2.976   6.560   1.018  0.3889 -0.6120 -1.1179
11499WAT    EPW46718   2.937   6.494   1.003  0.1181 -0.4993 -0.9098
11500WAT      O46719   5.007   3.765   2.952  0.4850 -0.1010 -0.0152
11500WAT     H146720   4.943   3.824   2.949  1.3802  0.9224 -0.0956
11500WAT     H246721   4.993   3.723   3.027 -1.4883 -1.3935 -1.0469
11500WAT    EPW46722   4.996   3.768   2.963  0.3257 -0.1408 -0.1795
11501WAT      O46723   4.621   5.083   1.188 -0.2588 -0.1928 -0.0013
11501WAT     H146724   4.575   5.105   1.259  1.3092 -0.9766  1.3190
11501WAT     H246725   4.704   5.091   1.214  0.4435  1.6591 -2.4468
11501WAT    EPW46726   4.627   5.087   1.203  0.0766 -0.0350 -0.1675
11502WAT      O46727   3.894   2.752   1.267 -0.2522  0.1294 -0.2819
11502WAT     H146728   3.927   2.726   1.344 -0.4185 -0.2325 -0.3292
11502WAT     H246729   3.830   2.807   1.290 -0.2771  0.0519 -0.1607
11502WAT    EPW46730   3.890   2.756   1.282 -0.2804  0.0645 -0.2710
11503WAT      O46731   4.299   6.000   4.670  0.4619 -0.0561 -0.3042
11503WAT     H146732   4.358   5.958   4.621  1.2261 -0.4059  0.8913
11503WAT     H246733   4.285   5.945   4.737  0.9963  1.2931  0.9552
11503WAT    EPW46734   4.306   5.985   4.672  0.6537  0.0916  0.0584
11504WAT      O46735   6.230   2.323   6.930  1.1468  0.0417  0.2965
11504WAT     H146736   6.222   2.410   6.927  0.8766 -0.0021 -0.6925
11504WAT     H246737   6.296   2.307   6.876 -0.9798 -0.5803 -2.3341
11504WAT    EPW46738   6.238   2.334   6.922  0.7928 -0.0567 -0.2382
11505WAT      O46739   0.275   0.699   1.016 -0.1415  0.5441  0.0276
11505WAT     H146740   0.236   0.730   1.087  2.0368  1.6893  0.8262
11505WAT     H246741   0.255   0.757   0.954 -0.7056  0.4319  0.1014
11505WAT    EPW46742   0.266   0.712   1.017  0.0969  0.6967  0.1564
11506WAT      O46743   0.809   5.240   0.498  0.6261  0.2195  0.0897
11506WAT     H146744   0.738   5.278   0.531 -0.9665 -1.1025 -1.6105
11506WAT     H246745   0.842   5.301   0.445  1.0427  0.9907  1.2006
11506WAT    EPW46746   0.804   5.255   0.495  0.4524  0.1381  0.0027
11507WAT      O46747   4.159   6.947   1.478 -0.2854  0.2925 -0.1039
11507WAT     H146748   4.099   6.967   1.417  1.5323 -0.4038 -2.2925
11507WAT     H246749   4.130   6.987   1.549 -1.7588  2.5811 -1.8269
11507WAT    EPW46750   4.146   6.956   1.479 -0.2345  0.5277 -0.6817
11508WAT      O46751   2.137   6.669   6.902 -0.0165 -1.0441 -0.0218
11508WAT     H146752   2.053   6.688   6.918  0.4903  0.9993  0.4254
11508WAT     H246753   2.177   6.688   6.977  0.9289 -1.6432 -0.3552
11508WAT    EPW46754   2.130   6.675   6.915  0.1980 -0.8307 -0.0050
11509WAT      O46755   4.025   4.641   4.491 -0.4639 -0.2785 -0.0658
11509WAT     H146756   3.993   4.717   4.463  0.2189 -0.3676 -1.1526
11509WAT     H246757   3.978   4.624   4.563 -1.5694  0.4913 -0.5721
11509WAT    EPW46758   4.013   4.650   4.498 -0.5263 -0.1780 -0.3011
11510WAT      O46759   6.819   2.373   5.936  0.0601  0.6911 -0.6969
11510WAT     H146760   6.844   2.386   6.019 -0.9119 -0.4177 -0.1934
11510WAT     H246761   6.788   2.450   5.911 -0.3525  0.8425  0.2453
11510WAT    EPW46762   6.819   2.386   5.945 -0.1444  0.5497 -0.4833
11511WAT      O46763   5.955   6.480   6.666  0.0468  0.0805 -0.7998
11511WAT     H146764   5.962   6.464   6.580 -0.8415 -0.1586 -0.8402
11511WAT     H246765   6.037   6.470   6.695  0.2445 -0.5308 -1.5089
11511WAT    EPW46766   5.968   6.476   6.657 -0.0552 -0.0451 -0.9105
11512WAT      O46767   7.233   0.942   6.699  0.2193  0.2038 -0.1181
11512WAT     H146768   7.220   1.025   6.678 -0.0299  0.1647 -0.1228
11512WAT     H246769   7.152   0.910   6.707  0.2839 -0.3450 -1.3659
11512WAT    EPW46770   7.219   0.949   6.697  0.1921  0.1170 -0.3032
11513WAT      O46771   2.475   1.603   5.135  0.0580  0.0098 -0.2427
11513WAT     H146772   2.507   1.626   5.058  1.5371 -0.1079  0.2960
11513WAT     H246773   2.395   1.574   5.117 -0.0402  1.0220 -1.5664
11513WAT    EPW46774   2.468   1.602   5.121  0.2620  0.1419 -0.3587
11514WAT      O46775   0.810   1.068   1.741  0.3401  0.1860 -0.1970
11514WAT     H146776   0.859   1.139   1.729  0.4505  0.0156 -0.7715
11514WAT     H246777   0.814   1.054   1.827 -0.6336  1.5601  0.1021
11514WAT    EPW46778   0.818   1.076   1.752  0.2126  0.3638 -0.2377
11515WAT      O46779   3.564   2.219   1.144  0.4447  0.4953  0.2809
11515WAT     H146780   3.533   2.298   1.161  1.4819  0.9339  0.2126
11515WAT     H246781   3.648   2.225   1.164  0.4603 -0.7189  0.6760
11515WAT    EPW46782   3.572   2.231   1.150  0.6002  0.3807  0.3292
11516WAT      O46783   0.821   3.065   1.148 -0.0501 -1.1948  0.2409
11516WAT     H146784   0.814   3.123   1.213 -1.2847 -1.1886  0.1316
11516WAT     H246785   0.787   3.107   1.079 -0.7431 -1.9526  0.1071
11516WAT    EPW46786   0.815   3.080   1.147 -0.3348 -1.3058  0.2050
11517WAT      O46787   1.715   4.758   2.846 -0.2269 -0.0644  0.3348
11517WAT     H146788   1.660   4.741   2.780  0.3056 -0.9108  0.1094
11517WAT     H246789   1.701   4.694   2.902  0.6525 -0.3900  0.1986
11517WAT    EPW46790   1.705   4.746   2.844 -0.0184 -0.2375  0.2814
11518WAT      O46791   4.845   0.078   1.844 -0.5831 -0.0408 -0.6545
11518WAT     H146792   4.911   0.074   1.901  0.2583 -2.6086 -1.6355
11518WAT     H246793   4.853   0.157   1.809  0.5711  0.5607  0.8266
11518WAT    EPW46794   4.856   0.089   1.848 -0.2883 -0.3313 -0.5806
11519WAT      O46795   6.651   1.771   6.859  0.4778 -0.4895 -0.0670
11519WAT     H146796   6.732   1.749   6.835  0.4994 -0.2269 -0.2416
11519WAT     H246797   6.628   1.707   6.914  0.6578 -0.7739 -0.3143
11519WAT    EPW46798   6.659   1.758   6.863  0.5076 -0.4927 -0.1293
11520WAT      O46799   3.759   6.926   2.665 -0.0184  0.1181 -0.4667
11520WAT     H146800   3.714   6.920   2.591  1.2954 -1.1394 -1.2208
11520WAT     H246801   3.811   6.856   2.663  0.3373  0.2747  1.4609
11520WAT    EPW46802   3.760   6.915   2.654  0.2282 -0.0445 -0.2934
11521WAT      O46803   5.266   4.881   2.602  0.4042  0.3113  0.1043
11521WAT     H146804   5.218   4.820   2.561 -1.3081  1.1531  0.7763
11521WAT     H246805   5.251   4.953   2.555  0.8352  0.6418  0.4676
11521WAT    EPW46806   5.257   4.883   2.589  0.2149  0.4845  0.2572
11522WAT      O46807   0.913   0.810   4.194  0.2342  0.0642  0.7634
11522WAT     H146808   0.878   0.787   4.117 -0.1461  1.4728  0.5028
11522WAT     H246809   0.915   0.897   4.191  1.1195  0.1076  1.9594
11522WAT    EPW46810   0.908   0.819   4.182  0.3088  0.2787  0.9016
11523WAT      O46811   0.292   4.565   3.045  0.4900 -0.6843 -1.3030
11523WAT     H146812   0.316   4.564   3.129 -0.3785  0.3866 -1.0240
11523WAT     H246813   0.205   4.564   3.048  0.3595  1.7686 -2.0784
11523WAT    EPW46814   0.283   4.565   3.057  0.3424 -0.1638 -1.3763
11524WAT      O46815   7.011   1.611   3.854  0.2540  0.1084  1.1961
11524WAT     H146816   7.074   1.561   3.820 -2.6679 -1.0416 -3.4361
11524WAT     H246817   6.946   1.555   3.867 -1.2780  1.8613  1.3968
11524WAT    EPW46818   7.011   1.595   3.851 -0.4039  0.1975  0.5415
11525WAT      O46819   1.555   5.588   0.537 -0.3136  0.4855  0.2681
11525WAT     H146820   1.489   5.531   0.545 -0.9064  0.8538 -1.4919
11525WAT     H246821   1.615   5.543   0.492 -1.1822  1.4646 -2.0192
11525WAT    EPW46822   1.554   5.573   0.531 -0.5295  0.6845 -0.3298
11526WAT      O46823   5.379   2.178   7.350  0.1471  0.1144 -0.2551
11526WAT     H146824   5.325   2.246   7.353  1.3360  1.0502  1.8654
11526WAT     H246825   5.332   2.116   7.310 -1.4637  1.7094 -0.9683
11526WAT    EPW46826   5.364   2.179   7.344  0.0847  0.4882 -0.0472
11527WAT      O46827   4.111   5.193   3.777 -0.1766 -0.5576  0.0612
11527WAT     H146828   4.149   5.257   3.823 -1.1434  0.2461 -0.2408
11527WAT     H246829   4.179   5.154   3.738  0.4561  0.0588  0.5137
11527WAT    EPW46830   4.127   5.197   3.778 -0.2260 -0.3478  0.0834
11528WAT      O46831   5.505   5.021   1.283 -0.4775 -0.5234  0.3355
11528WAT     H146832   5.503   5.024   1.196 -0.2763  0.1955  0.3467
11528WAT     H246833   5.584   5.052   1.302 -0.7408 -0.1156  0.7888
11528WAT    EPW46834   5.516   5.026   1.273 -0.4866 -0.3569  0.4041
11529WAT      O46835   3.305   3.142   4.126  0.7406 -0.3863  0.0619
11529WAT     H146836   3.292   3.198   4.192 -0.5480  0.3662 -0.7712
11529WAT     H246837   3.312   3.065   4.165 -1.1279 -0.1160  1.0536
11529WAT    EPW46838   3.304   3.139   4.142  0.2742 -0.2352  0.0853
11530WAT      O46839   6.109   0.799   1.065 -0.1420  0.6341 -0.4979
11530WAT     H146840   6.069   0.825   1.138  2.1180 -0.8674  1.4149
11530WAT     H246841   6.150   0.871   1.037 -0.6913  1.1214 -0.0761
11530WAT    EPW46842   6.109   0.814   1.072  0.1107  0.4843 -0.1530
11531WAT      O46843   5.325   4.666   2.817 -0.6888  0.2743  0.2043
11531WAT     H146844   5.288   4.739   2.786 -2.1406  0.4967  2.2358
11531WAT     H246845   5.259   4.609   2.821  0.3376 -1.0580 -0.9346
11531WAT    EPW46846   5.310   4.668   2.813 -0.7517  0.1103  0.3362
11532WAT      O46847   0.538   3.132   5.193  0.2242 -0.7756 -0.5122
11532WAT     H146848   0.466   3.170   5.223  0.6678 -0.2308 -0.1034
11532WAT     H246849   0.521   3.118   5.109  0.1458  0.6329 -0.7652
11532WAT    EPW46850   0.525   3.136   5.185  0.2782 -0.4870 -0.4892
11533WAT      O46851   0.630   0.244   3.410  0.1432  0.3822 -0.0065
11533WAT     H146852   0.575   0.238   3.343 -0.4138  1.8686  0.2653
11533WAT     H246853   0.606   0.180   3.463 -1.5157  1.1284  0.2025
11533WAT    EPW46854   0.619   0.234   3.408 -0.1841  0.7120  0.0645
11534WAT      O46855   3.235   6.579   3.540  0.6378  0.6526  0.4234
11534WAT     H146856   3.222   6.504   3.497 -0.9711  0.3632  1.3299
11534WAT     H246857   3.214   6.640   3.481  1.2739  0.3726 -0.1003
11534WAT    EPW46858   3.230   6.577   3.525  0.4941  0.5685  0.4800
11535WAT      O46859   0.321   2.849   6.217 -0.0635  0.0698 -0.2222
11535WAT     H146860   0.320   2.895   6.143 -0.6143  0.8326  0.2541
11535WAT     H246861   0.245   2.807   6.216 -0.4543  0.7452  0.3133
11535WAT    EPW46862   0.310   2.849   6.206 -0.2026  0.2822 -0.0727
11536WAT      O46863   6.593   3.872   4.517 -0.7045  0.0091 -0.2252
11536WAT     H146864   6.605   3.873   4.431 -1.5943 -0.6227 -0.3664
11536WAT     H246865   6.577   3.956   4.536 -1.1582  0.0536 -0.7741
11536WAT    EPW46866   6.593   3.884   4.507 -0.9030 -0.0777 -0.3272
11537WAT      O46867   5.469   4.500   6.464  0.4359 -0.0125  0.7365
11537WAT     H146868   5.544   4.472   6.428 -0.3508  0.9589 -1.9280
11537WAT     H246869   5.484   4.585   6.478 -0.4647  0.4755 -0.9514
11537WAT    EPW46870   5.483   4.509   6.461  0.1867  0.2031  0.0936
11538WAT      O46871   3.848   4.370   3.394  0.0163  0.3668  0.2629
11538WAT     H146872   3.866   4.386   3.478  1.1320 -1.1322  0.3367
11538WAT     H246873   3.846   4.450   3.359 -2.1029  1.1756  1.9659
11538WAT    EPW46874   3.851   4.384   3.401 -0.1320  0.2648  0.5254
11539WAT      O46875   5.678   1.410   0.360 -0.0029  0.1446 -0.1292
11539WAT     H146876   5.596   1.414   0.329 -0.2523 -0.1391  0.4637
11539WAT     H246877   5.687   1.484   0.406 -0.3265 -0.3173  0.7145
11539WAT    EPW46878   5.667   1.421   0.362 -0.0875  0.0345  0.0830
11540WAT      O46879   6.354   1.633   0.348 -0.1827 -0.4252  0.0181
11540WAT     H146880   6.292   1.618   0.289 -0.6298  0.6642  0.1803
11540WAT     H246881   6.408   1.565   0.339 -1.7113 -1.7454  0.3227
11540WAT    EPW46882   6.353   1.621   0.338 -0.4746 -0.4593  0.0870
11541WAT      O46883   6.814   0.049   4.608 -0.4541  0.0956  0.2306
11541WAT     H146884   6.789   0.004   4.678 -2.3204  0.9767  0.2059
11541WAT     H246885   6.761   0.021   4.545 -0.1255  0.7196 -0.3386
11541WAT    EPW46886   6.803   0.039   4.609 -0.6812  0.3179  0.1429
11542WAT      O46887   3.566   5.213   3.910  0.5720  0.4383 -0.2701
11542WAT     H146888   3.500   5.170   3.947  0.8622  0.3028  0.1034
11542WAT     H246889   3.593   5.266   3.974  1.3910 -0.1438 -0.1180
11542WAT    EPW46890   3.560   5.215   3.925  0.7358  0.3323 -0.1925
11543WAT      O46891   3.413   6.700   3.699 -0.0844 -0.6287  0.1631
11543WAT     H146892   3.440   6.779   3.673 -0.8519 -0.9825 -1.9131
11543WAT     H246893   3.347   6.682   3.644 -1.9107 -1.4811  2.4842
11543WAT    EPW46894   3.407   6.709   3.687 -0.4676 -0.8069  0.1993
11544WAT      O46895   3.652   6.825   2.428  0.2566 -0.2742  0.0484
11544WAT     H146896   3.568   6.801   2.414 -0.0510 -0.1449  1.5572
11544WAT     H246897   3.696   6.750   2.416 -0.3261 -0.8496  1.3251
11544WAT    EPW46898   3.646   6.810   2.424  0.1251 -0.3401  0.4599
11545WAT      O46899   3.903   3.147   4.831  0.2839 -0.0273 -0.6084
11545WAT     H146900   3.986   3.169   4.844  0.6166 -1.6374  0.1749
11545WAT     H246901   3.862   3.180   4.901  0.2638  0.6035 -0.9036
11545WAT    EPW46902   3.909   3.155   4.843  0.3300 -0.1720 -0.5363
11546WAT      O46903   4.246   3.667   1.248 -0.2128 -0.0100  0.3786
11546WAT     H146904   4.238   3.751   1.269 -0.7407  0.0509 -0.0525
11546WAT     H246905   4.190   3.657   1.182  0.2621 -0.5708  0.0572
11546WAT    EPW46906   4.237   3.678   1.241 -0.2206 -0.0838  0.2675
11547WAT      O46907   2.447   7.058   5.167 -0.2595 -0.0691 -0.4560
11547WAT     H146908   2.479   7.107   5.232 -0.7390 -0.4551  0.0800
11547WAT     H246909   2.511   7.058   5.108  1.7061 -2.5566  1.4498
11547WAT    EPW46910   2.461   7.066   5.168 -0.0400 -0.4936 -0.0953
11548WAT      O46911   6.341   5.250   4.191  0.0298  0.4504  0.3322
11548WAT     H146912   6.371   5.224   4.113  1.9956 -0.7989  1.4150
11548WAT     H246913   6.297   5.181   4.220  1.8165 -0.3003  1.4952
11548WAT    EPW46914   6.339   5.236   4.184  0.5841  0.1549  0.6640
11549WAT      O46915   7.231   4.282   3.228 -0.1538  0.0544 -0.0294
11549WAT     H146916   7.291   4.219   3.227  0.7123  0.8356  0.9649
11549WAT     H246917   7.211   4.290   3.312 -1.3162  0.1635 -0.2850
11549WAT    EPW46918   7.237   4.274   3.240 -0.1976  0.1859  0.0797
11550WAT      O46919   0.670   6.608   0.960 -0.9480  0.5313 -0.3733
11550WAT     H146920   0.695   6.535   1.001 -0.2902 -0.8171 -2.9919
11550WAT     H246921   0.583   6.603   0.961 -0.9307  0.1285  0.1176
11550WAT    EPW46922   0.661   6.596   0.966 -0.8482  0.2726 -0.6876
11551WAT      O46923   0.003   3.603   6.706 -0.4683 -0.0698 -0.0138
11551WAT     H146924  -0.042   3.644   6.644  0.5248 -1.0962 -1.4828
11551WAT     H246925   0.086   3.618   6.684 -0.0881 -1.6761  0.1966
11551WAT    EPW46926   0.009   3.611   6.694 -0.2654 -0.4587 -0.1997
11552WAT      O46927   2.445   3.234   3.948  0.1748  0.0383 -0.6154
11552WAT     H146928   2.499   3.171   3.976  1.2233  1.2336  0.1459
11552WAT     H246929   2.474   3.305   3.989 -0.5576  1.1630 -1.9822
11552WAT    EPW46930   2.457   3.235   3.958  0.2215  0.3810 -0.7048
11553WAT      O46931   6.458   6.640   1.345  0.0035  0.0992  0.5232
11553WAT     H146932   6.519   6.694   1.314  2.7759 -2.9976  0.0377
11553WAT     H246933   6.406   6.625   1.277  0.5349  0.4078  0.0442
11553WAT    EPW46934   6.459   6.646   1.331  0.4916 -0.3126  0.3808
11554WAT      O46935   4.112   4.261   3.361 -0.4551  0.6770  0.1200
11554WAT     H146936   4.118   4.180   3.329  0.6837  0.9715 -0.4404
11554WAT     H246937   4.029   4.265   3.389 -0.2384 -1.0232  1.1331
11554WAT    EPW46938   4.101   4.250   3.360 -0.2549  0.4694  0.1869
11555WAT      O46939   2.184   7.182   4.362  0.2323  0.3913  0.0004
11555WAT     H146940   2.137   7.110   4.346  0.2166  0.6884 -1.4052
11555WAT     H246941   2.156   7.239   4.303  0.3289  1.5381  1.0220
11555WAT    EPW46942   2.173   7.180   4.351  0.2443  0.6046 -0.0563
11556WAT      O46943   1.811   1.743   2.198 -0.5279 -0.4221  0.6764
11556WAT     H146944   1.871   1.772   2.141 -1.5477 -0.9743 -0.7506
11556WAT     H246945   1.736   1.770   2.163 -1.1473  0.5227  2.5790
11556WAT    EPW46946   1.809   1.751   2.184 -0.7700 -0.3641  0.7466
11557WAT      O46947   3.999   3.073   5.417  0.2807 -0.4037 -0.3935
11557WAT     H146948   4.034   3.010   5.367  0.5001 -0.1896 -0.5117
11557WAT     H246949   3.932   3.034   5.455 -0.5019 -0.3068 -1.6217
11557WAT    EPW46950   3.995   3.058   5.415  0.1975 -0.3578 -0.5924
11558WAT      O46951   0.674   1.191   1.264 -0.3373  0.2543  0.0564
11558WAT     H146952   0.663   1.274   1.290 -0.4651  0.5738 -0.9852
11558WAT     H246953   0.679   1.147   1.340 -2.3697  0.9353  0.6589
11558WAT    EPW46954   0.673   1.196   1.279 -0.6564  0.4021 -0.0085
11559WAT      O46955   4.842   6.386   1.678 -0.1551  0.7405  0.2959
11559WAT     H146956   4.880   6.456   1.643 -0.7654  1.6355  1.3502
11559WAT     H246957   4.908   6.332   1.696  0.4578  1.6428  0.7641
11559WAT    EPW46958   4.857   6.388   1.675 -0.1547  1.0060  0.5208
11560WAT      O46959   3.660   5.824   5.626 -0.4664  0.1121  0.8978
11560WAT     H146960   3.700   5.757   5.586  0.1876  0.7580  0.4505
11560WAT     H246961   3.649   5.883   5.563  0.9486  1.3114  1.7035
11560WAT    EPW46962   3.665   5.823   5.611 -0.1607  0.3847  0.9507
11561WAT      O46963   5.763   2.916   5.143  0.0877  0.5395  0.2124
11561WAT     H146964   5.816   2.930   5.075  0.7493  1.4051  0.8838
11561WAT     H246965   5.771   2.831   5.158 -1.4662 -0.0740 -1.8965
11561WAT    EPW46966   5.772   2.906   5.135 -0.0442  0.5768  0.0000
11562WAT      O46967   0.912   0.650   7.331 -0.4363 -0.4186 -0.1994
11562WAT     H146968   0.901   0.736   7.322 -0.1175 -0.1580  1.5662
11562WAT     H246969   0.834   0.617   7.314 -0.5383  0.1949 -0.9932
11562WAT    EPW46970   0.899   0.658   7.327 -0.4043 -0.2895 -0.0559
11563WAT      O46971   6.487   3.191   7.086 -1.1111 -0.1279 -0.3488
11563WAT     H146972   6.459   3.116   7.119 -1.5963 -0.7591 -2.0784
11563WAT     H246973   6.530   3.228   7.152 -2.3398 -1.1176  1.0651
11563WAT    EPW46974   6.489   3.186   7.101 -1.3643 -0.3673 -0.3954
11564WAT      O46975   2.556   1.270   2.691 -0.1245 -0.0819  0.0063
11564WAT     H146976   2.631   1.283   2.735 -0.4894  0.5922  0.4452
11564WAT     H246977   2.499   1.253   2.754 -0.1933 -1.3847 -0.3839
11564WAT    EPW46978   2.559   1.269   2.707 -0.1885 -0.1748  0.0135
11565WAT      O46979   7.153   0.226   3.725 -0.1539  0.2695  0.3271
11565WAT     H146980   7.095   0.274   3.769 -0.1487  0.2349  0.3720
11565WAT     H246981   7.104   0.184   3.665 -0.0757  0.7848 -0.1048
11565WAT    EPW46982   7.137   0.227   3.722 -0.1416  0.3405  0.2699
11566WAT      O46983   0.903   3.807   6.694  0.1786  0.1260 -0.0439
11566WAT     H146984   0.824   3.771   6.707  0.1364 -0.0689 -0.7977
11566WAT     H246985   0.921   3.845   6.771 -1.2165  1.3053 -0.2673
11566WAT    EPW46986   0.894   3.807   6.707 -0.0338  0.2714 -0.1882
11567WAT      O46987   0.536   5.735   5.325  0.4278  0.1289 -0.3359
11567WAT     H146988   0.598   5.683   5.293  0.8639  0.4560 -0.0409
11567WAT     H246989   0.519   5.702   5.404  0.8006  0.4897 -0.0924
11567WAT    EPW46990   0.543   5.723   5.332  0.5473  0.2305 -0.2564
11568WAT      O46991   1.756   0.001   1.107  0.1617  0.1384 -0.3926
11568WAT     H146992   1.828  -0.028   1.068 -0.3562 -1.3242 -0.3179
11568WAT     H246993   1.721  -0.071   1.141 -0.4320  1.0848  1.0766
11568WAT    EPW46994   1.761  -0.014   1.106 -0.0025  0.0621 -0.1645
11569WAT      O46995   4.130   3.328   0.283 -0.6851 -0.4547 -0.1603
11569WAT     H146996   4.103   3.279   0.350  1.6308 -0.3422  0.9702
11569WAT     H246997   4.192   3.280   0.246 -0.0905  0.5669 -0.5533
11569WAT    EPW46998   4.135   3.314   0.288 -0.2552 -0.2872 -0.0513
11570WAT      O46999   1.983   6.972   1.713  0.0827 -0.2298  0.2625
11570WAT     H147000   1.970   6.890   1.687 -2.2252  0.2242 -0.2284
11570WAT     H247001   2.030   7.007   1.648  1.1708 -1.1337  0.5195
11570WAT    EPW47002   1.988   6.965   1.700 -0.0975 -0.2962  0.2280
11571WAT      O47003   1.115   6.902   3.031  0.1309  0.3644 -0.2339
11571WAT     H147004   1.104   6.866   3.110  0.1670 -0.1129 -0.4464
11571WAT     H247005   1.201   6.910   3.024  0.1631 -0.1700 -0.4807
11571WAT    EPW47006   1.126   6.898   3.042  0.1410  0.2149 -0.3018
11572WAT      O47007   4.995   2.294   3.581 -0.3316  0.6460 -0.2443
11572WAT     H147008   5.006   2.224   3.631 -2.7358  1.6391  1.8581
11572WAT     H247009   4.963   2.262   3.507 -0.7731 -0.5492  0.4447
11572WAT    EPW47010   4.992   2.279   3.577 -0.7520  0.6161  0.1680
11573WAT      O47011   1.196   1.883   2.198  0.3662  0.2937 -0.0994
11573WAT     H147012   1.145   1.953   2.192 -0.2066 -0.1575 -0.5653
11573WAT     H247013   1.218   1.881   2.282  0.0731  0.8005 -0.0041
11573WAT    EPW47014   1.192   1.893   2.210  0.2383  0.3019 -0.1542
11574WAT      O47015   2.726   6.557   2.383 -0.0434 -0.1265 -0.0713
11574WAT     H147016   2.721   6.556   2.296 -0.2271  0.8400 -0.0829
11574WAT     H247017   2.808   6.530   2.398  0.2315  0.3731 -0.5849
11574WAT    EPW47018   2.738   6.553   2.372 -0.0300  0.0901 -0.1489
11575WAT      O47019   7.173   3.535   5.930  0.1514 -0.3430 -0.8437
11575WAT     H147020   7.191   3.455   5.961 -0.8150 -0.9552 -1.7717
11575WAT     H247021   7.189   3.527   5.845  1.3576  0.8823 -0.7668
11575WAT    EPW47022   7.178   3.522   5.922  0.1869 -0.2524 -0.9694
11576WAT      O47023   1.661   4.281   1.868  0.0681  0.1514  0.0778
11576WAT     H147024   1.616   4.210   1.893  0.6411 -0.0886  0.4549
11576WAT     H247025   1.644   4.287   1.783  0.7890 -1.0348 -0.1858
11576WAT    EPW47026   1.652   4.271   1.859  0.2592 -0.0593  0.0945
11577WAT      O47027   3.483   5.910   6.119 -0.5353 -0.4117  0.7148
11577WAT     H147028   3.524   5.836   6.141  1.0611  0.3842  0.5638
11577WAT     H247029   3.400   5.894   6.138 -0.1392 -2.0564  1.1851
11577WAT    EPW47030   3.477   5.897   6.125 -0.2410 -0.5371  0.7619
11578WAT      O47031   5.249   4.478   0.120  0.0161  0.8303  0.1296
11578WAT     H147032   5.263   4.444   0.041  0.5067  1.5078 -0.0817
11578WAT     H247033   5.190   4.424   0.155 -0.3232  0.6102 -0.7539
11578WAT    EPW47034   5.242   4.465   0.113  0.0384  0.8979 -0.0321
11579WAT      O47035   2.226   0.096   2.087 -0.0862 -0.6804  0.2764
11579WAT     H147036   2.260   0.169   2.122 -0.1516 -0.0697 -0.8862
11579WAT     H247037   2.247   0.034   2.145 -0.4079  0.3147  1.5140
11579WAT    EPW47038   2.234   0.097   2.101 -0.1434 -0.4432  0.2875
11580WAT      O47039   1.891   0.956   0.298 -0.2539 -0.4119  0.1515
11580WAT     H147040   1.916   1.026   0.252 -1.7145 -1.2510 -2.0985
11580WAT     H247041   1.806   0.968   0.309 -0.1956 -0.9786  1.3785
11580WAT    EPW47042   1.882   0.968   0.293 -0.4611 -0.6196  0.0004
11581WAT      O47043   1.786   6.031   2.347  0.1274 -0.3078  0.3099
11581WAT     H147044   1.776   6.117   2.341  0.4911 -0.1698  1.4329
11581WAT     H247045   1.789   6.017   2.433  1.2774 -1.2920  0.1354
11581WAT    EPW47046   1.785   6.042   2.359  0.3510 -0.4328  0.4500
11582WAT      O47047   4.883   6.408   5.777  0.4018  0.7367  0.0840
11582WAT     H147048   4.902   6.354   5.842 -3.1919  1.0505  1.6281
11582WAT     H247049   4.949   6.465   5.777  1.5768 -0.5237  1.9832
11582WAT    EPW47050   4.895   6.409   5.786  0.0445  0.5969  0.5926
11583WAT      O47051   3.057   3.530   2.390  0.2111  0.4361 -0.2630
11583WAT     H147052   3.036   3.491   2.465  1.1485 -0.8186 -0.6176
11583WAT     H247053   3.078   3.611   2.414 -2.0630  0.8748  0.4685
11583WAT    EPW47054   3.057   3.536   2.404  0.0136  0.3156 -0.2073
11584WAT      O47055   5.334   2.047   1.663 -0.7134 -1.3556  0.1223
11584WAT     H147056   5.265   2.066   1.613  0.9507  0.0812 -1.7869
11584WAT     H247057   5.393   2.107   1.639  1.1231 -2.3785  1.8610
11584WAT    EPW47058   5.332   2.059   1.652 -0.1963 -1.2944  0.0971
11585WAT      O47059   5.665   0.612   4.148  0.3189  0.3331  0.3713
11585WAT     H147060   5.680   0.690   4.113  0.7428  0.2329  0.3198
11585WAT     H247061   5.733   0.600   4.201  1.3207 -0.8184 -1.0772
11585WAT    EPW47062   5.677   0.622   4.150  0.5295  0.1482  0.1497
11586WAT      O47063   5.582   2.173   0.436 -0.6432 -0.6271  0.0793
11586WAT     H147064   5.635   2.119   0.480 -0.3514 -0.1415  0.3371
11586WAT     H247065   5.627   2.248   0.435  0.2885 -1.0861 -2.7623
11586WAT    EPW47066   5.597   2.176   0.442 -0.4624 -0.6231 -0.3024
11587WAT      O47067   0.765   1.582   6.833  0.3662  0.3618 -0.0847
11587WAT     H147068   0.851   1.588   6.816  0.1722 -0.2283 -1.3633
11587WAT     H247069   0.763   1.551   6.914  1.4229 -1.7553 -0.7685
11587WAT    EPW47070   0.778   1.578   6.842  0.4936 -0.0381 -0.3746
11588WAT      O47071   7.212   2.238   2.528  0.2284  0.2784  0.3553
11588WAT     H147072   7.198   2.252   2.443  2.2218  0.8295  0.0650
11588WAT     H247073   7.201   2.152   2.537  0.2145  0.1764 -0.5235
11588WAT    EPW47074   7.209   2.228   2.517  0.5208  0.3447  0.1826
11589WAT      O47075   5.527   3.800   4.522 -0.1881 -0.3847 -0.1285
11589WAT     H147076   5.554   3.867   4.570 -1.2741 -0.1165  0.1144
11589WAT     H247077   5.494   3.744   4.581 -1.3534 -0.1344 -0.5201
11589WAT    EPW47078   5.526   3.802   4.538 -0.5206 -0.3081 -0.1505
11590WAT      O47079   0.916   0.668   5.485 -0.1878  0.3313 -0.3638
11590WAT     H147080   0.854   0.607   5.488 -0.1889  0.2419 -1.5020
11590WAT     H247081   0.892   0.718   5.417 -0.2524  1.6808  0.6267
11590WAT    EPW47082   0.903   0.666   5.475 -0.1975  0.5174 -0.3856
11591WAT      O47083   0.281   7.053   1.470  0.2088  0.3586 -0.2098
11591WAT     H147084   0.349   7.084   1.516  0.9962 -0.2791 -0.9076
11591WAT     H247085   0.287   6.967   1.482 -1.7938  0.3778  1.5073
11591WAT    EPW47086   0.292   7.045   1.479  0.0293  0.2672 -0.0592
11592WAT      O47087   0.924   5.615   5.505  0.3582 -0.0717 -0.1384
11592WAT     H147088   1.011   5.617   5.509  0.3392  0.9346  0.0414
11592WAT     H247089   0.908   5.589   5.423  0.8581  1.1754 -0.6684
11592WAT    EPW47090   0.934   5.612   5.493  0.4292  0.2612 -0.1902
11593WAT      O47091   2.566   6.412   1.283  0.0586 -0.0741  0.7910
11593WAT     H147092   2.623   6.346   1.297 -1.3527 -1.2371  1.2761
11593WAT     H247093   2.603   6.479   1.325  1.4107 -0.5999  0.5221
11593WAT    EPW47094   2.580   6.412   1.291  0.0498 -0.3236  0.8229
11594WAT      O47095   0.984   1.331   2.841  0.2346  0.3858  0.2019
11594WAT     H147096   0.951   1.252   2.822  2.7293 -0.4419 -1.1448
11594WAT     H247097   0.965   1.378   2.769  1.7665 -0.0634 -0.5316
11594WAT    EPW47098   0.976   1.327   2.827  0.8294  0.1972 -0.1054
11595WAT      O47099   1.168   2.533   1.945  0.1983  0.4891 -0.2528
11595WAT     H147100   1.089   2.568   1.931  0.6045  1.0594 -1.2719
11595WAT     H247101   1.222   2.599   1.930  0.8998 -0.0002  0.0548
11595WAT    EPW47102   1.164   2.548   1.941  0.3619  0.5011 -0.3579
11596WAT      O47103   0.453   7.030   7.008 -0.2903 -0.4655  0.3507
11596WAT     H147104   0.457   7.112   7.036  0.9487 -0.5333  0.4320
11596WAT     H247105   0.497   7.032   6.933 -0.6137 -0.9756  0.1432
11596WAT    EPW47106   0.460   7.042   7.001 -0.1551 -0.5509  0.3320
11597WAT      O47107   3.802   4.987   0.969  0.6212  0.8868  0.5645
11597WAT     H147108   3.857   5.044   0.935  0.8187 -1.4827 -3.8421
11597WAT     H247109   3.850   4.944   1.028  2.2993  1.4524 -0.3245
11597WAT    EPW47110   3.817   4.989   0.973  0.8983  0.6203 -0.2177
11598WAT      O47111   6.719   3.049   1.942  0.2523  0.0999 -0.4063
11598WAT     H147112   6.723   3.077   1.860 -0.4661  1.8654  0.1111
11598WAT     H247113   6.801   3.058   1.971  0.0307  1.8559 -0.2322
11598WAT    EPW47114   6.732   3.054   1.934  0.1135  0.6201 -0.3041
11599WAT      O47115   3.832   0.410   5.390  0.0237 -0.5635 -0.4592
11599WAT     H147116   3.859   0.374   5.315 -1.7391 -1.8872 -0.5330
11599WAT     H247117   3.799   0.487   5.366  0.9820 -0.2253 -0.7594
11599WAT    EPW47118   3.831   0.416   5.376 -0.0952 -0.7091 -0.5145
11600WAT      O47119   6.932   4.824   6.615  0.3201 -0.4689 -0.3763
11600WAT     H147120   6.975   4.885   6.569  2.1615 -1.4597 -0.0749
11600WAT     H247121   6.886   4.781   6.555 -1.2639  1.3358 -0.5607
11600WAT    EPW47122   6.932   4.827   6.599  0.3581 -0.3487 -0.3590
11601WAT      O47123   6.604   4.023   3.658  0.0162  0.0854  0.3003
11601WAT     H147124   6.617   4.045   3.742 -0.2368  0.4202  0.2497
11601WAT     H247125   6.545   3.959   3.663 -1.2634  1.2420  0.2733
11601WAT    EPW47126   6.597   4.017   3.671 -0.2102  0.3057  0.2889
11602WAT      O47127   5.495   3.049   6.021  0.2327  0.2736  0.1073
11602WAT     H147128   5.528   3.059   5.941 -1.0959  2.1279 -0.2689
11602WAT     H247129   5.412   3.074   6.013 -0.0996 -0.0745  1.9449
11602WAT    EPW47130   5.488   3.054   6.008 -0.0127  0.4961  0.3232
11603WAT      O47131   2.545   1.777   4.562 -0.2057 -0.5292  0.0870
11603WAT     H147132   2.589   1.847   4.591  0.4052 -0.4731 -0.9197
11603WAT     H247133   2.461   1.797   4.577 -0.1685  1.0995 -1.4858
11603WAT    EPW47134   2.539   1.790   4.568 -0.1100 -0.2803 -0.2940
11604WAT      O47135   5.637   3.479   4.149  0.0416 -0.5058  0.4842
11604WAT     H147136   5.680   3.522   4.212  0.5308 -0.3934  0.0823
11604WAT     H247137   5.637   3.536   4.083 -0.3575 -0.6714  0.3425
11604WAT    EPW47138   5.644   3.494   4.149  0.0549 -0.5136  0.4039
11605WAT      O47139   5.620   4.096   7.268 -0.2633  0.1331  0.3672
11605WAT     H147140   5.548   4.052   7.244 -0.3865 -0.4716  1.7397
11605WAT     H247141   5.645   4.135   7.194  1.1359 -3.9563 -1.6221
11605WAT    EPW47142   5.613   4.095   7.253 -0.0748 -0.5603  0.2761
11606WAT      O47143   4.501   3.783   2.546 -0.4362 -0.1579  0.3094
11606WAT     H147144   4.565   3.762   2.491  0.0439  2.7047 -0.4039
11606WAT     H247145   4.439   3.815   2.494 -1.6993 -1.0922  1.1609
11606WAT    EPW47146   4.501   3.785   2.530 -0.5518  0.1270  0.3298
11607WAT      O47147   4.149   2.149   4.655 -0.0322  0.1557  0.4306
11607WAT     H147148   4.148   2.237   4.658 -0.8780  0.1439  0.7492
11607WAT     H247149   4.156   2.127   4.739 -1.3391 -0.0821  0.4947
11607WAT    EPW47150   4.150   2.159   4.668 -0.3502  0.1188  0.4872
11608WAT      O47151   1.685   3.347   1.358 -0.3473  0.4192  0.1560
11608WAT     H147152   1.648   3.325   1.282  1.0794  0.9337 -0.7235
11608WAT     H247153   1.652   3.289   1.414  0.1847 -1.3605 -1.2815
11608WAT    EPW47154   1.675   3.335   1.355 -0.0579  0.2323 -0.1863
11609WAT      O47155   1.867   1.308   7.004 -0.4580  0.5580  0.2908
11609WAT     H147156   1.822   1.358   7.060  1.0930  0.7694  1.3864
11609WAT     H247157   1.890   1.364   6.941 -1.0677  0.6057  0.1030
11609WAT    EPW47158   1.863   1.324   7.003 -0.3189  0.5963  0.4249
11610WAT      O47159   3.357   5.723   1.686 -0.4420 -0.8486  0.4015
11610WAT     H147160   3.322   5.664   1.632  1.2852 -0.6340 -1.0065
11610WAT     H247161   3.435   5.690   1.705  1.0843  1.4310 -1.3508
11610WAT    EPW47162   3.363   5.709   1.681  0.0386 -0.4802 -0.0653
11611WAT      O47163   3.875   0.051   3.139 -0.8177  0.7443 -0.7844
11611WAT     H147164   3.910  -0.029   3.141 -0.7461  0.7791 -0.4395
11611WAT     H247165   3.944   0.104   3.129 -0.9479  0.7193 -1.8526
11611WAT    EPW47166   3.890   0.047   3.138 -0.8263  0.7457 -0.8913
11612WAT      O47167   0.072   4.709   5.534 -0.1471  0.0827 -0.4235
11612WAT     H147168   0.158   4.699   5.528 -0.1503 -1.5249  1.2839
11612WAT     H247169   0.063   4.789   5.567  0.6344  0.5365 -1.2559
11612WAT    EPW47170   0.083   4.720   5.538 -0.0321 -0.0877 -0.2942
11613WAT      O47171   4.982   1.622   3.774 -0.3473 -0.2038 -0.4546
11613WAT     H147172   5.031   1.692   3.756 -1.0055  0.1878 -0.7470
11613WAT     H247173   4.901   1.653   3.772 -0.6158 -0.8557 -0.0102
11613WAT    EPW47174   4.977   1.637   3.771 -0.4842 -0.2423 -0.4321
11614WAT      O47175   2.320   4.845   1.840 -0.1332 -0.2734  0.4817
11614WAT     H147176   2.289   4.763   1.843 -1.0334 -0.1281 -2.0470
11614WAT     H247177   2.249   4.892   1.822  0.4459  1.0399  1.4979
11614WAT    EPW47178   2.305   4.840   1.837 -0.1806 -0.0579  0.2583
11615WAT      O47179   5.792   6.557   6.153  0.7084 -0.4673 -0.5132
11615WAT     H147180   5.847   6.520   6.210  0.9963  2.0997  0.9974
11615WAT     H247181   5.844   6.602   6.100  0.2150  0.1212 -0.5129
11615WAT    EPW47182   5.808   6.558   6.153  0.6781 -0.0011 -0.2900
11616WAT      O47183   2.530   7.154   2.202  0.3809 -0.1254 -0.1177
11616WAT     H147184   2.446   7.150   2.225  0.3187 -2.3200 -0.4806
11616WAT     H247185   2.527   7.170   2.116  0.3248 -0.1440 -0.1196
11616WAT    EPW47186   2.517   7.155   2.193  0.3634 -0.4523 -0.1716
11617WAT      O47187   0.819   0.132   4.661  0.4695  0.2253 -0.3045
11617WAT     H147188   0.734   0.151   4.657  0.0298 -1.3010  0.8578
11617WAT     H247189   0.841   0.120   4.577 -1.5140 -3.3123 -0.5111
11617WAT    EPW47190   0.810   0.133   4.648  0.1115 -0.5227 -0.1633
11618WAT      O47191   3.627   5.751   2.681 -0.0996 -0.2240  0.1291
11618WAT     H147192   3.618   5.665   2.668 -1.6755 -0.0484 -0.2036
11618WAT     H247193   3.605   5.786   2.604 -1.4971  0.5210  0.8132
11618WAT    EPW47194   3.622   5.743   2.667 -0.5388 -0.0880  0.1810
11619WAT      O47195   3.807   1.830   0.898 -0.7518  0.7231  0.3182
11619WAT     H147196   3.777   1.901   0.857 -0.7053  0.5244 -0.0733
11619WAT     H247197   3.736   1.793   0.930 -1.0015  0.0204 -0.9791
11619WAT    EPW47198   3.792   1.835   0.896 -0.7818  0.5899  0.0687
11620WAT      O47199   2.092   0.615   3.019 -0.2109  0.2465 -0.1894
11620WAT     H147200   2.136   0.674   3.066  2.0013 -0.9456 -0.6463
11620WAT     H247201   2.118   0.629   2.938  1.2744 -2.0113 -0.1900
11620WAT    EPW47202   2.102   0.626   3.014  0.3353 -0.2631 -0.2570
11621WAT      O47203   3.928   1.624   4.326 -0.1022  0.8594  0.1847
11621WAT     H147204   3.986   1.662   4.274 -0.8916 -0.8666 -2.1550
11621WAT     H247205   3.860   1.609   4.273 -1.5021  0.1541  2.0643
11621WAT    EPW47206   3.926   1.627   4.310 -0.4256  0.5002  0.1167
11622WAT      O47207   2.076   4.460   7.247 -0.6038 -0.3996  0.0181
11622WAT     H147208   2.127   4.412   7.300  0.2687  1.6215  1.1143
11622WAT     H247209   2.129   4.479   7.180 -0.0029  1.2321  0.8922
11622WAT    EPW47210   2.092   4.456   7.245 -0.3861  0.1400  0.3092
11623WAT      O47211   1.762   6.324   7.003 -0.0051 -0.1903 -0.4908
11623WAT     H147212   1.688   6.281   7.015 -0.6048  0.9108 -0.1488
11623WAT     H247213   1.737   6.403   6.974  1.0628 -0.0863 -1.2140
11623WAT    EPW47214   1.748   6.330   7.000  0.0640 -0.0123 -0.5471
11624WAT      O47215   3.695   3.727   1.796  0.2014 -0.0152  0.8991
11624WAT     H147216   3.757   3.682   1.754 -0.6378  0.2447 -0.7021
11624WAT     H247217   3.656   3.667   1.846 -1.5500 -1.4869 -1.9174
11624WAT    EPW47218   3.698   3.712   1.797 -0.1813 -0.1942  0.2465
11625WAT      O47219   3.908   1.888   6.290  0.1245  0.0545  0.0159
11625WAT     H147220   3.976   1.836   6.303 -0.6549 -0.7658  1.0146
11625WAT     H247221   3.856   1.841   6.238  0.3613  0.7177 -0.8339
11625WAT    EPW47222   3.910   1.873   6.284  0.0444  0.0313  0.0379
11626WAT      O47223   2.274   4.397   1.547 -0.4992  0.1266 -0.2644
11626WAT     H147224   2.356   4.426   1.554 -0.0942 -0.9687 -0.3067
11626WAT     H247225   2.254   4.372   1.628 -0.9240  0.6881 -0.1850
11626WAT    EPW47226   2.283   4.398   1.560 -0.5021  0.0477 -0.2589
11627WAT      O47227   0.627   3.840   4.752 -0.2449  0.3113  0.5279
11627WAT     H147228   0.621   3.895   4.820 -1.1507 -0.1432  0.8356
11627WAT     H247229   0.652   3.892   4.687 -0.5104  0.9838  0.9441
11627WAT    EPW47230   0.629   3.856   4.753 -0.4179  0.3435  0.6349
11628WAT      O47231   6.305   1.045   2.720  0.3178  0.1506  0.7547
11628WAT     H147232   6.244   1.052   2.658  0.5267 -2.1633  0.1924
11628WAT     H247233   6.259   1.021   2.790  0.1518  2.2475  1.4264
11628WAT    EPW47234   6.289   1.042   2.721  0.3241  0.1186  0.7709
11629WAT      O47235   4.529   2.091   3.769  0.1208 -0.2601 -0.1548
11629WAT     H147236   4.496   2.041   3.706  0.5879 -2.6451  1.3707
11629WAT     H247237   4.555   2.163   3.727  0.4597 -1.7502 -2.6832
11629WAT    EPW47238   4.528   2.095   3.754  0.2398 -0.8326 -0.3029
11630WAT      O47239   6.113   6.355   1.012 -0.3056 -0.0051 -0.3870
11630WAT     H147240   6.150   6.328   0.938 -0.1541 -0.3698 -0.1813
11630WAT     H247241   6.092   6.281   1.053 -3.4877  0.1389 -1.5396
11630WAT    EPW47242   6.116   6.340   1.007 -0.7533 -0.0377 -0.5269
11631WAT      O47243   1.881   6.457   3.478  0.0823  0.2377 -0.0836
11631WAT     H147244   1.896   6.527   3.527  1.0222 -0.8583  1.2558
11631WAT     H247245   1.935   6.467   3.410 -1.1926  1.7398 -0.9500
11631WAT    EPW47246   1.891   6.469   3.475  0.0328  0.2977 -0.0137
11632WAT      O47247   1.745   7.102   1.700  0.0679  0.2093 -0.4049
11632WAT     H147248   1.823   7.063   1.707  0.1861  0.4382 -0.4273
11632WAT     H247249   1.765   7.187   1.705 -0.0186  0.3370 -1.9030
11632WAT    EPW47250   1.760   7.109   1.702  0.0726  0.2620 -0.6295
11633WAT      O47251   6.405   0.333   0.192 -0.4292 -0.3390 -0.3662
11633WAT     H147252   6.378   0.401   0.146  0.5282 -0.7091 -1.5046
11633WAT     H247253   6.358   0.339   0.266 -1.9284  0.3127 -1.3225
11633WAT    EPW47254   6.394   0.344   0.196 -0.5092 -0.2974 -0.6756
11634WAT      O47255   0.324   4.436   4.234  0.2536  0.1566 -0.3641
11634WAT     H147256   0.407   4.411   4.245 -0.0255 -0.9529 -0.5676
11634WAT     H247257   0.310   4.492   4.299  1.3287  0.7914 -0.6656
11634WAT    EPW47258   0.334   4.440   4.245  0.3712  0.0865 -0.4387
11635WAT      O47259   1.416   0.797   6.621 -0.4156 -0.3621  0.1827
11635WAT     H147260   1.492   0.838   6.636 -0.1118  0.1750 -2.3885
11635WAT     H247261   1.357   0.861   6.621 -0.6120 -0.5410  0.4669
11635WAT    EPW47262   1.419   0.813   6.623 -0.3997 -0.3092 -0.1552
11636WAT      O47263   5.400   4.439   6.755 -0.1772 -0.2233  0.0170
11636WAT     H147264   5.321   4.417   6.726 -0.0899  1.0190 -1.3222
11636WAT     H247265   5.443   4.458   6.681  1.0578  0.0696  0.7879
11636WAT    EPW47266   5.395   4.439   6.740  0.0181  0.0034 -0.0670
11637WAT      O47267   4.729   1.617   2.408  0.1388 -0.9476 -0.2756
11637WAT     H147268   4.676   1.670   2.364 -0.1359 -1.7251 -0.8901
11637WAT     H247269   4.676   1.555   2.439  0.1311  0.1036  2.0672
11637WAT    EPW47270   4.713   1.616   2.406  0.0971 -0.9072 -0.0203
11638WAT      O47271   0.458   3.729   7.345  0.5837 -0.0118  0.1946
11638WAT     H147272   0.481   3.813   7.339  1.2629 -0.1708  0.6014
11638WAT     H247273   0.376   3.729   7.313  0.5590  0.8072  0.2300
11638WAT    EPW47274   0.449   3.742   7.339  0.6804  0.0857  0.2599
11639WAT      O47275   0.534   3.039   6.639 -0.8781  0.1683 -0.4968
11639WAT     H147276   0.563   2.980   6.696 -0.7993 -0.2563 -0.9701
11639WAT     H247277   0.451   3.014   6.624 -1.3048  1.0029  0.3645
11639WAT    EPW47278   0.526   3.026   6.645 -0.9295  0.2289 -0.4395
11640WAT      O47279   2.221   7.122   5.544 -0.0643  0.4136 -0.0626
11640WAT     H147280   2.293   7.073   5.534  0.1912  0.7921 -0.0781
11640WAT     H247281   2.179   7.111   5.468  0.3176  0.7457 -0.3249
11640WAT    EPW47282   2.226   7.113   5.532  0.0299  0.5186 -0.1037
11641WAT      O47283   6.544   0.603   7.325  0.0703  0.2986 -0.5000
11641WAT     H147284   6.624   0.569   7.335 -0.3524 -0.4300  0.6311
11641WAT     H247285   6.510   0.558   7.259  0.0392 -0.5071  0.0497
11641WAT    EPW47286   6.551   0.591   7.317  0.0033  0.0720 -0.2517
11642WAT      O47287   7.012   6.887   1.783  0.0451  0.3518  0.1354
11642WAT     H147288   7.063   6.905   1.714  0.4909  1.6612  0.7909
11642WAT     H247289   6.941   6.936   1.770  0.4694  1.2194  0.9950
11642WAT    EPW47290   7.009   6.897   1.771  0.1736  0.6734  0.3592
11643WAT      O47291   1.830   7.026   5.210  0.6210  0.1699  0.4215
11643WAT     H147292   1.814   6.949   5.246  1.8812 -0.1848  0.2610
11643WAT     H247293   1.751   7.054   5.186  0.1914 -1.2682  0.0716
11643WAT    EPW47294   1.816   7.019   5.212  0.7437 -0.0949  0.3461
11644WAT      O47295   3.014   1.537   6.360 -0.4162 -0.3160  0.1201
11644WAT     H147296   2.934   1.516   6.384  0.3292 -2.6020  0.8494
11644WAT     H247297   3.048   1.577   6.430 -0.4878 -0.5543  0.2885
11644WAT    EPW47298   3.007   1.540   6.374 -0.3166 -0.6889  0.2527
11645WAT      O47299   5.242   1.279   4.165  0.0232  0.0392 -0.2774
11645WAT     H147300   5.168   1.306   4.204 -0.3384  0.2082 -1.0535
11645WAT     H247301   5.239   1.192   4.173  0.8007  0.1270  1.5426
11645WAT    EPW47302   5.230   1.270   4.172  0.0846  0.0772 -0.1232
11646WAT      O47303   1.313   1.115   6.926 -0.0045 -0.3197  0.2367
11646WAT     H147304   1.369   1.164   6.880 -1.3448  2.0255  0.9141
11646WAT     H247305   1.363   1.077   6.987  1.0107  0.8060  0.1333
11646WAT    EPW47306   1.329   1.117   6.928 -0.0525  0.1931  0.3215
11647WAT      O47307   3.942   6.840   6.949 -0.2383  0.0344  0.6880
11647WAT     H147308   3.908   6.894   6.890 -0.5002  0.5408  1.2927
11647WAT     H247309   4.024   6.829   6.921 -0.7321 -0.8033 -0.5024
11647WAT    EPW47310   3.949   6.846   6.936 -0.3500 -0.0146  0.6015
11648WAT      O47311   1.036   3.378   5.807 -0.2918 -0.6200  0.0111
11648WAT     H147312   0.950   3.367   5.816 -0.5264  0.9173 -0.1530
11648WAT     H247313   1.068   3.365   5.887 -0.9539  0.9798  0.5705
11648WAT    EPW47314   1.028   3.374   5.820 -0.4243 -0.1566  0.0695
11649WAT      O47315   6.766   0.704   1.283 -0.7045  0.1886  0.4001
11649WAT     H147316   6.783   0.656   1.354 -2.2301 -0.8653  0.0878
11649WAT     H247317   6.748   0.645   1.222 -0.9820  1.1311 -0.4544
11649WAT    EPW47318   6.766   0.688   1.285 -0.9708  0.1721  0.2277
11650WAT      O47319   2.544   4.360   5.714  0.4941 -0.1800  0.2270
11650WAT     H147320   2.527   4.442   5.688  0.3772 -0.7510 -1.5774
11650WAT     H247321   2.518   4.360   5.797 -1.9155  0.9254 -0.4442
11650WAT    EPW47322   2.538   4.372   5.723  0.1209 -0.1011 -0.1387
11651WAT      O47323   3.146   5.746   3.311 -0.1714 -0.5292  0.1912
11651WAT     H147324   3.095   5.717   3.375 -0.8076  2.7318  1.3405
11651WAT     H247325   3.112   5.709   3.240 -0.9494 -2.3610  1.4336
11651WAT    EPW47326   3.134   5.736   3.310 -0.3803 -0.3181  0.5445
11652WAT      O47327   6.268   6.724   2.215  0.2246  0.0427 -0.2378
11652WAT     H147328   6.269   6.725   2.127  0.5568  0.1597 -0.2319
11652WAT     H247329   6.215   6.657   2.233 -0.1495  0.2523 -0.5288
11652WAT    EPW47330   6.260   6.714   2.205  0.2184  0.0909 -0.2799
11653WAT      O47331   0.741   1.528   7.100 -0.2115 -0.0120  0.1645
11653WAT     H147332   0.675   1.543   7.154 -0.7411  1.9847 -0.9648
11653WAT     H247333   0.812   1.546   7.149 -0.6355  0.8400  0.4771
11653WAT    EPW47334   0.742   1.533   7.116 -0.3524  0.4088  0.0438
11654WAT      O47335   6.995   0.774   2.357  0.0581  0.1991  0.1119
11654WAT     H147336   7.031   0.808   2.429  0.0944 -0.6471  0.5034
11654WAT     H247337   6.933   0.722   2.388 -0.3703  0.3382 -0.5018
11654WAT    EPW47338   6.991   0.771   2.372  0.0002  0.0947  0.0791
11655WAT      O47339   4.331   1.298   4.100 -0.1763 -0.3312  0.2101
11655WAT     H147340   4.370   1.227   4.068  0.6660  0.7292 -1.2546
11655WAT     H247341   4.293   1.269   4.173  2.6922 -1.6358  1.3497
11655WAT    EPW47342   4.331   1.283   4.106  0.3718 -0.3672  0.1620
11656WAT      O47343   0.557   5.651   0.364 -0.8147 -0.5750 -0.0732
11656WAT     H147344   0.591   5.711   0.418  0.9720 -1.2473 -0.3978
11656WAT     H247345   0.487   5.692   0.331 -2.0226 -0.1281  2.6943
11656WAT    EPW47346   0.552   5.666   0.367 -0.7292 -0.6083  0.2877
11657WAT      O47347   5.900   3.647   2.896  0.0354 -0.0934  0.7068
11657WAT     H147348   5.945   3.699   2.950  0.8028  1.0496 -0.9292
11657WAT     H247349   5.960   3.620   2.839 -1.1025  0.4822 -0.8289
11657WAT    EPW47350   5.915   3.651   2.895 -0.0193  0.1605  0.2382
11658WAT      O47351   1.441   0.465   1.359  0.2948  0.2869 -0.0368
11658WAT     H147352   1.464   0.449   1.276  0.9134 -3.4972  0.6970
11658WAT     H247353   1.354   0.453   1.359  0.0247  1.9733 -0.3756
11658WAT    EPW47354   1.431   0.461   1.347  0.3463 -0.0230  0.0216
11659WAT      O47355   1.166   1.025   1.788  0.7031  0.2164 -0.5559
11659WAT     H147356   1.111   1.010   1.855  0.2579  3.0506 -0.1797
11659WAT     H247357   1.209   0.949   1.780 -0.1776 -0.6772  2.0606
11659WAT    EPW47358   1.164   1.011   1.797  0.5072  0.5031 -0.1138
11660WAT      O47359   3.204   0.032   2.679  0.2708 -0.1058 -0.0546
11660WAT     H147360   3.163   0.106   2.658  2.0006  0.2304 -2.7565
11660WAT     H247361   3.140  -0.019   2.710 -1.3032  1.8551  0.0960
11660WAT    EPW47362   3.189   0.035   2.681  0.2938  0.2335 -0.4314
11661WAT      O47363   1.349   3.611   3.077 -0.4134 -0.1523 -0.0386
11661WAT     H147364   1.426   3.604   3.117 -0.2436  0.8043 -0.1736
11661WAT     H247365   1.362   3.672   3.017 -0.7702 -1.2960 -1.3371
11661WAT    EPW47366   1.362   3.619   3.074 -0.4410 -0.1799 -0.2503
11662WAT      O47367   0.487   1.997   4.437  0.3511  0.3787 -0.4852
11662WAT     H147368   0.541   1.943   4.395  1.0691  0.2953  0.5067
11662WAT     H247369   0.463   1.952   4.508 -0.4907  0.6816 -0.5578
11662WAT    EPW47370   0.491   1.982   4.441  0.3328  0.4112 -0.3494
11663WAT      O47371   4.087   3.359   1.025  0.4028 -0.1620  0.3441
11663WAT     H147372   4.069   3.292   1.078 -1.5046 -0.0543 -0.0836
11663WAT     H247373   4.075   3.325   0.945  0.2753  0.4626  0.0975
11663WAT    EPW47374   4.082   3.344   1.021  0.1022 -0.0538  0.2445
11664WAT      O47375   5.719   0.859   6.702  0.6918 -0.1261  0.1135
11664WAT     H147376   5.773   0.880   6.637  0.3626 -0.7175 -0.3648
11664WAT     H247377   5.764   0.877   6.774  1.5960 -0.7765 -0.2743
11664WAT    EPW47378   5.733   0.865   6.703  0.7767 -0.3095 -0.0144
11665WAT      O47379   0.796   4.528   2.329 -0.2041 -0.1325  0.0584
11665WAT     H147380   0.755   4.567   2.396 -0.4547  0.8713 -0.6433
11665WAT     H247381   0.732   4.486   2.288 -0.2075 -0.0332 -0.0379
11665WAT    EPW47382   0.780   4.528   2.333 -0.2416  0.0304 -0.0595
11666WAT      O47383   6.824   2.073   6.025  0.8551  0.4174  0.2856
11666WAT     H147384   6.823   2.155   6.055 -2.2284  1.0579 -1.1450
11666WAT     H247385   6.832   2.025   6.097 -2.3061  1.9542  1.8650
11666WAT    EPW47386   6.825   2.078   6.040 -0.0673  0.7390  0.3076
11667WAT      O47387   1.693   1.144   5.977  0.7763 -0.4548 -0.1870
11667WAT     H147388   1.636   1.080   5.960  0.7122 -0.4451 -0.0168
11667WAT     H247389   1.697   1.145   6.064  0.1345  0.3259 -0.1544
11667WAT    EPW47390   1.685   1.135   5.987  0.6720 -0.3380 -0.1571
11668WAT      O47391   7.128   7.216   6.064  0.4665  0.9321 -0.1121
11668WAT     H147392   7.157   7.263   6.131 -0.1188  0.3604  0.5607
11668WAT     H247393   7.041   7.220   6.072  0.3764  1.3279 -1.1700
11668WAT    EPW47394   7.119   7.223   6.075  0.3667  0.9061 -0.1689
11669WAT      O47395   0.078   6.108   2.544  0.1198  0.2229 -0.2401
11669WAT     H147396   0.001   6.126   2.506 -0.4532 -0.5559  0.5253
11669WAT     H247397   0.106   6.186   2.571 -0.6121  0.4661 -0.1480
11669WAT    EPW47398   0.070   6.123   2.542 -0.0730  0.1438 -0.1135
11670WAT      O47399   3.412   3.169   7.380  0.3583 -0.6356  0.2252
11670WAT     H147400   3.427   3.133   7.302  0.6177 -0.7775  0.3389
11670WAT     H247401   3.348   3.226   7.365  0.9213 -0.1189 -0.2390
11670WAT    EPW47402   3.405   3.172   7.367  0.4798 -0.5802  0.1734
11671WAT      O47403   5.359   5.072   6.852  0.2717 -0.6763  0.4986
11671WAT     H147404   5.281   5.067   6.891 -0.0422  0.7787  0.1407
11671WAT     H247405   5.338   5.086   6.768  0.8859  0.7816  0.5648
11671WAT    EPW47406   5.344   5.073   6.845  0.3161 -0.2460  0.4555
11672WAT      O47407   2.990   2.067   3.009 -0.3066  0.2706  0.0424
11672WAT     H147408   2.931   2.085   3.070  0.8209  0.6474  1.0541
11672WAT     H247409   2.944   2.024   2.948 -1.7113  0.9511  0.5671
11672WAT    EPW47410   2.974   2.064   3.009 -0.3475  0.4268  0.2693
11673WAT      O47411   0.374   2.273   7.276  0.0903  0.4265 -0.4896
11673WAT     H147412   0.375   2.196   7.318 -1.4158  0.3793 -0.4820
11673WAT     H247413   0.312   2.261   7.215 -0.1186  1.6128 -0.5220
11673WAT    EPW47414   0.365   2.260   7.273 -0.1631  0.5948 -0.4932
11674WAT      O47415   1.741   5.922   6.482 -0.1345  0.3465 -0.4772
11674WAT     H147416   1.801   5.864   6.505  0.1832  0.1285 -1.7917
11674WAT     H247417   1.763   5.994   6.527  1.0728  0.2523 -0.8971
11674WAT    EPW47418   1.753   5.924   6.492  0.0908  0.3004 -0.7334
11675WAT      O47419   4.029   1.536   2.595  0.3943 -0.3146 -0.0184
11675WAT     H147420   4.098   1.518   2.544 -0.4059  0.6311 -1.5114
11675WAT     H247421   4.061   1.528   2.676  1.8979 -1.2006 -0.6564
11675WAT    EPW47422   4.044   1.533   2.599  0.4982 -0.3058 -0.3332
11676WAT      O47423   6.611   3.357   6.145  0.0357 -0.5961 -0.2523
11676WAT     H147424   6.591   3.395   6.221  0.0475  0.2543 -0.6577
11676WAT     H247425   6.645   3.280   6.168  0.4885 -0.1483  0.6228
11676WAT    EPW47426   6.613   3.352   6.159  0.1044 -0.4044 -0.1829
11677WAT      O47427   2.004   3.245   6.847  0.0696 -0.1577  0.2701
11677WAT     H147428   2.065   3.190   6.820  1.3814  1.5556 -0.3931
11677WAT     H247429   2.042   3.288   6.913 -0.2824  1.1318 -0.3306
11677WAT    EPW47430   2.019   3.244   6.853  0.2114  0.2859  0.0834
11678WAT      O47431   6.796   7.078   2.068  0.0120  0.7163 -0.2086
11678WAT     H147432   6.774   7.117   2.144 -1.2059  0.6837 -0.5219
11678WAT     H247433   6.781   7.141   2.009  0.4407  0.5675 -0.4723
11678WAT    EPW47434   6.790   7.093   2.071 -0.1046  0.6895 -0.2938
11679WAT      O47435   3.780   2.213   1.889 -0.0212 -0.1706  0.5046
11679WAT     H147436   3.768   2.209   1.975 -0.7853  1.5286  0.5147
11679WAT     H247437   3.864   2.237   1.881  0.0381 -0.2872  0.7748
11679WAT    EPW47438   3.791   2.216   1.901 -0.1253  0.0632  0.5460
11680WAT      O47439   2.450   5.393   4.422 -0.1693 -0.1439 -0.4782
11680WAT     H147440   2.423   5.476   4.429 -1.5351 -0.4386 -1.5686
11680WAT     H247441   2.494   5.393   4.347 -1.3834 -0.6468 -1.2311
11680WAT    EPW47442   2.452   5.405   4.412 -0.5504 -0.2617 -0.7505
11681WAT      O47443   2.114   1.298   6.183  0.1052  0.3578  0.0577
11681WAT     H147444   2.065   1.338   6.243  0.1169  0.3809  0.0521
11681WAT     H247445   2.170   1.360   6.158  0.2321  0.2880  0.1696
11681WAT    EPW47446   2.115   1.313   6.188  0.1257  0.3509  0.0734
11682WAT      O47447   4.873   0.741   6.242 -0.4078 -0.0363  0.4872
11682WAT     H147448   4.889   0.739   6.328  0.8973 -0.6616  0.2634
11682WAT     H247449   4.824   0.671   6.228  1.7976 -1.6664  0.3468
11682WAT    EPW47450   4.868   0.731   6.253  0.1108 -0.3695  0.4334
11683WAT      O47451   0.142   6.922   2.078  0.0756 -0.6523 -0.6485
11683WAT     H147452   0.066   6.949   2.111 -0.2668 -2.9800  0.6560
11683WAT     H247453   0.123   6.846   2.040  1.4780 -0.5029 -1.7452
11683WAT    EPW47454   0.128   6.915   2.077  0.2322 -0.9741 -0.6178
11684WAT      O47455   3.392   5.220   2.330  0.6329 -0.5555 -0.0258
11684WAT     H147456   3.398   5.140   2.365 -4.5466 -2.0215 -1.6088
11684WAT     H247457   3.427   5.210   2.251  0.3681 -1.1586 -0.0706
11684WAT    EPW47458   3.398   5.207   2.323 -0.1713 -0.8612 -0.2662
11685WAT      O47459   3.256   0.309   2.045 -0.0115  0.6982 -0.3788
11685WAT     H147460   3.219   0.363   2.102 -2.1563 -1.0778  0.0820
11685WAT     H247461   3.221   0.331   1.968 -3.7629 -1.9893  0.2516
11685WAT    EPW47462   3.245   0.320   2.042 -0.8825  0.0388 -0.2176
11686WAT      O47463   4.948   1.726   5.527  0.0048  0.0327 -0.5901
11686WAT     H147464   5.026   1.729   5.567 -0.6038  1.4347  0.5951
11686WAT     H247465   4.911   1.802   5.549 -2.2297 -1.1343  0.0083
11686WAT    EPW47466   4.954   1.737   5.536 -0.4152  0.0674 -0.3266
11687WAT      O47467   6.428   5.266   3.535  0.0819 -0.3758  0.3981
11687WAT     H147468   6.509   5.242   3.557  0.5272  1.7420  1.2927
11687WAT     H247469   6.418   5.235   3.454  1.7720 -0.6965  0.2870
11687WAT    EPW47470   6.439   5.258   3.526  0.3974 -0.1103  0.5139
11688WAT      O47471   0.015   6.491   3.426  0.3682 -0.3510  0.0985
11688WAT     H147472   0.042   6.433   3.366  2.9776  1.3007 -0.4883
11688WAT     H247473  -0.021   6.554   3.378 -0.7166 -0.5946  0.5812
11688WAT    EPW47474   0.014   6.492   3.410  0.5934 -0.1430  0.0831
11689WAT      O47475   2.479   6.240   3.432 -0.0347 -0.1532 -0.5911
11689WAT     H147476   2.455   6.312   3.475 -2.2083 -1.0844 -0.0942
11689WAT     H247477   2.563   6.231   3.453  0.1097  1.8270 -0.1115
11689WAT    EPW47478   2.488   6.249   3.442 -0.3344  0.0018 -0.4468
11690WAT      O47479   3.441   2.703   7.186  0.0907  0.3131 -0.5376
11690WAT     H147480   3.447   2.650   7.117  1.1019  0.9365 -0.9495
11690WAT     H247481   3.396   2.656   7.244  0.1392 -0.6276 -1.2394
11690WAT    EPW47482   3.435   2.688   7.185  0.2472  0.2662 -0.7021
11691WAT      O47483   0.991   3.594   0.625  0.0383 -0.3661 -0.0080
11691WAT     H147484   0.913   3.568   0.596  0.1515 -0.2705 -0.4064
11691WAT     H247485   0.975   3.622   0.706 -0.2573 -0.7715  0.0746
11691WAT    EPW47486   0.977   3.595   0.632  0.0114 -0.4118 -0.0546
11692WAT      O47487   7.280   1.156   5.420  0.7222 -0.1035  0.2018
11692WAT     H147488   7.268   1.108   5.349  2.1974 -2.8072  1.6160
11692WAT     H247489   7.241   1.110   5.483  2.6947  0.1749  1.7317
11692WAT    EPW47490   7.273   1.142   5.419  1.2315 -0.4618  0.6367
11693WAT      O47491   6.233   6.011   2.067  0.4455  0.1432 -0.3462
11693WAT     H147492   6.243   5.942   2.119 -0.0318 -0.9000 -1.5984
11693WAT     H247493   6.208   6.074   2.122  1.1669 -0.5817  0.8653
11693WAT    EPW47494   6.231   6.010   2.083  0.4815 -0.1180 -0.3522
11694WAT      O47495   0.648   6.684   1.290 -0.1266  0.1638 -0.1772
11694WAT     H147496   0.664   6.750   1.235 -0.2816  0.3828  0.0377
11694WAT     H247497   0.697   6.704   1.360  0.1390 -0.1583 -0.2670
11694WAT    EPW47498   0.658   6.697   1.292 -0.1102  0.1486 -0.1587
11695WAT      O47499   4.306   6.879   3.495  0.2108  0.4898  0.5143
11695WAT     H147500   4.225   6.848   3.482  0.1742  0.0574  1.7001
11695WAT     H247501   4.344   6.818   3.544  1.5000  0.3625 -0.5964
11695WAT    EPW47502   4.300   6.866   3.500  0.3958  0.4072  0.5254
11696WAT      O47503   1.981   4.698   0.298  0.5221 -0.3336 -0.1555
11696WAT     H147504   1.975   4.619   0.261 -2.5927 -1.1574  1.7578
11696WAT     H247505   1.964   4.683   0.382  1.5110  2.2053  0.5900
11696WAT    EPW47506   1.978   4.684   0.305  0.2080 -0.0803  0.2373
11697WAT      O47507   1.563   0.013   4.054 -0.0077  0.4272 -0.1096
11697WAT     H147508   1.578   0.051   3.977  0.0751  2.7090  0.9442
11697WAT     H247509   1.477  -0.005   4.052  0.3128 -1.2368 -1.3698
11697WAT    EPW47510   1.552   0.016   4.042  0.0519  0.5185 -0.1401
11698WAT      O47511   4.152   1.492   1.700  0.0908  0.1024 -0.0844
11698WAT     H147512   4.070   1.507   1.725  0.1016 -0.9936  0.6746
11698WAT     H247513   4.185   1.572   1.689 -1.0364  0.5514 -0.2936
11698WAT    EPW47514   4.145   1.506   1.702 -0.0741  0.0069 -0.0032
11699WAT      O47515   4.574   7.081   5.995  0.3299  0.3558  0.6455
11699WAT     H147516   4.634   7.098   6.056 -0.1846  0.2761  1.1815
11699WAT     H247517   4.543   7.002   6.017 -0.9013  0.9520  1.1706
11699WAT    EPW47518   4.578   7.072   6.008  0.0720  0.4321  0.8022
11700WAT      O47519   5.711   0.846   3.719 -0.4176 -0.0681 -0.3937
11700WAT     H147520   5.683   0.929   3.723  1.3128  0.5516 -0.2069
11700WAT     H247521   5.661   0.810   3.657 -0.7150  1.3153 -0.9842
11700WAT    EPW47522   5.699   0.853   3.711 -0.2059  0.2278 -0.4533
11701WAT      O47523   2.076   7.224   6.544 -0.2251 -0.3422  0.1234
11701WAT     H147524   2.029   7.217   6.617  0.3042 -2.8686  0.3127
11701WAT     H247525   2.124   7.152   6.544  0.7046  0.1977 -2.1280
11701WAT    EPW47526   2.077   7.213   6.555 -0.0095 -0.6356 -0.1812
11702WAT      O47527   2.324   2.324   2.525 -0.2825  0.6248 -0.2331
11702WAT     H147528   2.289   2.245   2.510  1.0194  0.2732 -1.6262
11702WAT     H247529   2.283   2.351   2.597 -1.8069 -0.6972 -0.5418
11702WAT    EPW47530   2.313   2.316   2.534 -0.3154  0.3776 -0.4845
11703WAT      O47531   6.163   5.909   3.825 -0.2873 -0.2904 -0.4098
11703WAT     H147532   6.220   5.861   3.870 -0.7242 -2.3622 -1.9184
11703WAT     H247533   6.180   5.991   3.852  1.1695 -1.1406  1.5437
11703WAT    EPW47534   6.174   5.914   3.836 -0.1366 -0.7221 -0.3441
11704WAT      O47535   2.528   2.914   2.955  0.6646 -0.2710 -0.3394
11704WAT     H147536   2.576   2.863   2.903 -0.4179 -0.6036 -1.0552
11704WAT     H247537   2.576   2.921   3.027  2.1757  0.1244 -1.3344
11704WAT    EPW47538   2.542   2.908   2.958  0.7279 -0.2618 -0.5921
11705WAT      O47539   5.390   0.300   0.758  0.6682  0.0699 -0.0564
11705WAT     H147540   5.435   0.226   0.745  1.8496  0.3119  2.1187
11705WAT     H247541   5.313   0.283   0.721  1.3212 -1.7633 -0.7251
11705WAT    EPW47542   5.385   0.286   0.751  0.9392 -0.1651  0.1661
11706WAT      O47543   2.107   1.233   0.831 -0.3852  0.2675 -0.3890
11706WAT     H147544   2.117   1.188   0.904 -1.4614 -0.5504 -0.7181
11706WAT     H247545   2.104   1.172   0.769  0.8689  0.9619 -1.1842
11706WAT    EPW47546   2.108   1.218   0.832 -0.3589  0.2492 -0.5551
11707WAT      O47547   6.832   2.008   7.206  0.1615  0.1782 -0.1991
11707WAT     H147548   6.746   2.011   7.223  0.3147 -0.1061  0.6938
11707WAT     H247549   6.838   2.045   7.128 -0.5707  2.0651  0.5631
11707WAT    EPW47550   6.820   2.014   7.197  0.0760  0.4150  0.0454
11708WAT      O47551   1.269   1.488   6.683  0.5510  0.1971 -0.2103
11708WAT     H147552   1.282   1.459   6.765 -0.4680 -1.5901 -0.6179
11708WAT     H247553   1.244   1.416   6.640 -3.6026  1.8572 -1.0576
11708WAT    EPW47554   1.267   1.473   6.689 -0.2131  0.1783 -0.3957
11709WAT      O47555   5.920   1.380   2.479  0.0914  0.3162  0.6638
11709WAT     H147556   5.978   1.376   2.544  1.2077 -2.6730 -0.3471
11709WAT     H247557   5.969   1.393   2.409 -0.8360  0.9995  0.1246
11709WAT    EPW47558   5.936   1.381   2.478  0.1193 -0.0244  0.4348
11710WAT      O47559   6.098   0.353   5.065  0.1945 -0.2759 -0.4033
11710WAT     H147560   6.158   0.322   5.010  0.9976  0.6919 -0.0916
11710WAT     H247561   6.135   0.344   5.143  0.0880  0.6156 -0.2360
11710WAT    EPW47562   6.112   0.347   5.068  0.2974 -0.0013 -0.3325
11711WAT      O47563   5.166   4.333   4.241 -0.8365  0.3239 -0.2872
11711WAT     H147564   5.238   4.296   4.273 -0.4268  1.2918 -0.0612
11711WAT     H247565   5.107   4.323   4.306 -1.0293 -0.7882 -0.6148
11711WAT    EPW47566   5.168   4.326   4.256 -0.8045  0.3026 -0.3022
11712WAT      O47567   0.533   5.912   2.057 -0.0584 -0.0422 -0.0818
11712WAT     H147568   0.558   5.912   2.140  0.3148 -1.7489 -0.1742
11712WAT     H247569   0.448   5.892   2.060 -0.0390 -0.1303 -0.1155
11712WAT    EPW47570   0.524   5.909   2.069 -0.0004 -0.3073 -0.1004
11713WAT      O47571   7.268   6.771   2.369 -0.2958 -0.2075  0.1852
11713WAT     H147572   7.339   6.720   2.372 -0.3164 -0.2620 -0.3559
11713WAT     H247573   7.224   6.749   2.441  1.3882  1.4638  1.8624
11713WAT    EPW47574   7.272   6.760   2.380 -0.0501  0.0314  0.3530
11714WAT      O47575   2.301   1.998   1.799  0.2823 -0.1516  0.3464
11714WAT     H147576   2.283   1.977   1.882 -0.0162  1.0994  0.6076
11714WAT     H247577   2.377   2.039   1.803  0.5918 -0.6578 -0.0986
11714WAT    EPW47578   2.309   2.001   1.811  0.2839 -0.0416  0.3192
11715WAT      O47579   0.461   4.367   2.952  0.4743  0.1334 -0.5106
11715WAT     H147580   0.399   4.340   2.897 -0.0100 -1.1446  0.6149
11715WAT     H247581   0.422   4.432   2.995 -0.1278 -0.6993  0.2300
11715WAT    EPW47582   0.446   4.373   2.950  0.3138 -0.1784 -0.2349
11716WAT      O47583   0.618   4.011   2.110  0.1149  0.0625 -0.0359
11716WAT     H147584   0.534   4.029   2.122  0.1455 -0.2948  0.7263
11716WAT     H247585   0.628   4.020   2.023 -1.0520 -1.3538 -0.3543
11716WAT    EPW47586   0.607   4.015   2.099 -0.0530 -0.1995  0.0296
11717WAT      O47587   7.022   3.052   5.872  0.4600 -0.5579 -0.4273
11717WAT     H147588   6.952   3.094   5.842  0.6043  0.1134  0.1518
11717WAT     H247589   7.060   3.022   5.800  0.1112 -0.0772 -0.8175
11717WAT    EPW47590   7.017   3.053   5.857  0.4298 -0.3877 -0.3994
11718WAT      O47591   6.215   6.367   5.167  0.0172  0.0023  0.2075
11718WAT     H147592   6.155   6.429   5.178 -1.9156 -1.8872  0.8372
11718WAT     H247593   6.203   6.341   5.085  0.4763  0.0913  0.1090
11718WAT    EPW47594   6.204   6.373   5.157 -0.2005 -0.2636  0.2860
11719WAT      O47595   0.531   1.800   3.635  0.0977  0.0146 -0.3136
11719WAT     H147596   0.468   1.823   3.690  1.0731  2.0342  0.0672
11719WAT     H247597   0.577   1.740   3.679  0.4797  1.1177  0.8520
11719WAT    EPW47598   0.529   1.795   3.649  0.2982  0.4759 -0.0851
11720WAT      O47599   5.301   6.853   4.496 -0.3771 -0.2382  0.1928
11720WAT     H147600   5.285   6.837   4.412 -1.2514  0.8009  0.1467
11720WAT     H247601   5.298   6.774   4.533  0.0190 -0.7038 -0.7452
11720WAT    EPW47602   5.298   6.839   4.489 -0.4477 -0.1535  0.0475
11721WAT      O47603   4.488   1.255   0.866 -0.0294  0.0461  0.3752
11721WAT     H147604   4.470   1.263   0.951 -0.9702  1.9539  0.0479
11721WAT     H247605   4.419   1.213   0.835 -0.5095  0.8610  0.3063
11721WAT    EPW47606   4.475   1.250   0.874 -0.2393  0.4483  0.3167
11722WAT      O47607   7.120   1.623   6.223  0.3267 -0.0311 -0.1139
11722WAT     H147608   7.129   1.595   6.141 -0.4372  1.4942 -0.7686
11722WAT     H247609   7.054   1.576   6.254  1.2519 -1.3057 -0.0271
11722WAT    EPW47610   7.112   1.612   6.216  0.3505  0.0059 -0.1977
11723WAT      O47611   2.955   4.078   0.343  0.4622  0.6090 -0.0325
11723WAT     H147612   3.023   4.106   0.297  1.6532  0.3061  1.4676
11723WAT     H247613   2.989   4.018   0.397 -0.6990  1.3797  1.6817
11723WAT    EPW47614   2.970   4.074   0.345  0.4666  0.6781  0.4423
11724WAT      O47615   5.101   0.642   3.510  0.6270 -0.4512  0.2244
11724WAT     H147616   5.167   0.691   3.539 -0.2505  0.3078  1.0015
11724WAT     H247617   5.065   0.611   3.582  0.5028 -1.3885 -0.2207
11724WAT    EPW47618   5.105   0.645   3.525  0.4791 -0.4776  0.2734
11725WAT      O47619   6.160   1.229   5.152 -0.4661  0.0225 -0.1432
11725WAT     H147620   6.084   1.257   5.184 -0.0622  0.8862  0.0943
11725WAT     H247621   6.159   1.260   5.070  0.0167  0.8334  0.1454
11725WAT    EPW47622   6.148   1.238   5.145 -0.3351  0.2699 -0.0655
11726WAT      O47623   2.808   2.981   4.798  0.0072  0.7709  0.4851
11726WAT     H147624   2.732   2.959   4.835 -0.4254 -1.1789 -1.3444
11726WAT     H247625   2.805   3.068   4.794 -1.2016  0.8571  2.2700
11726WAT    EPW47626   2.796   2.991   4.803 -0.2352  0.4956  0.4785
11727WAT      O47627   5.634   4.108   2.484 -0.2022 -0.5566  0.5627
11727WAT     H147628   5.687   4.139   2.422  0.2778 -0.8757  0.8146
11727WAT     H247629   5.606   4.179   2.525 -0.6142 -0.3314 -0.0905
11727WAT    EPW47630   5.637   4.123   2.481 -0.1921 -0.5704  0.5034
11728WAT      O47631   2.591   4.904   1.405  0.1950 -0.0883  0.8772
11728WAT     H147632   2.591   4.897   1.492 -0.8122 -4.1310  0.7846
11728WAT     H247633   2.522   4.856   1.381  0.9898  0.0856 -2.1640
11728WAT    EPW47634   2.581   4.896   1.414  0.1636 -0.6598  0.4142
11729WAT      O47635   4.071   4.735   1.525 -0.1564  0.1482 -0.1510
11729WAT     H147636   4.052   4.740   1.440 -0.3486  1.0802 -0.0666
11729WAT     H247637   4.113   4.810   1.541  2.8962 -1.4110 -0.1061
11729WAT    EPW47638   4.074   4.747   1.515  0.2661  0.0556 -0.1319
11730WAT      O47639   3.319   3.559   1.391 -0.0532  0.1384  0.6392
11730WAT     H147640   3.387   3.564   1.336 -1.3447 -2.8303 -1.5515
11730WAT     H247641   3.274   3.632   1.376  1.0775  0.7003 -0.1324
11730WAT    EPW47642   3.323   3.570   1.381 -0.0770 -0.2172  0.2016
11731WAT      O47643   5.016   7.208   5.744 -0.5309 -0.1308  0.5352
11731WAT     H147644   4.993   7.282   5.705 -1.3294 -0.1237  1.0112
11731WAT     H247645   4.941   7.164   5.752  0.0808 -1.5507 -0.8649
11731WAT    EPW47646   5.002   7.212   5.739 -0.5585 -0.3395  0.3987
11732WAT      O47647   5.699   7.234   6.858  0.5503 -0.0358  0.1840
11732WAT     H147648   5.658   7.248   6.933 -0.1880 -1.8381  0.1832
11732WAT     H247649   5.666   7.157   6.831  2.3954 -0.5112 -0.8879
11732WAT    EPW47650   5.688   7.225   6.865  0.7138 -0.3722  0.0255
11733WAT      O47651   2.518   2.023   5.698 -0.2556  0.1309  0.2271
11733WAT     H147652   2.493   1.951   5.741 -0.1101 -0.1566 -0.1622
11733WAT     H247653   2.446   2.073   5.699 -0.9146 -0.7136 -0.9349
11733WAT    EPW47654   2.503   2.020   5.704 -0.3315 -0.0363 -0.0020
11734WAT      O47655   2.200   0.414   3.262  0.7351 -0.4014  0.8279
11734WAT     H147656   2.127   0.455   3.241  0.9420 -0.2562  0.3969
11734WAT     H247657   2.242   0.405   3.187  1.8869  0.9097  1.2818
11734WAT    EPW47658   2.196   0.419   3.248  0.9358 -0.1863  0.8313
11735WAT      O47659   3.474   6.309   5.257 -0.1960 -0.2008 -0.0770
11735WAT     H147660   3.509   6.314   5.178  1.6997  0.3235  0.7287
11735WAT     H247661   3.410   6.250   5.248  0.3083 -0.5345 -1.8510
11735WAT    EPW47662   3.470   6.301   5.244  0.1585 -0.1727 -0.2200
11736WAT      O47663   4.982   3.182   3.032 -0.0842 -0.1731  0.3671
11736WAT     H147664   5.058   3.203   3.070 -0.7348  0.2377  1.4756
11736WAT     H247665   4.970   3.099   3.055 -0.6006  0.1472  1.3224
11736WAT    EPW47666   4.991   3.173   3.041 -0.2566 -0.0651  0.6720
11737WAT      O47667   7.058   2.560   3.920 -0.2160 -0.8508 -0.3828
11737WAT     H147668   7.011   2.556   3.994 -1.0359 -0.2917 -0.8518
11737WAT     H247669   7.001   2.593   3.862  0.2527 -1.7663 -1.3951
11737WAT    EPW47670   7.042   2.564   3.922 -0.2679 -0.9035 -0.6016
11738WAT      O47671   0.799   2.310   3.765 -0.6304 -0.7337 -0.1351
11738WAT     H147672   0.838   2.273   3.696  0.6440 -0.9384  0.6569
11738WAT     H247673   0.859   2.365   3.796 -0.6079 -1.6600  1.6146
11738WAT    EPW47674   0.814   2.312   3.759 -0.4388 -0.9008  0.2404
11739WAT      O47675   7.196   3.938   7.236 -0.9064 -0.3368  0.3137
11739WAT     H147676   7.117   3.930   7.271 -0.5289  1.6353  1.7689
11739WAT     H247677   7.250   3.907   7.298 -0.4427 -0.6633 -0.2302
11739WAT    EPW47678   7.193   3.932   7.250 -0.7821 -0.0937  0.4483
11740WAT      O47679   0.527   3.119   6.153 -0.1968  0.1046  0.3686
11740WAT     H147680   0.561   3.050   6.194  0.0405  0.9384  1.6313
11740WAT     H247681   0.519   3.179   6.216 -1.8190  0.7327 -0.3848
11740WAT    EPW47682   0.531   3.118   6.168 -0.4014  0.3206  0.4439
11741WAT      O47683   1.583   2.362   2.870 -0.3624 -0.2138  0.3261
11741WAT     H147684   1.578   2.333   2.952 -1.1513 -0.1405  0.3140
11741WAT     H247685   1.556   2.294   2.823 -0.1557 -0.1696  0.1415
11741WAT    EPW47686   1.578   2.347   2.875 -0.4484 -0.1965  0.2970
11742WAT      O47687   5.170   0.642   1.145  0.3551 -0.1139 -0.2022
11742WAT     H147688   5.250   0.672   1.160 -0.4183  2.3932 -0.6696
11742WAT     H247689   5.145   0.610   1.222  0.5602  2.2896  0.9539
11742WAT    EPW47690   5.178   0.642   1.159  0.2712  0.6115 -0.1005
11743WAT      O47691   4.243   6.814   7.183 -0.0700 -0.2970  0.2534
11743WAT     H147692   4.309   6.820   7.239 -0.5499 -1.9261  1.0619
11743WAT     H247693   4.281   6.821   7.105  1.2368 -2.0721  0.6572
11743WAT    EPW47694   4.258   6.816   7.179  0.0522 -0.7999  0.4325
11744WAT      O47695   2.286   5.540   1.303  0.0543  0.1593 -0.4528
11744WAT     H147696   2.222   5.496   1.265  0.7050 -1.6662  0.4522
11744WAT     H247697   2.245   5.605   1.344 -1.0252 -0.0086 -1.2307
11744WAT    EPW47698   2.271   5.543   1.304 -0.0091 -0.1352 -0.4340
11745WAT      O47699   6.130   2.717   1.884  0.0058 -0.0112 -0.1968
11745WAT     H147700   6.140   2.681   1.963  0.0139  0.2372 -0.0824
11745WAT     H247701   6.054   2.760   1.890 -0.2279 -0.3786 -0.4758
11745WAT    EPW47702   6.121   2.718   1.896 -0.0275 -0.0288 -0.2211
11746WAT      O47703   0.517   7.073   1.644  0.7647  0.1709 -0.3637
11746WAT     H147704   0.552   6.995   1.628  1.8131  0.5347  0.0117
11746WAT     H247705   0.519   7.079   1.731  1.2708  0.8551 -0.4131
11746WAT    EPW47706   0.523   7.062   1.654  0.9943  0.3257 -0.3155
11747WAT      O47707   2.357   2.792   5.850 -0.1733 -0.2990 -0.4038
11747WAT     H147708   2.400   2.811   5.776  1.4671  1.4848  0.9174
11747WAT     H247709   2.327   2.869   5.876 -0.0959 -0.7753  1.1761
11747WAT    EPW47710   2.359   2.806   5.843  0.0805 -0.1058  0.0247
11748WAT      O47711   1.956   2.583   1.664 -0.0323  0.2005 -0.2070
11748WAT     H147712   1.965   2.496   1.672  0.5444  0.2571 -0.1588
11748WAT     H247713   2.026   2.614   1.706 -0.1478  0.6863 -0.3692
11748WAT    EPW47714   1.968   2.574   1.672  0.0358  0.2806 -0.2238
11749WAT      O47715   0.531   3.021   4.884 -0.1367 -0.1779 -0.1952
11749WAT     H147716   0.613   2.993   4.874  0.6008  1.0301  1.9441
11749WAT     H247717   0.514   3.062   4.809  0.5112 -1.9737 -1.3992
11749WAT    EPW47718   0.541   3.023   4.871  0.0679 -0.2647 -0.0570
11750WAT      O47719   4.099   3.127   1.459  0.6640 -0.0078  0.0807
11750WAT     H147720   4.120   3.053   1.501  0.1171  0.7300  1.7437
11750WAT     H247721   4.176   3.169   1.453  0.9536 -0.6285 -0.7541
11750WAT    EPW47722   4.114   3.122   1.464  0.6260  0.0095  0.2030
11751WAT      O47723   2.511   5.980   2.006  0.3286 -0.3302  0.0657
11751WAT     H147724   2.491   5.920   2.067  0.2099  0.5934  0.9668
11751WAT     H247725   2.436   6.023   1.995  0.2437 -0.7449 -1.0499
11751WAT    EPW47726   2.497   5.977   2.013  0.2985 -0.2550  0.0340
11752WAT      O47727   2.519   5.092   0.090  0.3644  0.0782 -0.0461
11752WAT     H147728   2.573   5.085   0.022  2.2337 -1.1395  1.4101
11752WAT     H247729   2.546   5.164   0.130  0.2134  0.0397  0.1259
11752WAT    EPW47730   2.531   5.101   0.086  0.6182 -0.1074  0.1944
11753WAT      O47731   2.709   2.292   1.350  0.1274 -0.0284  0.4151
11753WAT     H147732   2.728   2.236   1.414  0.9287  0.1244  0.3263
11753WAT     H247733   2.777   2.284   1.296  0.4773  1.3396  0.6222
11753WAT    EPW47734   2.722   2.282   1.351  0.2974  0.1963  0.4325
11754WAT      O47735   3.813   0.849   0.048 -0.0122 -0.1947  0.6972
11754WAT     H147736   3.886   0.891   0.025 -1.4782  1.6527 -1.0350
11754WAT     H247737   3.780   0.898   0.112 -0.2975 -0.3578  0.6792
11754WAT    EPW47738   3.819   0.862   0.054 -0.2709  0.0541  0.4387
11755WAT      O47739   5.596   6.904   3.983  0.3638  1.1027  0.0429
11755WAT     H147740   5.579   6.841   3.926 -0.3981  0.5373  0.8525
11755WAT     H247741   5.593   6.863   4.060 -1.2737  2.2829  0.6809
11755WAT    EPW47742   5.593   6.889   3.986  0.0093  1.1935  0.2568
11756WAT      O47743   4.894   1.129   2.394  0.1797  0.2304 -0.5146
11756WAT     H147744   4.838   1.111   2.459  1.4388 -0.6394  0.3867
11756WAT     H247745   4.939   1.197   2.425  1.2265 -0.6000 -0.1631
11756WAT    EPW47746   4.892   1.136   2.408  0.5203 -0.0208 -0.3295
11757WAT      O47747   1.443   4.231   3.056  0.6284  0.0462  0.6197
11757WAT     H147748   1.406   4.305   3.083 -1.5836 -1.0288  0.7449
11757WAT     H247749   1.385   4.198   2.999  2.9147 -0.1425 -1.8406
11757WAT    EPW47750   1.429   4.237   3.051  0.6394 -0.1405  0.2748
11758WAT      O47751   6.569   3.053   6.568  0.2281  0.1684  0.7968
11758WAT     H147752   6.550   3.000   6.501  2.0414  0.0390  0.3452
11758WAT     H247753   6.491   3.082   6.593 -0.5851 -0.5910 -0.6993
11758WAT    EPW47754   6.555   3.049   6.562  0.3758  0.0371  0.5091
11759WAT      O47755   1.910   7.215   3.963 -0.2178 -0.0969 -0.6158
11759WAT     H147756   1.847   7.163   3.933 -0.5763 -1.1344  1.7164
11759WAT     H247757   1.869   7.291   3.976 -1.1811 -0.8441  1.1784
11759WAT    EPW47758   1.895   7.218   3.961 -0.4131 -0.3605 -0.0063
11760WAT      O47759   3.404   2.725   6.358 -0.0940 -0.3056 -0.2271
11760WAT     H147760   3.487   2.698   6.363 -0.0176 -0.0153  0.1199
11760WAT     H247761   3.383   2.712   6.275  0.7459  0.9062 -0.6606
11760WAT    EPW47762   3.413   2.719   6.347  0.0413 -0.0837 -0.2399
11761WAT      O47763   5.601   1.671   0.054  0.2420  0.3510  0.2398
11761WAT     H147764   5.587   1.734  -0.005 -0.2082  1.3294  1.3357
11761WAT     H247765   5.650   1.711   0.114  1.4702 -0.8883  0.0907
11761WAT    EPW47766   5.606   1.687   0.054  0.3569  0.3124  0.3797
11762WAT      O47767   4.154   3.246   4.773 -0.0503  0.7723 -0.2240
11762WAT     H147768   4.211   3.219   4.834 -0.5658 -0.5971 -0.3205
11762WAT     H247769   4.148   3.178   4.719  0.4846  1.9964 -1.9047
11762WAT    EPW47770   4.162   3.232   4.774 -0.0474  0.7509 -0.4865
11763WAT      O47771   5.456   6.157   2.446 -0.4537  0.3323 -0.5797
11763WAT     H147772   5.392   6.215   2.438 -0.8201  0.3222  1.6715
11763WAT     H247773   5.432   6.108   2.514  1.4015 -0.4049 -0.3849
11763WAT    EPW47774   5.443   6.158   2.455 -0.2338  0.2219 -0.2184
11764WAT      O47775   6.382   0.512   5.028  0.5608 -0.0779 -0.1824
11764WAT     H147776   6.427   0.455   5.076  2.3269  0.8907 -0.6118
11764WAT     H247777   6.369   0.469   4.953  0.1874 -0.6044  0.1798
11764WAT    EPW47778   6.387   0.497   5.024  0.7665 -0.0126 -0.1923
11765WAT      O47779   0.114   5.374   2.221  0.5097  0.3259  0.2950
11765WAT     H147780   0.173   5.340   2.276  0.4027  0.1428  0.2984
11765WAT     H247781   0.097   5.309   2.166 -0.9528 -0.2182  1.3060
11765WAT    EPW47782   0.120   5.359   2.221  0.2778  0.2185  0.4449
11766WAT      O47783   5.082   4.007   6.932  0.3237  0.1623  0.0730
11766WAT     H147784   5.104   4.091   6.923 -0.8473  0.3952 -0.9937
11766WAT     H247785   5.138   3.965   6.881 -0.2269  0.5117 -0.8514
11766WAT    EPW47786   5.094   4.014   6.923  0.0694  0.2483 -0.2211
11767WAT      O47787   5.187   4.028   5.996  0.4219 -0.4733  0.2500
11767WAT     H147788   5.220   4.022   6.077 -1.8615  0.7511  1.3735
11767WAT     H247789   5.125   4.089   6.004  1.0095  0.6596 -2.7875
11767WAT    EPW47790   5.183   4.036   6.009  0.1714 -0.1251 -0.0328
11768WAT      O47791   6.589   4.888   6.626 -0.0726 -0.4440  0.1392
11768WAT     H147792   6.637   4.956   6.651  0.6192 -0.2324 -1.6292
11768WAT     H247793   6.615   4.824   6.679 -1.6661  0.8738  2.7271
11768WAT    EPW47794   6.600   4.889   6.638 -0.2058 -0.2181  0.2603
11769WAT      O47795   4.509   6.150   5.661  0.0900  0.5124 -0.0966
11769WAT     H147796   4.533   6.200   5.728  0.8543  0.8224 -0.5914
11769WAT     H247797   4.423   6.141   5.672  0.4292 -0.7953  1.8360
11769WAT    EPW47798   4.500   6.156   5.672  0.2530  0.3650  0.1158
11770WAT      O47799   4.083   0.361   1.952 -0.1142  0.4489 -0.6393
11770WAT     H147800   4.066   0.316   2.025  0.5019 -1.0550 -1.3763
11770WAT     H247801   4.159   0.400   1.968  3.5886 -4.9426 -2.4795
11770WAT    EPW47802   4.092   0.360   1.965  0.5238 -0.5697 -1.0200
11771WAT      O47803   5.070   3.750   0.124  0.2445  0.1651 -0.0479
11771WAT     H147804   5.045   3.824   0.087 -0.4566  0.2006  0.4765
11771WAT     H247805   5.021   3.689   0.085  0.6336  0.0059 -0.2946
11771WAT    EPW47806   5.059   3.752   0.113  0.1984  0.1469 -0.0069
11772WAT      O47807   1.877   4.195   1.216  0.0946 -0.1683 -0.2995
11772WAT     H147808   1.905   4.215   1.296 -2.1669  0.5597  0.3859
11772WAT     H247809   1.891   4.268   1.170 -0.1220 -0.0141 -0.1215
11772WAT    EPW47810   1.883   4.208   1.221 -0.2715 -0.0380 -0.1720
11773WAT      O47811   5.270   2.761   6.482 -0.0010 -0.3480 -0.0436
11773WAT     H147812   5.337   2.795   6.528 -0.0024 -0.1734 -0.1724
11773WAT     H247813   5.203   2.814   6.500  0.0631 -0.1196 -0.4595
11773WAT    EPW47814   5.270   2.774   6.492  0.0083 -0.2885 -0.1241
11774WAT      O47815   6.300   5.049   1.582 -0.6204  0.4741 -0.4081
11774WAT     H147816   6.377   5.022   1.551  0.2281  0.0801  1.8468
11774WAT     H247817   6.247   4.981   1.567  0.0133 -0.0986 -0.1515
11774WAT    EPW47818   6.304   5.035   1.575 -0.4014  0.3313 -0.0371
11775WAT      O47819   4.722   4.373   0.198  0.3336  0.1730 -0.4204
11775WAT     H147820   4.775   4.437   0.225 -0.2670 -0.1213  1.5797
11775WAT     H247821   4.774   4.324   0.147  1.2516  1.2832 -0.6019
11775WAT    EPW47822   4.738   4.375   0.194  0.3805  0.2935 -0.1518
11776WAT      O47823   2.546   4.772   4.369  0.0203 -0.1027 -0.2620
11776WAT     H147824   2.549   4.827   4.436 -0.6822 -1.8806  1.3206
11776WAT     H247825   2.615   4.793   4.321  0.9842  0.7388  1.4222
11776WAT    EPW47826   2.556   4.783   4.372  0.0589 -0.2410  0.2206
11777WAT      O47827   2.907   0.999   1.320  0.2419  0.1309 -0.1274
11777WAT     H147828   2.938   1.044   1.252  0.7728 -0.0371  0.0073
11777WAT     H247829   2.937   1.043   1.389 -3.3224  2.6049  0.1529
11777WAT    EPW47830   2.916   1.012   1.320 -0.2062  0.4715 -0.0661
11778WAT      O47831   3.375   5.862   0.947  0.0687 -0.3093 -0.0538
11778WAT     H147832   3.435   5.923   0.928 -2.3249  1.7796 -1.4800
11778WAT     H247833   3.384   5.804   0.882 -0.1632  0.5959 -0.9283
11778WAT    EPW47834   3.385   5.863   0.935 -0.3192  0.1330 -0.3937
11779WAT      O47835   2.102   6.919   3.985 -0.0197 -0.2224  0.1329
11779WAT     H147836   2.087   6.991   3.938  1.1419 -0.7933 -1.1973
11779WAT     H247837   2.189   6.913   3.986 -0.0853 -2.2611 -0.9099
11779WAT    EPW47838   2.113   6.929   3.978  0.1422 -0.6079 -0.2176
11780WAT      O47839   3.241   0.925   2.430  0.3596 -0.0790  0.4804
11780WAT     H147840   3.250   0.872   2.361 -2.6154  1.4296 -1.2896
11780WAT     H247841   3.197   0.876   2.487 -0.7250 -0.1781 -0.3925
11780WAT    EPW47842   3.236   0.910   2.428 -0.2401  0.1292  0.0900
11781WAT      O47843   6.647   6.353   1.636 -0.0041  0.0473 -0.5463
11781WAT     H147844   6.657   6.273   1.603 -0.3154 -0.6024  0.8303
11781WAT     H247845   6.572   6.381   1.601 -2.1632 -1.9702  1.9612
11781WAT    EPW47846   6.637   6.345   1.626 -0.3691 -0.3467  0.0275
11782WAT      O47847   1.583   1.977   6.970  0.3115 -1.2381 -0.8186
11782WAT     H147848   1.527   1.957   7.035  0.0897  1.0079 -0.2106
11782WAT     H247849   1.548   1.939   6.900 -1.3916 -0.8491 -0.2340
11782WAT    EPW47850   1.569   1.968   6.970  0.0271 -0.8488 -0.6424
11783WAT      O47851   5.984   5.530   3.798 -0.0519  0.4779 -0.9197
11783WAT     H147852   6.042   5.575   3.844 -0.5469  0.8609 -0.6653
11783WAT     H247853   6.021   5.451   3.789 -0.0829  0.3050  0.3754
11783WAT    EPW47854   5.998   5.525   3.803 -0.1296  0.5089 -0.6908
11784WAT      O47855   6.313   5.520   6.440  0.2464 -0.3228 -0.1384
11784WAT     H147856   6.227   5.522   6.427  0.4138 -1.5328 -1.6813
11784WAT     H247857   6.320   5.482   6.519 -0.6146 -1.3368 -0.5179
11784WAT    EPW47858   6.301   5.515   6.450  0.1439 -0.6513 -0.4224
11785WAT      O47859   6.889   0.478   5.333 -0.0726  0.4336 -0.6073
11785WAT     H147860   6.878   0.398   5.366  2.3365 -0.2527 -1.2964
11785WAT     H247861   6.859   0.471   5.252  1.0271 -0.0856 -0.9838
11785WAT    EPW47862   6.883   0.465   5.326  0.4457  0.2555 -0.7647
11786WAT      O47863   5.605   3.554   0.249 -0.5435 -0.9944 -0.3101
11786WAT     H147864   5.686   3.531   0.226  0.9507  2.2186  1.2321
11786WAT     H247865   5.586   3.619   0.194 -0.0472  1.4886  2.2743
11786WAT    EPW47866   5.614   3.560   0.237 -0.2495 -0.1530  0.2995
11787WAT      O47867   3.218   5.754   0.102  0.3059  0.1420 -0.5687
11787WAT     H147868   3.224   5.824   0.051  1.2851  0.1862 -0.3970
11787WAT     H247869   3.251   5.689   0.053  1.6517  0.2633  0.1321
11787WAT    EPW47870   3.224   5.755   0.087  0.6494  0.1664 -0.4399
11788WAT      O47871   1.396   2.584   1.013 -0.1506  0.6756  0.3895
11788WAT     H147872   1.419   2.533   1.080  0.2149  1.1380  0.6186
11788WAT     H247873   1.315   2.558   0.995 -0.5897  1.1349  1.5781
11788WAT    EPW47874   1.388   2.572   1.020 -0.1615  0.8118  0.5989
11789WAT      O47875   4.248   0.576   4.999  0.0345  0.1816 -0.7064
11789WAT     H147876   4.271   0.615   5.074 -0.5911 -0.2953 -0.2536
11789WAT     H247877   4.178   0.529   5.022 -0.1775  0.0529 -1.6043
11789WAT    EPW47878   4.241   0.575   5.014 -0.0892  0.0922 -0.7721
11790WAT      O47879   1.488   2.295   3.124  0.5013 -0.4233  0.4175
11790WAT     H147880   1.562   2.263   3.158  1.4447 -1.9489 -2.6897
11790WAT     H247881   1.428   2.236   3.147  1.0053 -1.1454 -0.0878
11790WAT    EPW47882   1.490   2.281   3.132  0.7151 -0.7553 -0.1161
11791WAT      O47883   0.853   5.434   1.187  0.3035 -0.0344 -0.0392
11791WAT     H147884   0.799   5.424   1.255  1.6221  2.4313  1.5170
11791WAT     H247885   0.930   5.407   1.217  0.9182  1.1348 -0.4873
11791WAT    EPW47886   0.856   5.429   1.202  0.5891  0.5026  0.1245
11792WAT      O47887   2.891   0.238   1.762  0.3476 -0.6082 -0.2517
11792WAT     H147888   2.963   0.282   1.784  1.6491 -1.9662 -1.4553
11792WAT     H247889   2.863   0.280   1.691 -0.3579  0.2133  0.4971
11792WAT    EPW47890   2.898   0.250   1.754  0.4356 -0.6874 -0.3189
11793WAT      O47891   5.698   5.898   3.287 -0.3093 -0.4135  0.2708
11793WAT     H147892   5.638   5.834   3.291 -1.4972  0.3691 -2.5245
11793WAT     H247893   5.654   5.965   3.252  1.8918  0.6019 -0.7180
11793WAT    EPW47894   5.683   5.898   3.282 -0.1596 -0.1479 -0.2882
11794WAT      O47895   1.176   3.324   5.351  0.1602 -0.1745 -0.2705
11794WAT     H147896   1.117   3.356   5.408  0.5679  1.3908 -0.7045
11794WAT     H247897   1.190   3.243   5.381 -0.1799  0.3530  1.4487
11794WAT    EPW47898   1.169   3.317   5.364  0.1702  0.1347 -0.0806
11795WAT      O47899   0.183   1.033   3.588 -0.0889  0.1242 -0.0439
11795WAT     H147900   0.116   0.988   3.621  0.1148 -2.0606 -2.2891
11795WAT     H247901   0.146   1.086   3.530 -0.2338  2.3129  1.9468
11795WAT    EPW47902   0.168   1.034   3.584 -0.0802  0.1248 -0.0815
11796WAT      O47903   2.170   4.583   3.725  0.6694 -0.3806 -0.2426
11796WAT     H147904   2.214   4.554   3.795  0.8174 -2.4821 -1.1331
11796WAT     H247905   2.228   4.634   3.685  0.9517 -0.0159  0.5933
11796WAT    EPW47906   2.185   4.586   3.730  0.7329 -0.6372 -0.2507
11797WAT      O47907   5.269   3.887   6.778  0.0586  0.4762  0.1515
11797WAT     H147908   5.353   3.896   6.797  0.4754 -0.2782 -1.2024
11797WAT     H247909   5.241   3.829   6.837  0.6434  0.2670  0.2281
11797WAT    EPW47910   5.277   3.880   6.790  0.2066  0.3339 -0.0372
11798WAT      O47911   0.177   5.110   1.405  0.1233 -0.1806 -0.1532
11798WAT     H147912   0.171   5.054   1.471  1.6496  0.0108  0.1933
11798WAT     H247913   0.215   5.063   1.342 -1.6259 -0.4635 -1.0633
11798WAT    EPW47914   0.182   5.094   1.405  0.0903 -0.1941 -0.2364
11799WAT      O47915   6.509   5.758   1.811 -0.1005  0.2251  0.2866
11799WAT     H147916   6.521   5.761   1.897  1.4306 -0.0217  0.1097
11799WAT     H247917   6.530   5.838   1.783 -0.2227  0.1965  0.1063
11799WAT    EPW47918   6.514   5.770   1.819  0.1076  0.1845  0.2338
11800WAT      O47919   3.493   6.537   2.554 -0.4696  0.2886  0.2513
11800WAT     H147920   3.552   6.476   2.535 -0.1997  0.2467  1.1415
11800WAT     H247921   3.454   6.553   2.478 -0.3554 -0.7888 -0.0503
11800WAT    EPW47922   3.496   6.530   2.540 -0.4129  0.1232  0.3383
11801WAT      O47923   2.098   3.063   1.230  0.3196  0.1557 -0.0565
11801WAT     H147924   2.045   3.129   1.208  2.0217  1.1867 -1.3187
11801WAT     H247925   2.079   3.001   1.171  0.1571  0.3342 -0.1941
11801WAT    EPW47926   2.087   3.063   1.218  0.5470  0.3344 -0.2633
11802WAT      O47927   0.142   6.049   4.519 -0.1097  0.2528 -0.4595
11802WAT     H147928   0.195   6.040   4.588  1.0570 -0.0449 -1.3716
11802WAT     H247929   0.158   5.979   4.470 -0.6775  0.6226 -1.2098
11802WAT    EPW47930   0.152   6.037   4.522 -0.0212  0.2634 -0.7051
11803WAT      O47931   3.680   7.158   2.034  0.0813  0.4302 -0.3407
11803WAT     H147932   3.601   7.194   2.034 -0.7360 -1.2078 -1.7970
11803WAT     H247933   3.733   7.226   2.020 -1.2071  1.3416 -1.0211
11803WAT    EPW47934   3.676   7.173   2.032 -0.2298  0.3229 -0.6563
11804WAT      O47935   4.527   0.630   3.280 -0.0564 -0.1296 -0.0660
11804WAT     H147936   4.566   0.695   3.322 -0.0897  0.9039 -1.5444
11804WAT     H247937   4.591   0.573   3.265  0.1577 -0.0338  0.4963
11804WAT    EPW47938   4.542   0.631   3.284 -0.0297  0.0372 -0.2013
11805WAT      O47939   4.439   4.549   2.626  0.0466  0.1757 -0.6166
11805WAT     H147940   4.474   4.617   2.583  0.3680  0.8167  0.6170
11805WAT     H247941   4.458   4.481   2.575  2.9810  0.5042 -0.1626
11805WAT    EPW47942   4.447   4.549   2.612  0.5276  0.3189 -0.3673
11806WAT      O47943   6.834   3.676   6.696  0.0808 -0.9024  0.4132
11806WAT     H147944   6.817   3.746   6.648  1.1893  0.5184  1.9934
11806WAT     H247945   6.755   3.649   6.722 -0.3355  0.1135  0.2459
11806WAT    EPW47946   6.819   3.682   6.693  0.1831 -0.5424  0.6219
11807WAT      O47947   2.825   1.991   1.853  0.1041 -0.3074 -0.2680
11807WAT     H147948   2.891   2.045   1.834  1.2567 -1.9240 -1.0885
11807WAT     H247949   2.835   1.977   1.939 -0.5061  1.1047  0.0677
11807WAT    EPW47950   2.836   1.997   1.863  0.1842 -0.3376 -0.3396
11808WAT      O47951   0.763   1.563   0.969  0.1323  0.2509  0.3431
11808WAT     H147952   0.725   1.486   0.953 -0.6285  0.9636 -1.6133
11808WAT     H247953   0.726   1.589   1.043  0.7439 -1.4379  1.2972
11808WAT    EPW47954   0.752   1.555   0.977  0.1102  0.1067  0.1951
11809WAT      O47955   5.335   2.353   1.866 -0.3949  0.7046  0.4821
11809WAT     H147956   5.263   2.368   1.913  0.4513  2.2241  1.4023
11809WAT     H247957   5.361   2.275   1.893 -2.4133 -0.5294 -0.8949
11809WAT    EPW47958   5.328   2.344   1.877 -0.5681  0.7468  0.4146
11810WAT      O47959   3.075   0.180   0.715  0.4068  0.0903  0.6394
11810WAT     H147960   3.055   0.139   0.790 -0.9825  1.0145  0.8071
11810WAT     H247961   3.054   0.263   0.732  0.9572  0.4645 -0.4782
11810WAT    EPW47962   3.069   0.186   0.729  0.2829  0.2821  0.4991
11811WAT      O47963   6.133   4.504   5.341  0.0293 -0.0357  0.2614
11811WAT     H147964   6.158   4.541   5.265  1.9309  0.5330  1.1142
11811WAT     H247965   6.068   4.556   5.368 -0.5154 -0.1095 -0.8458
11811WAT    EPW47966   6.127   4.517   5.334  0.2297  0.0374  0.2238
11812WAT      O47967   7.229   5.587   2.694 -0.5680  0.3742 -0.1203
11812WAT     H147968   7.299   5.579   2.745  0.0217  2.3030 -0.5249
11812WAT     H247969   7.203   5.505   2.682  1.2343 -0.3623  0.5801
11812WAT    EPW47970   7.236   5.574   2.700 -0.2146  0.5503 -0.0766
11813WAT      O47971   2.616   4.537   2.175 -0.0492  0.4851  0.7235
11813WAT     H147972   2.619   4.623   2.163 -0.3471  0.6122  1.4732
11813WAT     H247973   2.554   4.528   2.237 -1.2328 -0.3908 -0.5333
11813WAT    EPW47974   2.607   4.548   2.183 -0.2680  0.3745  0.6486
11814WAT      O47975   2.067   7.219   1.268 -0.3512  0.0502  0.3215
11814WAT     H147976   2.017   7.178   1.210  0.1940  0.7952 -0.7119
11814WAT     H247977   2.024   7.293   1.283 -0.6162 -0.2545  1.0635
11814WAT    EPW47978   2.054   7.224   1.261 -0.3098  0.1153  0.2784
11815WAT      O47979   4.195   5.067   6.919  0.5051  0.2451  0.0751
11815WAT     H147980   4.185   5.050   7.004  2.4716 -0.9246  0.1231
11815WAT     H247981   4.135   5.016   6.881  0.1698  0.1411  0.7321
11815WAT    EPW47982   4.185   5.057   6.925  0.7461  0.0569  0.1792
11816WAT      O47983   2.782   2.314   5.237  0.2743  0.2529  0.3347
11816WAT     H147984   2.858   2.337   5.200  0.0985  0.7175  0.2553
11816WAT     H247985   2.736   2.388   5.236 -0.8994 -0.4634 -1.3346
11816WAT    EPW47986   2.786   2.328   5.232  0.0750  0.2157  0.0764
11817WAT      O47987   1.145   4.938   6.362 -0.5561  0.2309 -0.0070
11817WAT     H147988   1.084   4.987   6.399 -1.2481 -2.0173  2.0700
11817WAT     H247989   1.208   4.935   6.423 -0.2750 -0.9159 -0.3349
11817WAT    EPW47990   1.145   4.945   6.377 -0.6168 -0.2706  0.2514
11818WAT      O47991   1.154   3.517   5.076 -0.4242  0.0950  0.5549
11818WAT     H147992   1.162   3.438   5.040  0.5744  1.2773 -2.0678
11818WAT     H247993   1.073   3.517   5.108 -0.0811 -2.3132  1.6569
11818WAT    EPW47994   1.143   3.506   5.076 -0.2260 -0.0861  0.3303
11819WAT      O47995   2.375   0.977   2.263  0.0692  0.2054 -0.2112
11819WAT     H147996   2.322   0.971   2.333 -0.4069  1.2533 -0.4709
11819WAT     H247997   2.436   1.034   2.288 -0.0443  0.5045 -0.6079
11819WAT    EPW47998   2.376   0.984   2.277 -0.0179  0.4044 -0.3081
11820WAT      O47999   5.666   6.199   6.649 -0.1905  0.3065 -0.1642
11820WAT     H148000   5.581   6.185   6.661  0.1467 -0.9155  1.0292
11820WAT     H248001   5.694   6.126   6.609  0.1290  1.1480 -1.5640
11820WAT    EPW48002   5.658   6.186   6.645 -0.0935  0.2503 -0.1947
11821WAT      O48003   4.701   4.402   1.752 -0.0245  0.5966 -0.3141
11821WAT     H148004   4.649   4.332   1.756  1.0715 -0.2190  0.1963
11821WAT     H248005   4.741   4.394   1.674 -0.3919  1.0243 -0.5498
11821WAT    EPW48006   4.700   4.391   1.741  0.0832  0.5393 -0.2735
11822WAT      O48007   7.106   1.173   6.963 -0.5357  0.4619  0.4286
11822WAT     H148008   7.060   1.213   6.901 -1.7483 -2.0254 -0.4048
11822WAT     H248009   7.189   1.189   6.940 -0.9044  2.6317  0.3395
11822WAT    EPW48010   7.111   1.181   6.950 -0.7693  0.4150  0.2923
11823WAT      O48011   1.474   4.865   3.596 -0.3720 -1.0899  0.3434
11823WAT     H148012   1.549   4.867   3.640  0.3414 -0.3088 -0.8511
11823WAT     H248013   1.443   4.785   3.612  0.5894 -1.3405  1.0529
11823WAT    EPW48014   1.481   4.854   3.605 -0.1246 -1.0115  0.2717
11824WAT      O48015   1.075   5.091   3.885 -0.2882 -0.1797  0.0536
11824WAT     H148016   1.133   5.041   3.926 -1.0484 -1.9076 -0.8601
11824WAT     H248017   1.023   5.120   3.950 -1.4800 -2.8601  0.4440
11824WAT    EPW48018   1.076   5.088   3.901 -0.5765 -0.8309 -0.0237
11825WAT      O48019   5.631   3.181   5.216  0.4871 -1.2764 -0.4601
11825WAT     H148020   5.560   3.202   5.169  0.5761  0.4696  0.1338
11825WAT     H248021   5.695   3.180   5.157  0.7401  1.6370 -0.3919
11825WAT    EPW48022   5.630   3.184   5.200  0.5377 -0.5881 -0.3623
11826WAT      O48023   6.456   1.105   0.503  0.0174  0.5049  0.4118
11826WAT     H148024   6.395   1.138   0.449 -0.3904 -0.5541  0.1947
11826WAT     H248025   6.427   1.025   0.519  1.0315  0.2138  0.8459
11826WAT    EPW48026   6.443   1.098   0.497  0.1070  0.3054  0.4438
11827WAT      O48027   1.008   0.457   1.108 -0.2572 -0.3992  0.8390
11827WAT     H148028   1.053   0.507   1.051 -0.6658  0.2777  1.0958
11827WAT     H248029   1.068   0.435   1.168  0.7505 -2.9434 -0.9226
11827WAT    EPW48030   1.023   0.461   1.108 -0.1687 -0.6750  0.6167
11828WAT      O48031   4.282   4.823   0.279  0.0452 -0.7579 -0.1510
11828WAT     H148032   4.302   4.895   0.235  1.0165 -1.2991 -0.6412
11828WAT     H248033   4.215   4.847   0.329 -0.9151 -0.0276 -1.6940
11828WAT    EPW48034   4.275   4.837   0.280  0.0469 -0.7300 -0.4514
11829WAT      O48035   1.770   3.090   7.360 -0.6925  0.1675  0.0724
11829WAT     H148036   1.707   3.069   7.417 -1.0462  0.4496 -0.2092
11829WAT     H248037   1.824   3.022   7.364 -1.4853 -0.5031 -0.3530
11829WAT    EPW48038   1.769   3.077   7.369 -0.8619  0.1101 -0.0320
11830WAT      O48039   1.647   4.514   2.956  0.0224 -0.0249 -0.4284
11830WAT     H148040   1.563   4.496   2.973  0.3475 -0.7262  0.5715
11830WAT     H248041   1.689   4.473   3.021  1.0055  2.0326  0.3215
11830WAT    EPW48042   1.641   4.505   2.968  0.2156  0.1755 -0.1699
11831WAT      O48043   2.436   5.816   2.240 -0.2548  0.1859 -0.1449
11831WAT     H148044   2.402   5.740   2.212  1.0456 -0.4630 -0.0320
11831WAT     H248045   2.366   5.860   2.268 -1.0786 -0.8435 -0.4894
11831WAT    EPW48046   2.421   5.811   2.240 -0.1844 -0.0621 -0.1791
11832WAT      O48047   4.469   7.121   1.825  0.4972  0.4744  0.7353
11832WAT     H148048   4.395   7.076   1.823  0.6048  0.3060  0.4132
11832WAT     H248049   4.486   7.136   1.740  1.0615  0.1179  0.7800
11832WAT    EPW48050   4.461   7.117   1.812  0.5964  0.3968  0.6943
11833WAT      O48051   5.557   5.756   5.551 -0.7439 -0.8822 -0.4617
11833WAT     H148052   5.601   5.780   5.623 -0.4817  1.8662 -1.4137
11833WAT     H248053   5.595   5.682   5.527  0.4261 -0.8676  1.1584
11833WAT    EPW48054   5.569   5.748   5.558 -0.5323 -0.4741 -0.3630
11834WAT      O48055   0.335   1.824   6.197  0.0211 -0.0251 -0.3636
11834WAT     H148056   0.400   1.768   6.180  0.3719  0.3113 -0.1483
11834WAT     H248057   0.269   1.794   6.149  0.3639 -0.3184 -0.6570
11834WAT    EPW48058   0.335   1.812   6.188  0.1235 -0.0187 -0.3751
11835WAT      O48059   3.113   0.378   7.305  0.2364 -0.1795  0.4267
11835WAT     H148060   3.076   0.314   7.352 -0.6524  1.1127  1.5523
11835WAT     H248061   3.095   0.450   7.350 -0.5497  1.1399 -1.8197
11835WAT    EPW48062   3.105   0.379   7.318 -0.0110  0.2063  0.2611
11836WAT      O48063   0.584   2.375   6.095 -0.7694 -0.5141  0.2371
11836WAT     H148064   0.544   2.325   6.036 -1.5019  0.5478 -0.2018
11836WAT     H248065   0.539   2.450   6.092  0.9329  0.5678  0.0733
11836WAT    EPW48066   0.572   2.379   6.086 -0.6261 -0.1974  0.1481
11837WAT      O48067   5.457   0.528   0.267 -0.3474 -0.1615 -0.0659
11837WAT     H148068   5.490   0.584   0.326  1.1255 -0.0660 -0.9403
11837WAT     H248069   5.527   0.500   0.223 -1.3050 -0.9613 -1.1534
11837WAT    EPW48070   5.472   0.532   0.269 -0.2713 -0.2655 -0.3557
11838WAT      O48071   6.092   4.806   3.955 -0.4408  0.1570  0.5078
11838WAT     H148072   6.088   4.753   3.886 -1.7478 -2.0157  2.1437
11838WAT     H248073   6.025   4.860   3.944  0.5348  1.1651 -0.8595
11838WAT    EPW48074   6.082   4.806   3.943 -0.4898 -0.0150  0.5475
11839WAT      O48075   3.970   1.129   4.724  0.0039 -0.3306  0.1892
11839WAT     H148076   3.984   1.149   4.641  0.6017  0.0712  0.3813
11839WAT     H248077   3.961   1.042   4.723  1.2561 -0.4754 -0.1283
11839WAT    EPW48078   3.971   1.119   4.712  0.2772 -0.2926  0.1707
11840WAT      O48079   2.694   5.687   3.940 -0.3821 -0.2283  0.4320
11840WAT     H148080   2.708   5.601   3.934 -1.7097 -0.3823 -1.7841
11840WAT     H248081   2.608   5.692   3.954 -0.5133  0.7273 -0.5856
11840WAT    EPW48082   2.683   5.675   3.941 -0.5976 -0.1099 -0.0457
11841WAT      O48083   6.957   5.385   6.780  0.3523  0.1207  0.0212
11841WAT     H148084   7.017   5.324   6.765  0.2009 -0.0943  0.2796
11841WAT     H248085   6.895   5.343   6.825 -0.1355  0.2554 -0.4957
11841WAT    EPW48086   6.957   5.370   6.784  0.2579  0.1089 -0.0170
11842WAT      O48087   6.363   0.907   4.112  0.0617  0.5476 -0.1925
11842WAT     H148088   6.330   0.988   4.117 -0.2383  0.4580 -0.6558
11842WAT     H248089   6.346   0.883   4.029 -0.5052 -0.2632  0.1469
11842WAT    EPW48090   6.356   0.916   4.100 -0.0663  0.4146 -0.2108
11843WAT      O48091   5.621   5.456   7.103  0.1618  0.6800  0.3398
11843WAT     H148092   5.621   5.543   7.104 -1.0760  0.7778 -1.9384
11843WAT     H248093   5.698   5.435   7.068 -0.6205  1.0262 -1.7215
11843WAT    EPW48094   5.632   5.466   7.098 -0.1366  0.7456 -0.3012
11844WAT      O48095   4.932   5.494   3.652 -0.0210 -0.0932 -0.1644
11844WAT     H148096   4.880   5.541   3.600  0.3617  0.3162 -0.1866
11844WAT     H248097   4.935   5.541   3.725 -1.5911 -1.3065  0.7250
11844WAT    EPW48098   4.925   5.508   3.655 -0.1964 -0.2120 -0.0363
11845WAT      O48099   2.514   2.607   6.813  0.4174  0.2275 -0.2249
11845WAT     H148100   2.573   2.599   6.876  0.4928  0.7733 -0.2251
11845WAT     H248101   2.489   2.524   6.798 -0.8607  0.2013  1.7061
11845WAT    EPW48102   2.519   2.593   6.820  0.2397  0.3042  0.0603
11846WAT      O48103   2.710   7.036   1.710 -0.0395  0.0954  0.0579
11846WAT     H148104   2.713   7.030   1.624  0.9240  0.3321  0.0672
11846WAT     H248105   2.651   6.975   1.733 -1.3709  0.9750 -0.8465
11846WAT    EPW48106   2.701   7.026   1.701 -0.0938  0.2603 -0.0743
11847WAT      O48107   3.969   1.185   0.642  0.0811 -0.3077  0.5769
11847WAT     H148108   3.939   1.142   0.712  3.9666 -0.3745  2.4644
11847WAT     H248109   3.968   1.124   0.579 -0.2184 -1.3556  1.5476
11847WAT    EPW48110   3.964   1.169   0.643  0.6108 -0.4724  0.9991
11848WAT      O48111   1.992   6.108   7.252  0.3193 -0.7378 -1.0191
11848WAT     H148112   2.061   6.070   7.288 -0.9036 -0.8766  1.3653
11848WAT     H248113   1.925   6.078   7.299 -1.1015  1.2334 -1.6456
11848WAT    EPW48114   1.992   6.098   7.264 -0.0712 -0.4671 -0.7594
11849WAT      O48115   3.522   4.545   3.443 -0.8138 -0.6679 -0.0427
11849WAT     H148116   3.568   4.528   3.515 -2.6953  0.3060  1.5001
11849WAT     H248117   3.451   4.495   3.453 -2.2653  1.2787  0.1129
11849WAT    EPW48118   3.518   4.535   3.455 -1.3062 -0.2365  0.2082
11850WAT      O48119   6.793   1.745   6.048 -0.0343  0.0103 -0.6919
11850WAT     H148120   6.752   1.765   6.122  0.1145  0.6717 -0.7859
11850WAT     H248121   6.734   1.762   5.986 -0.2015 -0.6598 -0.7262
11850WAT    EPW48122   6.778   1.750   6.050 -0.0371  0.0090 -0.7108
11851WAT      O48123   7.094   7.133   6.753 -0.8871  0.0649 -0.4493
11851WAT     H148124   7.058   7.076   6.698 -1.6566 -1.0103  1.0794
11851WAT     H248125   7.166   7.093   6.781 -1.1328  0.0677  0.2086
11851WAT    EPW48126   7.099   7.119   6.749 -1.0370 -0.0935 -0.1263
11852WAT      O48127   6.446   1.554   6.853 -0.2715 -0.2572  0.5182
11852WAT     H148128   6.410   1.630   6.876  1.3604 -0.1630  3.2045
11852WAT     H248129   6.484   1.526   6.927 -0.1187 -3.3115 -0.5722
11852WAT    EPW48130   6.446   1.561   6.868 -0.0079 -0.6944  0.7540
11853WAT      O48131   6.807   5.611   7.139 -0.0373 -0.3943 -0.0191
11853WAT     H148132   6.817   5.546   7.197  1.2523  0.1273  0.3817
11853WAT     H248133   6.881   5.607   7.092 -0.1599  0.4946 -0.2948
11853WAT    EPW48134   6.820   5.601   7.140  0.1351 -0.1859 -0.0006
11854WAT      O48135   0.486   2.362   6.899 -0.9266 -0.1504  0.0728
11854WAT     H148136   0.461   2.387   6.979  1.7791 -1.5319  1.5223
11854WAT     H248137   0.574   2.366   6.903 -0.6528 -1.5426 -2.3943
11854WAT    EPW48138   0.496   2.367   6.911 -0.4865 -0.5602 -0.0775
11855WAT      O48139   4.877   1.346   5.184  0.1132  0.0054 -0.1915
11855WAT     H148140   4.952   1.391   5.175  0.1343 -0.1336 -0.7168
11855WAT     H248141   4.817   1.409   5.193  0.3730  0.1155  0.9648
11855WAT    EPW48142   4.879   1.362   5.184  0.1547  0.0011 -0.0983
11856WAT      O48143   2.458   0.214   4.153  0.3517  0.3046  0.2205
11856WAT     H148144   2.437   0.251   4.229 -0.0111  0.7228 -0.0750
11856WAT     H248145   2.495   0.139   4.176 -2.4872 -1.0704  0.7991
11856WAT    EPW48146   2.460   0.209   4.168 -0.1213  0.1632  0.2624
11857WAT      O48147   0.380   5.127   3.010 -0.0962 -0.9819 -0.0238
11857WAT     H148148   0.328   5.157   2.946  1.3978 -0.8167 -1.2014
11857WAT     H248149   0.362   5.180   3.077 -1.3221 -0.8284 -0.4316
11857WAT    EPW48150   0.369   5.139   3.011 -0.0566 -0.9348 -0.2580
11858WAT      O48151   4.290   5.862   6.452 -0.6144 -0.6203  0.0183
11858WAT     H148152   4.326   5.786   6.430 -1.2240  0.0792 -4.2744
11858WAT     H248153   4.358   5.913   6.470  0.1345 -1.1000 -1.3271
11858WAT    EPW48154   4.305   5.859   6.451 -0.5938 -0.5878 -0.8146
11859WAT      O48155   3.164   5.343   4.990  0.3554  0.7480 -0.1277
11859WAT     H148156   3.190   5.347   5.073 -0.7868  1.6653  0.2266
11859WAT     H248157   3.234   5.314   4.947  1.1143  0.7146  1.0905
11859WAT    EPW48158   3.178   5.339   4.996  0.2988  0.8786  0.1046
11860WAT      O48159   1.293   6.226   0.298 -0.2620 -0.3675 -0.3360
11860WAT     H148160   1.364   6.261   0.335 -0.2892  0.3848 -0.9885
11860WAT     H248161   1.317   6.143   0.283  1.0756  0.2587 -2.0100
11860WAT    EPW48162   1.307   6.219   0.301 -0.0684 -0.1639 -0.6797
11861WAT      O48163   5.366   6.918   5.564  0.0065 -0.1221  0.9078
11861WAT     H148164   5.447   6.942   5.544  0.0620 -1.1163 -0.1316
11861WAT     H248165   5.320   6.992   5.556  0.4810  0.0456 -0.4006
11861WAT    EPW48166   5.371   6.933   5.560  0.0848 -0.2442  0.5610
11862WAT      O48167   1.988   5.877   5.947  0.5021  0.0047 -0.0563
11862WAT     H148168   2.066   5.851   5.974 -0.2992 -0.1302  2.3000
11862WAT     H248169   1.985   5.962   5.969 -0.0628 -0.0121 -0.0517
11862WAT    EPW48170   1.999   5.886   5.954  0.3003 -0.0177  0.2924
11863WAT      O48171   3.600   7.088   0.176 -0.8265  0.0556 -0.3900
11863WAT     H148172   3.660   7.066   0.116 -1.2595  1.1223 -1.2468
11863WAT     H248173   3.556   7.013   0.188  1.0785 -0.9666  0.8190
11863WAT    EPW48174   3.603   7.073   0.169 -0.6090  0.0622 -0.3380
11864WAT      O48175   5.968   5.816   5.070 -0.0721 -0.2658 -0.2271
11864WAT     H148176   6.022   5.830   5.002 -1.6656 -2.1329 -2.0100
11864WAT     H248177   5.890   5.806   5.032 -1.1966 -0.4413  2.0101
11864WAT    EPW48178   5.965   5.817   5.054 -0.4736 -0.5676 -0.1600
11865WAT      O48179   2.341   1.573   1.576 -0.4327 -0.3457  0.4159
11865WAT     H148180   2.416   1.612   1.596 -0.4076 -0.1955  0.0403
11865WAT     H248181   2.343   1.568   1.489 -0.4238 -1.2170  0.4549
11865WAT    EPW48182   2.352   1.578   1.566 -0.4277 -0.4522  0.3661
11866WAT      O48183   6.108   0.034   5.881  0.4321  0.4808  0.3133
11866WAT     H148184   6.077  -0.037   5.840  0.7859 -0.4355  1.5770
11866WAT     H248185   6.058   0.099   5.850  1.5096  0.1056 -2.5638
11866WAT    EPW48186   6.096   0.033   5.870  0.6435  0.2900  0.0749
11867WAT      O48187   0.634   5.884   2.303 -0.5160  0.0062 -0.6052
11867WAT     H148188   0.631   5.798   2.316 -2.1575  0.0984 -0.1801
11867WAT     H248189   0.704   5.909   2.349  0.1724 -1.1125 -0.9945
11867WAT    EPW48190   0.644   5.875   2.312 -0.6568 -0.1454 -0.5999
11868WAT      O48191   5.084   4.763   1.082  0.3619 -0.4877 -0.0756
11868WAT     H148192   5.153   4.742   1.034  1.3195 -1.0685  1.4804
11868WAT     H248193   5.087   4.850   1.085 -0.8972 -0.2497 -2.6461
11868WAT    EPW48194   5.094   4.773   1.075  0.3174 -0.5384 -0.2255
11869WAT      O48195   6.847   5.185   6.413 -0.2964  0.2887  0.5351
11869WAT     H148196   6.920   5.232   6.413  1.4119 -2.1735  1.0697
11869WAT     H248197   6.785   5.243   6.392  1.7666  2.4879  0.1103
11869WAT    EPW48198   6.848   5.201   6.410  0.2607  0.2498  0.5513
11870WAT      O48199   6.055   4.372   1.295 -0.1390  0.1535 -0.3322
11870WAT     H148200   6.141   4.381   1.312 -0.0633 -1.1263  0.0921
11870WAT     H248201   6.053   4.314   1.230 -0.6655  0.5012 -0.6260
11870WAT    EPW48202   6.068   4.365   1.288 -0.2056  0.0158 -0.3129
11871WAT      O48203   5.216   0.634   1.441 -0.2995 -0.2010 -0.4860
11871WAT     H148204   5.193   0.653   1.523 -0.1093  0.2996 -0.5443
11871WAT     H248205   5.299   0.608   1.448  0.1658  1.1477 -0.6749
11871WAT    EPW48206   5.225   0.633   1.454 -0.2026  0.0722 -0.5225
11872WAT      O48207   1.704   2.188   3.245 -0.1486 -0.4026 -0.6373
11872WAT     H148208   1.747   2.141   3.186  0.7176 -0.7758  0.2566
11872WAT     H248209   1.753   2.259   3.255 -1.5356  0.8294 -2.1001
11872WAT    EPW48210   1.717   2.191   3.238 -0.2255 -0.2758 -0.7214
11873WAT      O48211   7.248   3.064   1.405  0.3562 -0.1825  0.0714
11873WAT     H148212   7.228   2.985   1.437  1.5261  0.1554  1.8130
11873WAT     H248213   7.283   3.047   1.327 -0.0294 -1.3204  0.1293
11873WAT    EPW48214   7.250   3.050   1.399  0.4720 -0.3007  0.3372
11874WAT      O48215   6.720   5.668   0.301 -0.0643 -0.0437  0.5361
11874WAT     H148216   6.650   5.690   0.254  1.0316 -0.7106 -1.5355
11874WAT     H248217   6.713   5.717   0.372 -1.0954  2.0959 -0.9405
11874WAT    EPW48218   6.709   5.678   0.305 -0.0547  0.1738  0.0119
11875WAT      O48219   6.592   1.501   2.399  0.8053 -0.1375  0.0634
11875WAT     H148220   6.647   1.556   2.361 -0.6341  1.3915  0.0683
11875WAT     H248221   6.612   1.507   2.484  1.6965 -0.8934 -0.0676
11875WAT    EPW48222   6.603   1.510   2.406  0.7243 -0.0233  0.0447
11876WAT      O48223   5.843   0.576   7.276 -0.0513  0.6727 -0.1272
11876WAT     H148224   5.861   0.490   7.274 -2.4668  0.0821 -1.7410
11876WAT     H248225   5.789   0.583   7.344 -2.4582  0.1595 -1.8348
11876WAT    EPW48226   5.838   0.564   7.286 -0.7636  0.5096 -0.6179
11877WAT      O48227   6.704   5.363   2.781  0.6063 -0.0324  0.1009
11877WAT     H148228   6.684   5.361   2.696  0.5873 -1.4777  0.1056
11877WAT     H248229   6.627   5.360   2.821  0.6411 -0.0861  0.1647
11877WAT    EPW48230   6.690   5.362   2.774  0.6087 -0.2538  0.1110
11878WAT      O48231   6.543   7.107   0.339 -0.5251 -0.4684  0.1305
11878WAT     H148232   6.494   7.117   0.267  0.2038  0.6797 -0.2256
11878WAT     H248233   6.612   7.157   0.324  0.2604 -1.2191  1.0961
11878WAT    EPW48234   6.546   7.116   0.326 -0.3014 -0.4097  0.2205
11879WAT      O48235   1.161   6.453   3.918 -0.3687  0.0093 -0.4697
11879WAT     H148236   1.082   6.446   3.883 -1.4358  0.3496  1.6849
11879WAT     H248237   1.194   6.525   3.880 -1.4298  0.3384 -0.8037
11879WAT    EPW48238   1.154   6.463   3.907 -0.6831  0.1082 -0.2008
11880WAT      O48239   4.611   0.158   3.990  0.0958 -0.4715  0.0289
11880WAT     H148240   4.550   0.211   3.955  1.2609  1.4826  0.7779
11880WAT     H248241   4.648   0.120   3.921  0.0232  0.6395 -0.6475
11880WAT    EPW48242   4.607   0.161   3.975  0.2572 -0.0187  0.0396
11881WAT      O48243   2.432   4.936   0.801  0.3615 -0.5674  0.0231
11881WAT     H148244   2.442   4.849   0.804 -0.8821 -0.6942  2.0729
11881WAT     H248245   2.355   4.947   0.761  0.1310 -0.4508  0.4955
11881WAT    EPW48246   2.422   4.925   0.796  0.1437 -0.5689  0.3957
11882WAT      O48247   2.365   1.313   4.217 -0.4346 -0.0703 -0.8965
11882WAT     H148248   2.293   1.353   4.246  0.6773  0.8331  0.7207
11882WAT     H248249   2.416   1.308   4.287  0.5668 -1.9524 -1.6751
11882WAT    EPW48250   2.362   1.318   4.232 -0.1224 -0.2149 -0.7726
11883WAT      O48251   2.143   2.093   7.183  0.1092  0.3207 -0.0935
11883WAT     H148252   2.166   2.072   7.101  0.8544  0.5798  0.0494
11883WAT     H248253   2.218   2.091   7.227 -0.6141 -2.7869  1.2782
11883WAT    EPW48254   2.157   2.090   7.177  0.1124 -0.1001  0.1302
11884WAT      O48255   2.665   4.565   0.235 -0.3570 -0.4025  0.1112
11884WAT     H148256   2.738   4.592   0.275 -1.1851 -0.3572  1.6633
11884WAT     H248257   2.628   4.639   0.208  0.5443 -0.4706 -1.4585
11884WAT    EPW48258   2.671   4.580   0.237 -0.3462 -0.4058  0.1086
11885WAT      O48259   2.731   5.580   2.301  0.1079 -0.3926 -0.0676
11885WAT     H148260   2.699   5.644   2.351  0.2866 -0.2446 -0.1418
11885WAT     H248261   2.733   5.511   2.354 -0.7881 -0.5242 -0.1964
11885WAT    EPW48262   2.727   5.579   2.316  0.0020 -0.3902 -0.0976
11886WAT      O48263   3.163   0.923   1.504  0.4429 -0.4141 -0.4088
11886WAT     H148264   3.119   0.917   1.579  1.8826  1.4608  0.6853
11886WAT     H248265   3.100   0.925   1.443 -0.9679  1.0941  0.9891
11886WAT    EPW48266   3.147   0.922   1.506  0.4472  0.0857 -0.0407
11887WAT      O48267   0.889   5.108   6.702 -0.3573 -0.0402 -0.0553
11887WAT     H148268   0.909   5.112   6.618 -0.9905 -0.4057 -0.2362
11887WAT     H248269   0.868   5.024   6.714 -0.9114  0.1404  0.3038
11887WAT    EPW48270   0.889   5.096   6.692 -0.5327 -0.0675 -0.0290
11888WAT      O48271   0.689   3.802   5.497 -1.0317 -0.3171 -0.6697
11888WAT     H148272   0.655   3.848   5.563 -1.6303 -1.1845 -0.3586
11888WAT     H248273   0.743   3.859   5.458 -1.7542  0.6417 -0.3033
11888WAT    EPW48274   0.692   3.817   5.501 -1.2268 -0.3036 -0.5696
11889WAT      O48275   2.165   0.396   1.915 -0.5817 -0.0747  0.6839
11889WAT     H148276   2.222   0.381   1.980  1.2753  0.6193 -0.6895
11889WAT     H248277   2.104   0.446   1.952  1.1395  1.4378  1.6035
11889WAT    EPW48278   2.164   0.401   1.930 -0.0531  0.2513  0.6169
11890WAT      O48279   4.691   0.071   0.784 -0.5504 -0.0111 -0.2597
11890WAT     H148280   4.678   0.036   0.705 -1.3558 -1.2126  0.3818
11890WAT     H248281   4.621   0.046   0.830 -0.6840  1.6574  0.5256
11890WAT    EPW48282   4.679   0.062   0.779 -0.6891  0.0579 -0.0489
11891WAT      O48283   5.226   2.406   3.534  0.1586  0.0021  0.6261
11891WAT     H148284   5.264   2.429   3.609 -0.3155 -0.1501  0.9133
11891WAT     H248285   5.157   2.359   3.559  0.5536 -0.8922  0.0776
11891WAT    EPW48286   5.222   2.402   3.548  0.1469 -0.1525  0.5875
11892WAT      O48287   4.755   1.706   5.914 -0.0357  0.4191 -0.2908
11892WAT     H148288   4.827   1.659   5.907  0.2752  0.8751 -0.2103
11892WAT     H248289   4.712   1.689   5.839  1.6452  2.5585 -1.8663
11892WAT    EPW48290   4.759   1.697   5.902  0.2585  0.8025 -0.5117
11893WAT      O48291   5.022   6.754   6.016  0.1375 -0.1751  0.4746
11893WAT     H148292   4.976   6.768   6.089  0.0048  3.0234 -0.0896
11893WAT     H248293   4.963   6.767   5.953  0.2217 -2.9923 -0.3039
11893WAT    EPW48294   5.006   6.758   6.017  0.1303 -0.1188  0.2763
11894WAT      O48295   1.407   6.088   6.781  0.2837  0.3148  0.3692
11894WAT     H148296   1.451   6.130   6.719 -1.9691  0.7267 -1.0550
11894WAT     H248297   1.412   6.140   6.850  1.7844  0.4506  0.1777
11894WAT    EPW48298   1.414   6.102   6.782  0.1726  0.3957  0.1305
11895WAT      O48299   7.138   0.490   6.186  0.2297 -0.5028  0.0462
11895WAT     H148300   7.162   0.546   6.248 -0.4262 -1.2824  1.0400
11895WAT     H248301   7.103   0.542   6.125  3.4212  0.5725 -1.0617
11895WAT    EPW48302   7.136   0.506   6.186  0.6043 -0.4591  0.0294
11896WAT      O48303   2.164   5.995   0.650  0.1024 -0.0282 -0.2716
11896WAT     H148304   2.232   6.047   0.661  1.3112 -1.6669  0.4344
11896WAT     H248305   2.128   5.991   0.730  0.1785 -0.4568 -0.2544
11896WAT    EPW48306   2.169   6.002   0.664  0.2922 -0.3336 -0.1648
11897WAT      O48307   5.896   2.884   2.276  0.1418  0.2953 -0.2759
11897WAT     H148308   5.874   2.880   2.191 -0.7678  2.1037 -0.1612
11897WAT     H248309   5.886   2.802   2.303 -1.5159  0.0612 -1.4524
11897WAT    EPW48310   5.891   2.871   2.267 -0.2375  0.5279 -0.4327
11898WAT      O48311   1.643   6.243   3.358  0.3681  0.3169  0.1239
11898WAT     H148312   1.682   6.203   3.426  0.9599 -1.0452 -0.9586
11898WAT     H248313   1.642   6.327   3.381 -0.5927 -0.2486  2.3653
11898WAT    EPW48314   1.649   6.249   3.372  0.3136  0.0321  0.2951
11899WAT      O48315   5.672   2.072   5.898  0.0969  0.1203  0.1908
11899WAT     H148316   5.698   2.042   5.976 -1.0362 -0.3903  0.3894
11899WAT     H248317   5.625   2.143   5.917  1.6775  1.3321 -0.1994
11899WAT    EPW48318   5.669   2.078   5.912  0.1630  0.2239  0.1625
11900WAT      O48319   3.633   3.379   3.304 -0.2004  0.4220 -0.2425
11900WAT     H148320   3.632   3.293   3.292 -0.3273  0.4207 -0.2303
11900WAT     H248321   3.599   3.389   3.384  1.7752  0.3528  0.6514
11900WAT    EPW48322   3.628   3.368   3.314  0.0727  0.4116 -0.1087
11901WAT      O48323   2.412   0.840   0.504  0.6799 -0.0993 -0.2364
11901WAT     H148324   2.381   0.829   0.423  2.7384  1.9192 -1.4193
11901WAT     H248325   2.387   0.920   0.525  0.4603 -0.4788  1.0248
11901WAT    EPW48326   2.404   0.850   0.495  0.9515  0.1428 -0.2248
11902WAT      O48327   5.940   1.131   6.221  0.1028  0.2254  0.1322
11902WAT     H148328   5.944   1.207   6.264 -0.1161 -1.6573  3.9694
11902WAT     H248329   5.854   1.120   6.208  0.2590  1.8332 -3.2539
11902WAT    EPW48330   5.928   1.141   6.226  0.0935  0.1848  0.1988
11903WAT      O48331   0.875   3.067   4.013  0.3760  0.1195  0.1528
11903WAT     H148332   0.881   2.981   4.002  3.4321  0.2178  0.2765
11903WAT     H248333   0.793   3.079   4.041 -0.3184 -2.6390 -0.4702
11903WAT    EPW48334   0.864   3.056   4.015  0.7249 -0.2735  0.0790
11904WAT      O48335   3.616   3.615   0.809  0.3872 -0.4095 -0.3816
11904WAT     H148336   3.535   3.593   0.787  0.5231  0.3121 -1.7365
11904WAT     H248337   3.665   3.572   0.750  1.0555 -1.3594  0.8176
11904WAT    EPW48338   3.612   3.605   0.797  0.5060 -0.4432 -0.4046
11905WAT      O48339   5.072   0.178   4.166 -0.0005  0.2633 -0.5335
11905WAT     H148340   5.091   0.263   4.157  0.2685  0.0773 -2.0639
11905WAT     H248341   4.991   0.178   4.199  0.7965  1.0731  1.6150
11905WAT    EPW48342   5.063   0.191   4.170  0.1570  0.3555 -0.4422
11906WAT      O48343   4.537   2.954   2.611 -0.2607  0.2153  0.2820
11906WAT     H148344   4.496   3.030   2.625  1.5898  1.3434 -0.0323
11906WAT     H248345   4.554   2.925   2.692 -1.2904 -0.0598  0.4059
11906WAT    EPW48346   4.534   2.961   2.625 -0.1394  0.3413  0.2538
11907WAT      O48347   6.632   0.460   5.710 -0.7060 -0.1313 -0.3369
11907WAT     H148348   6.696   0.459   5.651 -0.1595  0.5318  0.2270
11907WAT     H248349   6.672   0.436   5.784 -1.0857  0.3532  0.0328
11907WAT    EPW48350   6.647   0.457   5.712 -0.6813  0.0382 -0.1990
11908WAT      O48351   3.984   3.263   0.502 -0.4567  0.2348  0.0939
11908WAT     H148352   3.933   3.195   0.483 -0.2179 -0.1747  0.8752
11908WAT     H248353   3.929   3.331   0.504 -0.6569  0.1230 -0.9515
11908WAT    EPW48354   3.969   3.263   0.500 -0.4510  0.1578  0.0549
11909WAT      O48355   0.471   2.110   3.566  0.1526  0.4425  0.3810
11909WAT     H148356   0.513   2.133   3.639 -1.4652  2.3496  0.7863
11909WAT     H248357   0.522   2.141   3.503  1.8235 -1.6488  0.5797
11909WAT    EPW48358   0.485   2.118   3.568  0.1605  0.4153  0.4703
11910WAT      O48359   3.881   4.063   1.294 -0.0864  0.3556  0.0867
11910WAT     H148360   3.942   4.011   1.328 -1.6037 -1.7432 -0.2393
11910WAT     H248361   3.874   4.035   1.212 -0.7603  1.2805 -0.1874
11910WAT    EPW48362   3.889   4.051   1.287 -0.4101  0.1822 -0.0019
11911WAT      O48363   6.500   4.523   5.758  0.0815  0.0902  0.0405
11911WAT     H148364   6.490   4.442   5.790 -0.9326 -0.8588 -2.4425
11911WAT     H248365   6.420   4.544   5.730  0.7164  1.1910 -1.0557
11911WAT    EPW48366   6.487   4.514   5.759  0.0255  0.1126 -0.4882
11912WAT      O48367   1.170   3.094   6.283  0.1710 -0.1803  0.4996
11912WAT     H148368   1.251   3.110   6.253 -0.6576  1.3494 -1.1453
11912WAT     H248369   1.165   3.142   6.355  0.3835  0.6295 -0.0095
11912WAT    EPW48370   1.181   3.103   6.289  0.0800  0.1653  0.1814
11913WAT      O48371   0.744   5.050   3.315 -0.2365 -0.4857 -0.3430
11913WAT     H148372   0.768   4.984   3.262 -1.6993 -0.3833 -1.1869
11913WAT     H248373   0.669   5.022   3.350  0.7571 -0.6241  1.8820
11913WAT    EPW48374   0.736   5.036   3.312 -0.3058 -0.4910 -0.1390
11914WAT      O48375   4.044   0.209   2.170  0.3174 -0.0061  0.1741
11914WAT     H148376   4.056   0.258   2.241 -0.0823 -0.4581  0.5656
11914WAT     H248377   3.977   0.157   2.192  1.0717 -1.0936 -0.0254
11914WAT    EPW48378   4.036   0.208   2.184  0.3698 -0.2335  0.2025
11915WAT      O48379   4.434   6.906   6.740  0.4275 -0.0013  0.2270
11915WAT     H148380   4.414   6.991   6.734 -0.0217 -0.0598  0.7986
11915WAT     H248381   4.487   6.902   6.809  0.5753 -0.1617  0.1034
11915WAT    EPW48382   4.439   6.918   6.749  0.3830 -0.0336  0.2932
11916WAT      O48383   0.560   3.617   4.066 -0.1442 -0.3432  0.1222
11916WAT     H148384   0.552   3.688   4.016 -0.2398 -2.2318 -2.8435
11916WAT     H248385   0.479   3.600   4.092 -0.3772 -0.2313 -0.5215
11916WAT    EPW48386   0.547   3.625   4.062 -0.1927 -0.6056 -0.4110
11917WAT      O48387   6.168   0.325   2.430 -0.3563 -0.6062  0.1400
11917WAT     H148388   6.161   0.301   2.514 -1.6511 -1.8156 -0.2764
11917WAT     H248389   6.085   0.331   2.403 -0.1116  2.7372 -0.3212
11917WAT    EPW48390   6.155   0.322   2.439 -0.5115 -0.2909  0.0104
11918WAT      O48391   6.525   0.828   2.482 -0.1408 -0.0771  0.0904
11918WAT     H148392   6.558   0.908   2.474  0.1610 -0.2187 -0.1380
11918WAT     H248393   6.496   0.825   2.564  0.6478 -0.0259  0.3830
11918WAT    EPW48394   6.526   0.839   2.493  0.0203 -0.0905  0.0999
11919WAT      O48395   3.393   1.610   4.677 -0.6484  0.0681  0.3587
11919WAT     H148396   3.320   1.621   4.629  0.1598  1.4265 -0.6502
11919WAT     H248397   3.447   1.569   4.623 -0.0723  0.6990  0.4393
11919WAT    EPW48398   3.390   1.606   4.662 -0.4439  0.3620  0.2216
11920WAT      O48399   6.295   1.639   5.625 -0.3454 -0.3788  0.3525
11920WAT     H148400   6.262   1.576   5.675 -1.0622  0.3677  0.8372
11920WAT     H248401   6.306   1.600   5.548  1.5663 -1.8025  1.2454
11920WAT    EPW48402   6.292   1.624   5.621 -0.1689 -0.4788  0.5560
11921WAT      O48403   4.668   0.104   5.438  0.6264  0.4787 -0.2851
11921WAT     H148404   4.596   0.055   5.444  0.3311  1.0704  2.2496
11921WAT     H248405   4.700   0.084   5.360 -0.7766 -1.9197 -0.3440
11921WAT    EPW48406   4.662   0.094   5.427  0.3755  0.2118  0.0807
11922WAT      O48407   4.574   4.005   4.296  0.0212  0.1240  0.4248
11922WAT     H148408   4.488   4.011   4.312  0.0407  0.7287  0.3306
11922WAT     H248409   4.610   4.039   4.368  0.2683 -2.4125  1.5868
11922WAT    EPW48410   4.566   4.011   4.309  0.0606 -0.1614  0.5825
11923WAT      O48411   1.960   0.983   2.505  0.4344  0.5304 -0.8584
11923WAT     H148412   1.891   0.935   2.480  1.0839 -1.3374  0.7131
11923WAT     H248413   1.924   1.045   2.555 -0.1207 -0.5699  0.1514
11923WAT    EPW48414   1.944   0.985   2.509  0.4484  0.0919 -0.4771
11924WAT      O48415   1.252   3.269   5.690 -0.4556  0.3806 -0.1366
11924WAT     H148416   1.186   3.310   5.728 -0.7736  0.0891 -0.3697
11924WAT     H248417   1.321   3.318   5.711 -0.4815 -0.2325  1.5222
11924WAT    EPW48418   1.253   3.282   5.699 -0.5064  0.2470  0.0740
11925WAT      O48419   0.418   2.414   0.197  0.4385 -0.0647  0.0959
11925WAT     H148420   0.387   2.487   0.231 -0.9597 -1.5966  2.3712
11925WAT     H248421   0.467   2.442   0.130 -1.1677  2.8159 -0.0571
11925WAT    EPW48422   0.421   2.429   0.192 -0.0053  0.1345  0.4094
11926WAT      O48423   5.720   3.290   5.639  0.2947 -0.2864  0.2418
11926WAT     H148424   5.717   3.341   5.709 -0.8394  1.1831 -0.8085
11926WAT     H248425   5.805   3.276   5.627  0.4914 -0.8188  2.0563
11926WAT    EPW48426   5.732   3.295   5.648  0.1562 -0.1480  0.3547
11927WAT      O48427   6.188   4.807   1.609  0.5010  0.3212  0.2466
11927WAT     H148428   6.108   4.795   1.576  1.0566 -0.6881 -0.7845
11927WAT     H248429   6.172   4.833   1.691 -0.8926  1.5378 -0.3498
11927WAT    EPW48430   6.174   4.809   1.616  0.3772  0.3518  0.0062
11928WAT      O48431   1.093   2.499   6.361 -0.4717 -0.0136 -0.1603
11928WAT     H148432   1.119   2.537   6.436 -2.3690  0.7762  0.1788
11928WAT     H248433   1.167   2.484   6.318  0.5156  3.2015  0.1443
11928WAT    EPW48434   1.108   2.503   6.366 -0.6061  0.5780 -0.0652
11929WAT      O48435   1.279   4.518   3.604 -0.4801 -0.3862 -0.0011
11929WAT     H148436   1.294   4.518   3.518  1.3013  1.1934  0.2495
11929WAT     H248437   1.342   4.468   3.636 -0.5417 -0.1781  0.4552
11929WAT    EPW48438   1.291   4.511   3.596 -0.2261 -0.1221  0.1033
11930WAT      O48439   5.382   2.859   3.737 -0.4467  0.0592  0.4373
11930WAT     H148440   5.312   2.811   3.756 -0.2517 -0.5243 -0.2694
11930WAT     H248441   5.373   2.875   3.652 -0.9854  2.0887  0.8286
11930WAT    EPW48442   5.370   2.854   3.728 -0.4975  0.2728  0.3907
11931WAT      O48443   4.312   7.035   5.124 -0.0682  0.5114  0.4303
11931WAT     H148444   4.375   6.977   5.107 -0.5472  0.1281 -0.0822
11931WAT     H248445   4.239   6.995   5.098 -0.5375  0.9311  1.0487
11931WAT    EPW48446   4.310   7.021   5.118 -0.2083  0.5167  0.4459
11932WAT      O48447   3.669   6.016   7.011 -0.3945  0.3245 -0.4307
11932WAT     H148448   3.745   5.991   6.976 -0.5736 -0.4822 -0.2454
11932WAT     H248449   3.612   6.001   6.947 -0.3800  1.1615 -0.6592
11932WAT    EPW48450   3.672   6.010   6.996 -0.4188  0.3290 -0.4371
11933WAT      O48451   4.283   4.972   1.235  0.0462 -0.0096 -0.0700
11933WAT     H148452   4.283   4.987   1.149 -2.0204 -0.1972 -0.1464
11933WAT     H248453   4.210   4.925   1.248  1.8248 -2.6334  1.3778
11933WAT    EPW48454   4.272   4.967   1.224  0.0037 -0.4249  0.1326
11934WAT      O48455   6.260   0.467   4.132  0.4116  0.0874  0.0871
11934WAT     H148456   6.316   0.462   4.066 -0.6887 -1.5278 -0.7894
11934WAT     H248457   6.199   0.522   4.103  1.4708  1.8689  1.0516
11934WAT    EPW48458   6.259   0.474   4.118  0.4055  0.1120  0.1001
11935WAT      O48459   0.509   1.971   2.511 -0.1797  0.1113 -0.2756
11935WAT     H148460   0.565   2.029   2.478  2.0906 -0.8763  1.5798
11935WAT     H248461   0.535   1.895   2.476 -2.7103 -0.0317 -2.1777
11935WAT    EPW48462   0.521   1.968   2.501 -0.2182 -0.0557 -0.2825
11936WAT      O48463   4.750   6.303   0.959 -0.0631 -0.2696  0.0767
11936WAT     H148464   4.801   6.240   0.927 -0.0865 -0.7187  0.8832
11936WAT     H248465   4.676   6.261   0.979 -0.1259  0.0328  0.4985
11936WAT    EPW48466   4.746   6.288   0.958 -0.0758 -0.2913  0.2581
11937WAT      O48467   7.035   5.358   6.385  0.0338 -0.9149  0.4951
11937WAT     H148468   7.009   5.415   6.446  0.3838 -0.2944  0.0625
11937WAT     H248469   6.986   5.377   6.316  0.4470 -0.8452  0.2143
11937WAT    EPW48470   7.024   5.369   6.384  0.1466 -0.8129  0.3897
11938WAT      O48471   0.036   1.211   3.087  0.1282  0.5021  0.0637
11938WAT     H148472   0.039   1.248   3.166  0.7197 -0.4923  0.5298
11938WAT     H248473   0.084   1.264   3.038 -0.6361  1.3927  0.2394
11938WAT    EPW48474   0.043   1.224   3.092  0.1027  0.4868  0.1585
11939WAT      O48475   2.599   3.248   1.851  0.4861 -0.3274  0.3484
11939WAT     H148476   2.684   3.267   1.851 -0.0891  2.6204 -0.0383
11939WAT     H248477   2.586   3.209   1.774  1.1338  1.1776 -0.5538
11939WAT    EPW48478   2.609   3.245   1.840  0.4968  0.3303  0.1580
11940WAT      O48479   2.036   1.174   2.164  0.1325  0.4875  0.3424
11940WAT     H148480   2.089   1.119   2.122  0.3764 -0.4978  1.8839
11940WAT     H248481   2.032   1.243   2.110 -0.5584 -1.1620 -1.8899
11940WAT    EPW48482   2.043   1.176   2.150  0.0665  0.0983  0.2404
11941WAT      O48483   6.084   5.339   0.578  0.1784  0.2819  0.0242
11941WAT     H148484   6.026   5.399   0.604  1.9647  1.0656  2.5098
11941WAT     H248485   6.092   5.354   0.493 -3.6300 -0.2574 -0.5970
11941WAT    EPW48486   6.076   5.350   0.569 -0.1203  0.3180  0.2996
11942WAT      O48487   2.801   5.425   5.185  0.7831 -0.0766 -0.4983
11942WAT     H148488   2.718   5.442   5.164  0.1654 -0.2334  1.5782
11942WAT     H248489   2.795   5.357   5.240  2.3982 -0.8475 -1.1997
11942WAT    EPW48490   2.788   5.418   5.190  0.9304 -0.2136 -0.2952
11943WAT      O48491   4.010   6.877   4.442  0.3602 -0.1701  0.1878
11943WAT     H148492   4.074   6.830   4.479  0.0382 -0.2323  0.6603
11943WAT     H248493   3.952   6.817   4.417  0.6937 -0.1520 -0.6572
11943WAT    EPW48494   4.011   6.862   4.444  0.3619 -0.1766  0.1328
11944WAT      O48495   5.913   2.167   0.690 -0.0840 -0.2307 -0.0847
11944WAT     H148496   5.997   2.170   0.714  0.5565  0.0967 -2.1981
11944WAT     H248497   5.898   2.081   0.680  0.1393 -0.2612 -0.1677
11944WAT    EPW48498   5.923   2.155   0.692  0.0436 -0.1868 -0.4092
11945WAT      O48499   6.866   2.336   6.206  0.0130  0.2534 -0.1379
11945WAT     H148500   6.863   2.349   6.293 -0.6248 -0.7772  0.0120
11945WAT     H248501   6.939   2.289   6.195 -0.2786 -0.2338 -0.0530
11945WAT    EPW48502   6.876   2.331   6.218 -0.1243  0.0292 -0.1032
11946WAT      O48503   6.522   4.379   6.967  0.2714  0.6784  0.3819
11946WAT     H148504   6.573   4.448   6.982 -0.4715  1.6969 -1.4973
11946WAT     H248505   6.573   4.326   6.920  0.5820  0.2694  1.1575
11946WAT    EPW48506   6.537   4.382   6.962  0.2076  0.7685  0.2189
11947WAT      O48507   3.783   0.446   3.716  0.0836  0.5252 -0.3617
11947WAT     H148508   3.774   0.516   3.664  1.1062 -0.0255 -1.3395
11947WAT     H248509   3.820   0.387   3.663  1.7252  0.1289  1.1498
11947WAT    EPW48510   3.787   0.447   3.700  0.4772  0.3853 -0.2828
11948WAT      O48511   4.723   0.496   2.535  0.1983  0.9117 -0.0841
11948WAT     H148512   4.733   0.502   2.448  1.0856 -1.6367 -0.2443
11948WAT     H248513   4.664   0.433   2.544  1.8419 -0.5307  1.1405
11948WAT    EPW48514   4.716   0.488   2.523  0.5722  0.3222  0.0731
11949WAT      O48515   2.218   4.521   3.255 -0.0657  0.1556 -0.0447
11949WAT     H148516   2.208   4.455   3.311 -1.1316  0.7862  0.5301
11949WAT     H248517   2.187   4.590   3.299  2.9845  1.5044  0.2256
11949WAT    EPW48518   2.212   4.521   3.270  0.2274  0.4480  0.0801
11950WAT      O48519   3.638   2.803   5.335 -0.1496 -0.5211 -0.0843
11950WAT     H148520   3.571   2.748   5.341  0.2646 -1.0107  0.0613
11950WAT     H248521   3.616   2.868   5.389 -2.1635  1.1070 -2.6242
11950WAT    EPW48522   3.625   2.805   5.344 -0.3859 -0.3529 -0.4380
11951WAT      O48523   6.045   7.207   6.214  0.1199 -0.5928 -0.4027
11951WAT     H148524   6.106   7.266   6.193 -0.3916 -0.1393 -0.6503
11951WAT     H248525   6.029   7.223   6.298 -0.6063  0.1990 -0.6659
11951WAT    EPW48526   6.052   7.218   6.223 -0.0629 -0.4089 -0.4781
11952WAT      O48527   5.430   1.254   6.221 -1.2488  0.0746  0.2443
11952WAT     H148528   5.367   1.288   6.170 -0.0436  3.4193  0.7134
11952WAT     H248529   5.395   1.255   6.300 -1.5767 -0.8661  0.1215
11952WAT    EPW48530   5.415   1.259   6.225 -1.1192  0.4297  0.2954
11953WAT      O48531   1.909   1.873   0.290  0.2188 -0.1900 -0.0634
11953WAT     H148532   1.864   1.918   0.350 -0.6030 -0.3497 -0.5421
11953WAT     H248533   1.958   1.818   0.337 -1.2127 -1.0679  0.4463
11953WAT    EPW48534   1.910   1.872   0.305 -0.1140 -0.3433 -0.0588
11954WAT      O48535   1.546   3.627   7.164  0.0596  0.2353  0.3943
11954WAT     H148536   1.586   3.565   7.118 -0.5214  0.4767 -0.4507
11954WAT     H248537   1.470   3.590   7.187 -0.1077  0.4825  0.2462
11954WAT    EPW48538   1.541   3.612   7.161 -0.0509  0.3075  0.2476
11955WAT      O48539   0.595   5.082   0.884 -0.4203 -0.2960 -0.5604
11955WAT     H148540   0.513   5.097   0.859 -0.2602  0.0313 -0.8892
11955WAT     H248541   0.620   5.157   0.922 -0.0798 -0.1845 -0.9902
11955WAT    EPW48542   0.587   5.095   0.886 -0.3464 -0.2312 -0.6724
11956WAT      O48543   3.126   6.337   0.756  0.1173 -0.0318  0.1182
11956WAT     H148544   3.110   6.301   0.834  0.9176  0.5850  0.5846
11956WAT     H248545   3.084   6.284   0.700 -0.0997 -0.7368  0.9219
11956WAT    EPW48546   3.118   6.324   0.759  0.2035 -0.0449  0.3058
11957WAT      O48547   2.458   2.820   2.087  0.1343 -0.2925 -0.3321
11957WAT     H148548   2.498   2.839   2.162  0.5331  0.4354 -0.7216
11957WAT     H248549   2.453   2.897   2.046 -1.3388 -0.4256 -0.4542
11957WAT    EPW48550   2.463   2.834   2.092 -0.0244 -0.2047 -0.4077
11958WAT      O48551   2.120   3.485   0.860 -0.0966 -0.4146  0.6744
11958WAT     H148552   2.081   3.445   0.793 -1.3570 -0.0255  1.1310
11958WAT     H248553   2.163   3.421   0.901 -2.2064 -1.4062  1.4866
11958WAT    EPW48554   2.120   3.470   0.856 -0.5945 -0.5036  0.8618
11959WAT      O48555   6.744   1.089   2.693  0.1926 -0.4572 -0.2965
11959WAT     H148556   6.790   1.163   2.696  1.6230 -1.2533 -1.2039
11959WAT     H248557   6.716   1.086   2.611 -1.2568 -0.1509  0.1605
11959WAT    EPW48558   6.747   1.099   2.681  0.1898 -0.5295 -0.3631
11960WAT      O48559   1.990   6.213   3.574  0.3237  0.7268  0.5847
11960WAT     H148560   1.957   6.293   3.564 -3.0192 -0.4855  0.5616
11960WAT     H248561   2.047   6.206   3.509 -1.2187  2.2445 -1.0626
11960WAT    EPW48562   1.993   6.224   3.563 -0.3980  0.7719  0.3379
11961WAT      O48563   0.134   5.349   3.507  0.0430 -0.5210 -0.6635
11961WAT     H148564   0.202   5.294   3.504  0.3095 -0.2824  0.4290
11961WAT     H248565   0.168   5.422   3.539 -0.9861 -0.8783  1.4357
11961WAT    EPW48566   0.149   5.352   3.512 -0.0696 -0.5385 -0.1920
11962WAT      O48567   3.322   1.926   3.122 -0.2910 -0.7159  0.4241
11962WAT     H148568   3.324   1.845   3.089 -1.4332 -0.2316 -0.9209
11962WAT     H248569   3.368   1.919   3.196  3.3875 -1.6193 -1.7206
11962WAT    EPW48570   3.329   1.913   3.128  0.0837 -0.7778 -0.0914
11963WAT      O48571   5.375   1.004   1.050  0.5525  0.4477  0.1038
11963WAT     H148572   5.394   0.920   1.066 -1.0512 -0.0732 -0.5335
11963WAT     H248573   5.437   1.029   0.994  0.9714 -0.3553  0.2021
11963WAT    EPW48574   5.387   0.995   1.044  0.3775  0.2521  0.0242
11964WAT      O48575   6.400   1.694   1.202  0.0637  0.5387 -0.0637
11964WAT     H148576   6.487   1.689   1.209  0.3375  0.1064 -2.7250
11964WAT     H248577   6.375   1.732   1.277  2.6125  1.4403  0.4058
11964WAT    EPW48578   6.409   1.699   1.214  0.4807  0.6080 -0.3875
11965WAT      O48579   3.076   1.704   0.528  0.1358  0.5730 -0.2710
11965WAT     H148580   3.108   1.783   0.514  2.8352 -0.2091  0.8354
11965WAT     H248581   3.107   1.682   0.607 -1.1794 -1.2578 -0.1919
11965WAT    EPW48582   3.086   1.712   0.537  0.3403  0.1870 -0.0959
11966WAT      O48583   5.008   2.861   2.219  0.3837 -0.6128 -0.2810
11966WAT     H148584   4.992   2.854   2.133  1.5717  1.4298 -0.7381
11966WAT     H248585   4.945   2.914   2.247  0.7288 -0.2724 -0.1498
11966WAT    EPW48586   4.996   2.867   2.210  0.6102 -0.2608 -0.3291
11967WAT      O48587   3.111   6.748   0.766 -0.0511  0.1055 -0.3142
11967WAT     H148588   3.042   6.705   0.735  0.8910 -0.3522 -1.8666
11967WAT     H248589   3.132   6.803   0.702  0.6501  0.7082  0.4054
11967WAT    EPW48590   3.104   6.750   0.752  0.1917  0.1269 -0.4372
11968WAT      O48591   6.560   2.338   0.653  0.0735 -0.5402 -0.4087
11968WAT     H148592   6.586   2.347   0.570  0.1102  2.2855 -0.1967
11968WAT     H248593   6.476   2.315   0.646  0.3440 -1.3312 -1.2042
11968WAT    EPW48594   6.552   2.336   0.640  0.1189 -0.2397 -0.4949
11969WAT      O48595   7.190   1.429   3.759 -0.0860 -0.5053 -0.3268
11969WAT     H148596   7.238   1.397   3.824  1.4037  0.5515 -0.8631
11969WAT     H248597   7.246   1.434   3.692 -1.3220 -0.6247 -1.4195
11969WAT    EPW48598   7.205   1.425   3.758 -0.0485 -0.3668 -0.5674
11970WAT      O48599   0.964   5.061   0.919 -0.4137  0.3200 -0.1612
11970WAT     H148600   0.900   5.043   0.863  0.8542 -0.9762 -1.2839
11970WAT     H248601   1.031   5.082   0.867  0.4624  0.3120  0.9226
11970WAT    EPW48602   0.964   5.061   0.903 -0.0970  0.1274 -0.1670
11971WAT      O48603   3.705   4.489   3.964 -0.4693  0.4794 -0.4185
11971WAT     H148604   3.741   4.453   4.034 -1.8680 -1.8739 -0.8140
11971WAT     H248605   3.622   4.502   3.987 -1.3457 -1.6885 -1.9732
11971WAT    EPW48606   3.698   4.486   3.978 -0.8054 -0.1884 -0.7066
11972WAT      O48607   5.639   4.916   0.215 -0.3323  0.5706  0.1445
11972WAT     H148608   5.675   4.976   0.267  0.7015  1.6304 -1.6732
11972WAT     H248609   5.563   4.898   0.253  0.6115  0.8522  2.2861
11972WAT    EPW48610   5.633   4.923   0.228 -0.0402  0.7688  0.1924
11973WAT      O48611   2.675   1.506   3.797  0.3047 -0.1101 -0.6237
11973WAT     H148612   2.659   1.431   3.756  0.5914  0.1056 -1.1390
11973WAT     H248613   2.606   1.555   3.778 -0.1957 -0.4552  0.2475
11973WAT    EPW48614   2.663   1.502   3.788  0.2731 -0.1292 -0.5711
11974WAT      O48615   1.594   4.294   5.282  0.5908  0.0425 -0.4021
11974WAT     H148616   1.671   4.310   5.321  0.1697  0.3647  0.3178
11974WAT     H248617   1.597   4.342   5.210  1.2517 -0.3063 -0.6178
11974WAT    EPW48618   1.606   4.303   5.277  0.6262  0.0385 -0.3276
11975WAT      O48619   6.417   1.015   5.800  0.3482 -0.2107 -0.0976
11975WAT     H148620   6.474   1.020   5.866 -0.4978  0.4440  0.5998
11975WAT     H248621   6.444   1.077   5.745 -0.3180  0.8931  0.7629
11975WAT    EPW48622   6.429   1.025   5.802  0.1248  0.0490  0.1325
11976WAT      O48623   4.415   1.868   0.163  0.6287  0.3151 -0.2744
11976WAT     H148624   4.457   1.885   0.238 -1.5321 -0.6152  1.2410
11976WAT     H248625   4.448   1.791   0.139  0.2419 -0.1525  0.6149
11976WAT    EPW48626   4.426   1.859   0.171  0.2524  0.1086  0.0808
11977WAT      O48627   3.533   6.009   5.125 -0.4385  0.1328  0.4480
11977WAT     H148628   3.466   5.993   5.071 -0.9023  2.5539  0.1853
11977WAT     H248629   3.603   5.989   5.077 -0.9017 -0.9694  0.1922
11977WAT    EPW48630   3.534   6.003   5.110 -0.5754  0.3276  0.3714
11978WAT      O48631   1.453   2.587   2.614 -0.1053 -0.0943  0.1469
11978WAT     H148632   1.475   2.582   2.529  0.3408  0.9929  0.1868
11978WAT     H248633   1.445   2.503   2.637 -2.4336 -0.4242 -1.4938
11978WAT    EPW48634   1.455   2.574   2.605 -0.3834  0.0176 -0.0896
11979WAT      O48635   3.405   6.625   1.238 -0.0424 -0.0656 -0.0080
11979WAT     H148636   3.391   6.559   1.293  0.6173  0.3986  0.7418
11979WAT     H248637   3.492   6.623   1.226  0.0048  0.7359  0.1317
11979WAT    EPW48638   3.416   6.615   1.244  0.0620  0.1214  0.1234
11980WAT      O48639   2.145   1.084   5.307 -0.4988  0.2238  0.0800
11980WAT     H148640   2.206   1.103   5.367 -2.8098 -0.7704  3.0033
11980WAT     H248641   2.166   1.003   5.282 -0.3817  0.0288  0.7808
11980WAT    EPW48642   2.158   1.075   5.312 -0.8229  0.0481  0.6153
11981WAT      O48643   2.444   2.017   3.909  0.4419 -0.1940 -0.2362
11981WAT     H148644   2.426   2.101   3.923  2.4251  0.5452 -1.6320
11981WAT     H248645   2.422   2.006   3.825 -0.6481 -1.3525  0.1790
11981WAT    EPW48646   2.438   2.028   3.898  0.5739 -0.2559 -0.3810
11982WAT      O48647   4.209   0.832   4.879  0.4575 -0.0759  0.5217
11982WAT     H148648   4.286   0.869   4.860  0.5928 -1.1658 -1.2758
11982WAT     H248649   4.231   0.753   4.908  0.0293 -0.7167 -0.8253
11982WAT    EPW48650   4.224   0.826   4.880  0.4142 -0.3316  0.0572
11983WAT      O48651   3.319   5.541   6.309  0.0105  0.2447  0.0139
11983WAT     H148652   3.298   5.552   6.393  1.3553 -0.9551  0.5429
11983WAT     H248653   3.341   5.621   6.283 -0.1188  0.5792  0.8931
11983WAT    EPW48654   3.319   5.554   6.318  0.1901  0.1169  0.2220
11984WAT      O48655   3.543   0.670   2.761  0.1496 -0.6631 -0.2524
11984WAT     H148656   3.549   0.747   2.801 -0.0363 -0.0820 -1.3224
11984WAT     H248657   3.620   0.661   2.721 -0.3608 -0.3102 -1.3650
11984WAT    EPW48658   3.555   0.680   2.761  0.0467 -0.5251 -0.5748
11985WAT      O48659   2.048   6.874   0.754  0.3913  0.2725 -0.1115
11985WAT     H148660   2.092   6.862   0.680 -1.5010 -0.0804 -1.2232
11985WAT     H248661   2.031   6.959   0.754 -1.0175  0.0184 -0.9537
11985WAT    EPW48662   2.052   6.885   0.743 -0.0963  0.1829 -0.4001
11986WAT      O48663   6.048   4.963   2.534 -0.4313  0.3464  0.1719
11986WAT     H148664   6.102   4.950   2.467 -0.2228  0.0654  0.3894
11986WAT     H248665   6.036   5.049   2.534 -0.1154  0.3928  0.0157
11986WAT    EPW48666   6.054   4.974   2.524 -0.3538  0.3118  0.1810
11987WAT      O48667   5.491   2.894   0.355 -0.0440  0.1087 -0.1749
11987WAT     H148668   5.441   2.917   0.287  0.3635  1.4677 -0.0461
11987WAT     H248669   5.445   2.920   0.424  0.4769  0.6434 -0.0241
11987WAT    EPW48670   5.476   2.901   0.355  0.0931  0.3885 -0.1336
11988WAT      O48671   2.741   3.878   4.352  0.9245 -0.0689  0.0225
11988WAT     H148672   2.783   3.843   4.420  0.9631 -0.4937 -0.2182
11988WAT     H248673   2.691   3.939   4.388  1.9582  0.6589  0.2980
11988WAT    EPW48674   2.740   3.882   4.367  1.0829 -0.0241  0.0276
11989WAT      O48675   6.452   4.632   7.314  0.1712 -0.1438  0.0347
11989WAT     H148676   6.485   4.691   7.369  0.3717 -0.1126 -0.1192
11989WAT     H248677   6.446   4.675   7.239 -1.6403  0.3325  0.3934
11989WAT    EPW48678   6.456   4.647   7.311 -0.0668 -0.0688  0.0649
11990WAT      O48679   2.441   5.807   7.173 -0.4248 -0.3269  0.4007
11990WAT     H148680   2.445   5.882   7.129  2.5532 -0.7342 -0.1903
11990WAT     H248681   2.420   5.748   7.112  2.7028 -0.7280 -0.4648
11990WAT    EPW48682   2.438   5.809   7.158  0.4772 -0.4463  0.1856
11991WAT      O48683   4.515   1.486   1.716  0.7343 -0.2848  0.1391
11991WAT     H148684   4.519   1.533   1.643  1.2291 -0.8120 -0.1820
11991WAT     H248685   4.487   1.408   1.689 -0.2351 -0.1362  0.6911
11991WAT    EPW48686   4.512   1.481   1.701  0.6642 -0.3407  0.1732
11992WAT      O48687   4.922   2.886   4.760  0.1510 -0.3216 -0.4930
11992WAT     H148688   5.008   2.899   4.764  0.1855 -0.4458 -0.8383
11992WAT     H248689   4.896   2.898   4.843  0.2735  1.2184 -0.6485
11992WAT    EPW48690   4.931   2.889   4.773  0.1742 -0.1124 -0.5670
11993WAT      O48691   6.937   3.904   0.244  0.3213  0.9485 -0.4956
11993WAT     H148692   6.915   3.887   0.327  0.7472 -1.1556 -0.7588
11993WAT     H248693   6.989   3.973   0.251 -0.3346  1.3443  0.8981
11993WAT    EPW48694   6.941   3.911   0.258  0.2873  0.6961 -0.3286
11994WAT      O48695   1.608   5.475   7.334  0.6805  0.2328  0.3805
11994WAT     H148696   1.693   5.457   7.326  0.7937 -0.7292  2.9408
11994WAT     H248697   1.595   5.479   7.420 -1.7854  0.8727  0.0664
11994WAT    EPW48698   1.619   5.473   7.345  0.3329  0.1852  0.7123
11995WAT      O48699   4.607   6.672   3.068  0.0477  0.0764 -0.2721
11995WAT     H148700   4.611   6.723   2.998 -0.4227  0.2981 -0.1414
11995WAT     H248701   4.654   6.715   3.128 -1.6130  1.1399  0.3146
11995WAT    EPW48702   4.615   6.686   3.067 -0.2671  0.2663 -0.1661
11996WAT      O48703   3.178   7.181   1.486 -0.6916 -0.2191  0.2845
11996WAT     H148704   3.137   7.211   1.556  0.2673  1.0311  0.3427
11996WAT     H248705   3.249   7.141   1.518 -0.5249 -0.1089  0.0625
11996WAT    EPW48706   3.182   7.180   1.501 -0.5253 -0.0181  0.2603
11997WAT      O48707   3.189   5.848   6.671  0.3491 -0.6325 -0.0623
11997WAT     H148708   3.264   5.864   6.629  0.2742  0.5378  0.2177
11997WAT     H248709   3.127   5.871   6.613  0.2481  1.3792  0.7775
11997WAT    EPW48710   3.191   5.854   6.656  0.3231 -0.1625  0.1031
11998WAT      O48711   2.738   0.205   4.972  0.5948 -1.0150  0.0789
11998WAT     H148712   2.731   0.144   4.911 -2.7143  0.0531 -0.8453
11998WAT     H248713   2.776   0.272   4.931 -0.5056 -0.7246 -0.4971
11998WAT    EPW48714   2.743   0.206   4.957 -0.0566 -0.8143 -0.1427
11999WAT      O48715   6.811   0.569   7.351  0.2914 -0.7191  0.0696
11999WAT     H148716   6.852   0.492   7.358  1.9420  0.2213  1.6008
11999WAT     H248717   6.836   0.599   7.273  0.2679 -1.3774 -0.1999
11999WAT    EPW48718   6.821   0.562   7.341  0.5317 -0.6774  0.2559
12000WAT      O48719   6.811   6.835   3.546 -0.0377  0.2779  0.2800
12000WAT     H148720   6.872   6.853   3.486 -1.8046 -0.5214 -1.9321
12000WAT     H248721   6.772   6.913   3.559  0.9045  0.6301  1.1062
12000WAT    EPW48722   6.814   6.849   3.539 -0.1596  0.2118  0.0753
12001WAT      O48723   7.079   0.972   4.794 -0.9591  0.0628  0.4230
12001WAT     H148724   7.007   0.935   4.828 -0.7513 -2.1221 -1.2903
12001WAT     H248725   7.068   0.963   4.708 -0.1885  2.8762 -0.0555
12001WAT    EPW48726   7.067   0.965   4.786 -0.8146  0.1556  0.0992
12002WAT      O48727   5.571   1.798   3.182 -0.6797  0.7651  0.8073
12002WAT     H148728   5.610   1.873   3.203 -0.7442  1.1839 -0.4634
12002WAT     H248729   5.614   1.772   3.111  0.6084 -1.4297  2.2667
12002WAT    EPW48730   5.583   1.806   3.175 -0.4989  0.5027  0.8352
12003WAT      O48731   5.026   5.860   7.241  0.0964 -0.6817 -0.1201
12003WAT     H148732   4.960   5.808   7.263  0.3517 -1.2697 -0.7093
12003WAT     H248733   5.004   5.937   7.276 -0.2056 -1.2211  0.9044
12003WAT    EPW48734   5.013   5.864   7.249  0.0895 -0.8483 -0.0558
12004WAT      O48735   5.599   4.645   0.617 -0.1358 -0.0054 -0.3411
12004WAT     H148736   5.632   4.617   0.693  0.3241  0.1474 -0.4770
12004WAT     H248737   5.665   4.632   0.560 -0.5370 -0.2831 -0.7478
12004WAT    EPW48738   5.614   4.639   0.620 -0.1271 -0.0239 -0.4212
12005WAT      O48739   4.384   4.089   3.287  0.0349 -0.1570  0.1843
12005WAT     H148740   4.422   4.032   3.341  1.4715 -0.2747 -0.8911
12005WAT     H248741   4.415   4.167   3.313  0.7327 -0.2141 -0.4538
12005WAT    EPW48742   4.394   4.092   3.299  0.3502 -0.1828 -0.0688
12006WAT      O48743   3.871   3.965   3.977  0.7762  0.5461 -0.0159
12006WAT     H148744   3.880   3.879   3.965  0.5647  0.6273 -0.8278
12006WAT     H248745   3.857   3.995   3.897  0.0322  1.2394  0.3653
12006WAT    EPW48746   3.870   3.957   3.964  0.6350  0.6605 -0.0795
12007WAT      O48747   6.678   4.726   4.514 -0.3622  0.2877 -0.1594
12007WAT     H148748   6.675   4.786   4.577  0.9070 -1.3109  1.5140
12007WAT     H248749   6.725   4.765   4.451 -2.5710  2.3184 -0.6838
12007WAT    EPW48750   6.685   4.741   4.514 -0.5010  0.3515  0.0104
12008WAT      O48751   4.798   3.208   2.272  0.5429 -0.3181  0.4765
12008WAT     H148752   4.783   3.122   2.267 -1.2605 -0.0257  0.0203
12008WAT     H248753   4.718   3.242   2.274  1.2108  1.2969  1.9866
12008WAT    EPW48754   4.784   3.200   2.271  0.3751 -0.0364  0.6322
12009WAT      O48755   0.129   6.423   0.505  0.1817 -0.6163 -0.1911
12009WAT     H148756   0.197   6.389   0.547 -0.6454  1.1449  2.8871
12009WAT     H248757   0.065   6.365   0.520  0.3194 -0.8938 -0.6572
12009WAT    EPW48758   0.130   6.409   0.513  0.0798 -0.3972  0.1948
12010WAT      O48759   3.464   2.676   0.842 -0.0885  0.0822 -0.6908
12010WAT     H148760   3.463   2.689   0.755  1.4938 -0.0764 -0.7594
12010WAT     H248761   3.548   2.657   0.859 -0.9478 -3.7449  0.3046
12010WAT    EPW48762   3.476   2.675   0.831  0.0183 -0.5066 -0.5539
12011WAT      O48763   2.735   2.521   3.492 -0.6819 -0.2031  0.2954
12011WAT     H148764   2.812   2.556   3.514 -0.5478  1.0291 -1.8572
12011WAT     H248765   2.733   2.446   3.537 -0.4117  1.8405  4.1462
12011WAT    EPW48766   2.746   2.515   3.502 -0.6222  0.2808  0.5463
12012WAT      O48767   0.781   5.634   5.739 -0.2162 -0.2151  0.6726
12012WAT     H148768   0.815   5.585   5.803  2.6763  1.4923  0.6418
12012WAT     H248769   0.827   5.610   5.669 -2.0860 -0.7717 -0.4033
12012WAT    EPW48770   0.793   5.623   5.738 -0.0651 -0.0451  0.5092
12013WAT      O48771   3.834   7.083   0.698  0.6229  0.9372  0.1719
12013WAT     H148772   3.806   7.069   0.617 -0.1897  0.0100  0.5906
12013WAT     H248773   3.796   7.020   0.745  0.6819  1.7421  1.3658
12013WAT    EPW48774   3.825   7.071   0.693  0.5116  0.9191  0.4101
12014WAT      O48775   4.631   0.844   3.409  0.0590  0.0918  0.2045
12014WAT     H148776   4.593   0.893   3.347 -0.2962 -1.9510 -1.3045
12014WAT     H248777   4.716   0.850   3.390 -0.0204 -0.2267 -0.2968
12014WAT    EPW48778   4.638   0.852   3.397 -0.0052 -0.2570 -0.0925
12015WAT      O48779   4.358   0.477   1.983 -0.1057  0.2074  0.1694
12015WAT     H148780   4.369   0.430   2.056  1.5018  1.0602  0.5255
12015WAT     H248781   4.367   0.559   2.010  1.1392  0.5173 -1.0748
12015WAT    EPW48782   4.361   0.482   1.998  0.3157  0.3791  0.0382
12016WAT      O48783   3.510   3.269   1.466 -0.3576  0.1626  0.0512
12016WAT     H148784   3.543   3.190   1.482 -0.2742  0.2477  0.3138
12016WAT     H248785   3.580   3.320   1.456 -0.3241  0.7429  2.5673
12016WAT    EPW48786   3.525   3.265   1.467 -0.3404  0.2609  0.4617
12017WAT      O48787   0.423   5.648   2.750  0.0256 -0.3967 -0.1891
12017WAT     H148788   0.440   5.642   2.835  1.9188  0.2943 -0.4656
12017WAT     H248789   0.408   5.565   2.726 -2.4193 -0.4098  1.1055
12017WAT    EPW48790   0.423   5.635   2.759 -0.0559 -0.2965 -0.0387
12018WAT      O48791   2.230   2.012   2.762  0.1870 -0.5823 -0.1046
12018WAT     H148792   2.233   1.926   2.749  1.1226 -0.4105 -1.2251
12018WAT     H248793   2.272   2.024   2.837  0.1079 -1.0854  0.0228
12018WAT    EPW48794   2.236   2.001   2.771  0.3135 -0.6313 -0.2513
12019WAT      O48795   4.190   3.428   3.403  0.0281 -0.1234 -0.1518
12019WAT     H148796   4.231   3.387   3.468 -0.6942  0.6524  0.8193
12019WAT     H248797   4.118   3.381   3.392 -0.8898  0.9214  1.0849
12019WAT    EPW48798   4.186   3.415   3.411 -0.2142  0.1455  0.1743
12020WAT      O48799   0.025   6.813   2.808  0.9190 -0.8246 -0.0330
12020WAT     H148800   0.064   6.741   2.777  0.8767 -0.7345 -0.3007
12020WAT     H248801   0.092   6.863   2.835  0.8873 -1.4951  1.3405
12020WAT    EPW48802   0.041   6.810   2.807  0.9081 -0.9103  0.1303
12021WAT      O48803   5.174   1.232   1.042  0.2870  0.2852  0.6072
12021WAT     H148804   5.197   1.265   1.120  0.9386 -1.5620  1.2394
12021WAT     H248805   5.195   1.148   1.048 -2.0994 -0.4985 -0.6226
12021WAT    EPW48806   5.180   1.225   1.055  0.0308 -0.1035  0.5189
12022WAT      O48807   1.016   3.515   0.195  0.6772  0.3298 -0.2631
12022WAT     H148808   0.947   3.547   0.152 -1.1016 -0.3817  1.9021
12022WAT     H248809   1.038   3.580   0.249 -0.0272 -0.3953  0.9236
12022WAT    EPW48810   1.009   3.530   0.196  0.3104  0.1176  0.2320
12023WAT      O48811   2.506   6.764   0.993 -0.0079 -0.2036 -0.2819
12023WAT     H148812   2.428   6.804   0.995  0.1385  0.0825 -0.1374
12023WAT     H248813   2.545   6.793   1.066  0.1065 -0.6071 -0.1797
12023WAT    EPW48814   2.500   6.775   1.004  0.0306 -0.2209 -0.2455
12024WAT      O48815   3.055   4.586   7.230 -0.3242 -0.7183 -0.3205
12024WAT     H148816   3.019   4.573   7.308 -1.0941  2.7840  0.0842
12024WAT     H248817   3.138   4.605   7.248 -0.5054  0.1055 -0.3397
12024WAT    EPW48818   3.062   4.587   7.244 -0.4647 -0.0793 -0.2636
12025WAT      O48819   6.839   5.664   1.849  0.2758  0.0042 -0.3461
12025WAT     H148820   6.877   5.586   1.837  1.8179  0.6792 -0.0996
12025WAT     H248821   6.839   5.700   1.770  0.9134  0.3219 -0.2087
12025WAT    EPW48822   6.845   5.658   1.836  0.5978  0.1508 -0.2894
12026WAT      O48823   0.593   4.854   1.129 -0.2227  0.5327  0.2030
12026WAT     H148824   0.659   4.881   1.180 -0.0637  1.4065 -0.4424
12026WAT     H248825   0.605   4.898   1.055  1.4553 -2.9928 -1.8798
12026WAT    EPW48826   0.605   4.864   1.125  0.0486  0.1410 -0.2000
12027WAT      O48827   1.281   4.688   0.166  0.7957  0.1172  0.2188
12027WAT     H148828   1.284   4.757   0.112  2.0793 -0.8319 -1.0014
12027WAT     H248829   1.290   4.724   0.245  0.3165  1.4318 -0.2902
12027WAT    EPW48830   1.283   4.704   0.169  0.9146  0.1712 -0.0366
12028WAT      O48831   5.500   1.624   6.550 -0.2680  0.0404  0.2725
12028WAT     H148832   5.535   1.554   6.511  2.6428  0.1117  2.3807
12028WAT     H248833   5.477   1.595   6.629 -0.7196  1.0669  0.5425
12028WAT    EPW48834   5.502   1.610   6.556  0.0952  0.2026  0.6239
12029WAT      O48835   4.860   5.363   1.251 -0.2638  0.4018  0.0091
12029WAT     H148836   4.879   5.362   1.166  0.5254 -0.3194  0.1771
12029WAT     H248837   4.868   5.279   1.275 -3.2469  0.0570  0.2301
12029WAT    EPW48838   4.864   5.351   1.242 -0.5879  0.2444  0.0666
12030WAT      O48839   2.140   2.145   3.839  0.0143 -0.0887  0.5310
12030WAT     H148840   2.087   2.145   3.908  0.3509 -1.0828  0.7937
12030WAT     H248841   2.131   2.066   3.805  0.0175  0.3145 -0.4543
12030WAT    EPW48842   2.131   2.134   3.844  0.0645 -0.1760  0.4243
12031WAT      O48843   1.300   3.847   2.334  0.7571  0.3532 -0.5305
12031WAT     H148844   1.247   3.895   2.385  1.9369  0.0361  1.0736
12031WAT     H248845   1.244   3.799   2.286 -0.4081  1.0087  0.1260
12031WAT    EPW48846   1.284   3.847   2.335  0.7593  0.4032 -0.1965
12032WAT      O48847   5.136   5.916   0.963  0.0141 -0.0349 -0.4952
12032WAT     H148848   5.066   5.968   0.963 -0.9057 -1.1337  1.4854
12032WAT     H248849   5.196   5.962   1.007 -0.8965 -0.6670  1.5262
12032WAT    EPW48850   5.134   5.931   0.970 -0.2563 -0.2906  0.0960
12033WAT      O48851   6.837   7.154   3.548  0.3996  0.3928 -0.4418
12033WAT     H148852   6.871   7.229   3.520  1.3003  1.2147  2.5202
12033WAT     H248853   6.906   7.108   3.574 -0.2528 -0.9895 -1.0188
12033WAT    EPW48854   6.852   7.159   3.548  0.4363  0.3100 -0.0895
12034WAT      O48855   1.987   4.430   0.198 -0.5115  0.0359  0.1817
12034WAT     H148856   1.915   4.425   0.149  0.7297 -0.3426 -1.6980
12034WAT     H248857   2.051   4.407   0.144  0.9238 -0.8620  2.1316
12034WAT    EPW48858   1.986   4.426   0.183 -0.1161 -0.1526  0.1920
12035WAT      O48859   2.803   3.754   3.886 -0.2673  0.5737  0.1720
12035WAT     H148860   2.768   3.716   3.956  0.4332 -0.3155  0.0627
12035WAT     H248861   2.820   3.835   3.914 -1.4616  0.7306  0.5201
12035WAT    EPW48862   2.800   3.760   3.901 -0.3402  0.4655  0.2073
12036WAT      O48863   0.571   4.913   4.162  0.1484 -0.1896 -0.1181
12036WAT     H148864   0.640   4.877   4.123  0.2983  0.0282 -0.0600
12036WAT     H248865   0.599   4.993   4.182 -0.2271  0.0136 -0.3899
12036WAT    EPW48866   0.585   4.920   4.159  0.1151 -0.1274 -0.1496
12037WAT      O48867   1.114   3.290   6.480  0.1580  0.1477  0.4715
12037WAT     H148868   1.091   3.367   6.446 -0.2236 -0.4439 -0.6642
12037WAT     H248869   1.038   3.255   6.505  0.4021  0.4448  1.7293
12037WAT    EPW48870   1.099   3.296   6.479  0.1377  0.1042  0.4895
12038WAT      O48871   3.587   1.767   6.439  0.1103  0.1369  0.5057
12038WAT     H148872   3.560   1.756   6.357  0.0337 -2.8872  0.8331
12038WAT     H248873   3.516   1.796   6.480 -0.5848 -0.7124 -0.0489
12038WAT    EPW48874   3.572   1.770   6.433 -0.0037 -0.4353  0.4721
12039WAT      O48875   6.564   1.795   6.568 -0.2198  0.0235  0.1579
12039WAT     H148876   6.479   1.796   6.548 -0.2916 -0.3811  0.4388
12039WAT     H248877   6.564   1.780   6.654  0.1663 -1.2729 -0.0557
12039WAT    EPW48878   6.551   1.793   6.578 -0.1734 -0.2278  0.1678
12040WAT      O48879   3.470   1.353   3.640 -0.3180 -0.7946  0.3192
12040WAT     H148880   3.543   1.395   3.616 -0.9372  1.3977  1.9108
12040WAT     H248881   3.442   1.400   3.708 -4.5957  0.0753 -1.7452
12040WAT    EPW48882   3.477   1.366   3.647 -1.0414 -0.3422  0.2493
12041WAT      O48883   7.176   1.531   0.111 -0.0815 -0.2398  0.3288
12041WAT     H148884   7.223   1.597   0.079  1.2085  1.1944  4.4775
12041WAT     H248885   7.229   1.462   0.103  0.1292  0.0096 -0.5904
12041WAT    EPW48886   7.191   1.531   0.105  0.1402  0.0089  0.8058
12042WAT      O48887   2.807   1.402   7.225  0.2533  0.0241 -0.4743
12042WAT     H148888   2.881   1.398   7.271 -0.1445  1.2034  0.3089
12042WAT     H248889   2.755   1.344   7.265  0.2232  0.3706 -0.0030
12042WAT    EPW48890   2.810   1.393   7.238  0.1901  0.2495 -0.2890
12043WAT      O48891   0.313   5.264   1.826 -0.3919  0.5020 -0.2961
12043WAT     H148892   0.279   5.285   1.749 -0.0934 -0.1503 -0.6131
12043WAT     H248893   0.397   5.249   1.809 -0.5754 -0.9028 -0.1039
12043WAT    EPW48894   0.320   5.265   1.812 -0.3749  0.1981 -0.3145
12044WAT      O48895   2.974   0.798   4.324  0.1428  0.0979 -0.1137
12044WAT     H148896   2.958   0.727   4.275 -0.8387 -0.0885  0.4409
12044WAT     H248897   2.961   0.769   4.406  0.6052  0.6969  0.1762
12044WAT    EPW48898   2.970   0.783   4.329  0.0662  0.1589  0.0110
12045WAT      O48899   2.696   3.631   3.646 -0.0333  0.3326 -0.1502
12045WAT     H148900   2.707   3.546   3.662  0.3923  0.4858  0.3650
12045WAT     H248901   2.722   3.670   3.719  2.6898  1.0915 -1.4001
12045WAT    EPW48902   2.701   3.624   3.659  0.4318  0.4673 -0.2587
12046WAT      O48903   1.408   2.697   0.565 -0.0877 -0.5892 -0.4306
12046WAT     H148904   1.491   2.723   0.557 -0.1758 -0.5787 -1.3982
12046WAT     H248905   1.397   2.641   0.499 -1.0285 -0.1097 -0.7004
12046WAT    EPW48906   1.419   2.693   0.554 -0.2397 -0.5168 -0.6134
12047WAT      O48907   4.591   1.628   3.393  0.0779  0.5109 -0.2990
12047WAT     H148908   4.531   1.637   3.456  0.4684  0.0446  0.1567
12047WAT     H248909   4.548   1.647   3.320  0.2649  3.7515  0.3023
12047WAT    EPW48910   4.576   1.632   3.392  0.1632  0.9207 -0.1428
12048WAT      O48911   1.213   2.824   5.603  0.0089 -0.3258  0.6209
12048WAT     H148912   1.227   2.751   5.557  1.4260  0.0237  0.4407
12048WAT     H248913   1.236   2.802   5.684 -0.6174 -0.3826  0.7873
12048WAT    EPW48914   1.218   2.810   5.608  0.1257 -0.2826  0.6189
12049WAT      O48915   0.630   2.912   3.683  0.2394  0.2758  0.1003
12049WAT     H148916   0.631   2.867   3.608  0.2160 -0.1558  0.3538
12049WAT     H248917   0.563   2.967   3.673 -1.4833 -1.5439  0.8003
12049WAT    EPW48918   0.620   2.913   3.671 -0.0185 -0.0567  0.2412
12050WAT      O48919   5.862   5.419   7.000 -0.4668  0.1306 -0.0930
12050WAT     H148920   5.908   5.491   7.020 -0.7563  0.3267 -0.1255
12050WAT     H248921   5.867   5.415   6.913  0.6325 -0.6163 -0.0189
12050WAT    EPW48922   5.869   5.429   6.990 -0.3472  0.0493 -0.0869
12051WAT      O48923   1.488   6.515   7.278 -0.1190 -0.3513 -0.3567
12051WAT     H148924   1.566   6.524   7.238 -0.1040  0.6454 -0.1163
12051WAT     H248925   1.439   6.476   7.217  0.5709 -1.0559 -0.4897
12051WAT    EPW48926   1.493   6.510   7.263 -0.0149 -0.3081 -0.3409
12052WAT      O48927   6.445   5.116   2.909  0.3540  0.4855 -0.5425
12052WAT     H148928   6.440   5.202   2.922  0.0053  0.1072  2.5042
12052WAT     H248929   6.363   5.095   2.887  0.3886  0.9056 -1.0857
12052WAT    EPW48930   6.432   5.126   2.908  0.3076  0.4917 -0.1727
12053WAT      O48931   2.484   0.216   1.545  0.7844 -0.3055  0.0752
12053WAT     H148932   2.422   0.156   1.533  0.5214 -0.3258  1.3335
12053WAT     H248933   2.545   0.174   1.591  0.6408  0.3422  0.8929
12053WAT    EPW48934   2.484   0.201   1.550  0.7243 -0.2128  0.3819
12054WAT      O48935   2.816   0.719   7.293  0.3222 -0.1125 -0.1364
12054WAT     H148936   2.741   0.747   7.259  0.4798 -0.1182 -0.4970
12054WAT     H248937   2.859   0.793   7.312  0.5727 -0.1049 -0.7161
12054WAT    EPW48938   2.811   0.734   7.291  0.3825 -0.1122 -0.2753
12055WAT      O48939   3.635   2.518   7.014  0.3244 -0.4048  0.1988
12055WAT     H148940   3.684   2.543   7.082  0.3178  0.7696 -0.2057
12055WAT     H248941   3.689   2.526   6.946 -0.1121 -0.1285 -0.1197
12055WAT    EPW48942   3.651   2.523   7.014  0.2590 -0.1905  0.0920
12056WAT      O48943   0.984   0.015   0.507 -0.0565 -0.0278 -0.0365
12056WAT     H148944   0.983   0.097   0.480 -2.0456  0.7103  1.9141
12056WAT     H248945   0.924   0.014   0.571  1.5637 -2.4313  1.6404
12056WAT    EPW48946   0.975   0.027   0.513 -0.1110 -0.2738  0.4994
12057WAT      O48947   2.956   3.535   1.227  0.2176 -0.3229  0.5681
12057WAT     H148948   2.919   3.565   1.154  0.7639  1.0713  0.8281
12057WAT     H248949   3.023   3.590   1.239  2.1210 -2.4822  0.3456
12057WAT    EPW48950   2.960   3.548   1.218  0.5795 -0.4359  0.5737
12058WAT      O48951   2.535   2.145   6.002 -0.4734  0.0890 -0.5514
12058WAT     H148952   2.605   2.130   5.952 -0.3324 -0.7511 -0.1255
12058WAT     H248953   2.487   2.200   5.954  1.2544  2.0784 -0.1408
12058WAT    EPW48954   2.538   2.151   5.988 -0.1973  0.2587 -0.4278
12059WAT      O48955   0.818   5.923   2.789  0.4903  0.3710  0.0988
12059WAT     H148956   0.860   5.977   2.843  1.1060  1.1207 -1.0837
12059WAT     H248957   0.798   5.973   2.721 -1.6811 -0.1635  0.2741
12059WAT    EPW48958   0.821   5.938   2.787  0.2605  0.4027 -0.0500
12060WAT      O48959   6.407   6.984   5.451 -0.0135  0.0387 -0.0167
12060WAT     H148960   6.453   7.058   5.442  1.6142 -1.0287 -1.2209
12060WAT     H248961   6.438   6.933   5.387 -1.0754 -1.6960  0.7664
12060WAT    EPW48962   6.419   6.987   5.440  0.0701 -0.3753 -0.0789
12061WAT      O48963   5.824   2.032   4.441 -0.3300  0.2554 -0.3441
12061WAT     H148964   5.801   2.111   4.411 -0.6005  0.7547  1.0680
12061WAT     H248965   5.760   1.980   4.415 -0.1236  0.4762 -1.3348
12061WAT    EPW48966   5.811   2.036   4.433 -0.3395  0.3618 -0.2818
12062WAT      O48967   5.143   5.148   2.483 -0.6069  0.0774 -0.1105
12062WAT     H148968   5.094   5.134   2.553 -1.8695  1.9521 -0.5331
12062WAT     H248969   5.189   5.219   2.504  0.3136 -0.3731 -0.5484
12062WAT    EPW48970   5.142   5.157   2.496 -0.6574  0.2878 -0.2376
12063WAT      O48971   3.422   2.289   5.772  0.1826 -0.0576 -0.0358
12063WAT     H148972   3.397   2.371   5.788 -2.2461 -0.3025 -2.0287
12063WAT     H248973   3.424   2.285   5.685  1.9878 -1.6705  0.0191
12063WAT    EPW48974   3.419   2.301   5.762  0.0905 -0.3320 -0.3221
12064WAT      O48975   1.959   0.639   6.147 -0.5116 -0.1214 -0.1083
12064WAT     H148976   2.026   0.641   6.092 -0.2540  1.1914  0.2052
12064WAT     H248977   1.995   0.661   6.224 -0.7852 -2.2952  0.7047
12064WAT    EPW48978   1.974   0.643   6.151 -0.5139 -0.2486  0.0581
12065WAT      O48979   6.211   7.023   2.032 -0.3267  0.3204  0.6212
12065WAT     H148980   6.258   7.096   2.035 -1.0055  0.7880  0.2833
12065WAT     H248981   6.182   7.022   1.950  1.9833 -1.8341 -0.2970
12065WAT    EPW48982   6.214   7.034   2.020 -0.0857  0.0712  0.4357
12066WAT      O48983   0.055   6.594   5.380 -0.4797  0.0057  0.4558
12066WAT     H148984   0.052   6.514   5.415  1.6779  0.3457  1.6264
12066WAT     H248985  -0.004   6.639   5.426 -2.3764 -1.0579 -0.8204
12066WAT    EPW48986   0.046   6.589   5.392 -0.4412 -0.1012  0.4402
12067WAT      O48987   4.553   2.745   0.820  0.4176 -0.1472 -0.3979
12067WAT     H148988   4.492   2.727   0.761  1.3637  0.1099 -1.4945
12067WAT     H248989   4.536   2.827   0.844 -0.6051 -0.6027  0.5080
12067WAT    EPW48990   4.541   2.755   0.815  0.4063 -0.1765 -0.4261
12068WAT      O48991   5.636   1.933   6.847  0.3268 -0.4325  0.5288
12068WAT     H148992   5.635   1.915   6.762 -0.3385 -0.9534  0.6339
12068WAT     H248993   5.718   1.959   6.862  0.6543 -1.0448 -0.1251
12068WAT    EPW48994   5.648   1.934   6.837  0.2769 -0.5999  0.4477
12069WAT      O48995   1.012   3.414   1.226  0.2793 -0.8165  0.0862
12069WAT     H148996   1.066   3.361   1.183  1.2753 -1.1294  1.6456
12069WAT     H248997   1.047   3.493   1.214 -0.5039 -0.6363 -1.1929
12069WAT    EPW48998   1.025   3.418   1.218  0.3107 -0.8361  0.1276
12070WAT      O48999   6.915   4.134   6.753 -0.3317  0.1041  0.0668
12070WAT     H149000   6.951   4.213   6.750 -0.2803  0.1107  0.7609
12070WAT     H249001   6.940   4.103   6.830 -0.3833 -0.5786 -0.1838
12070WAT    EPW49002   6.924   4.141   6.764 -0.3317  0.0042  0.1323
12071WAT      O49003   5.481   5.146   0.585 -0.6669  0.0974  0.9307
12071WAT     H149004   5.528   5.073   0.585 -0.1227  0.3359 -1.8302
12071WAT     H249005   5.426   5.136   0.652  1.1285 -1.6304  2.2519
12071WAT    EPW49006   5.480   5.134   0.594 -0.3213 -0.1226  0.7180
12072WAT      O49007   3.824   4.046   5.424  0.0610 -0.1642  0.3791
12072WAT     H149008   3.847   4.126   5.450 -0.5162  0.1417 -0.0135
12072WAT     H249009   3.855   4.041   5.342  1.0403 -0.7617  0.7713
12072WAT    EPW49010   3.832   4.057   5.416  0.1204 -0.2072  0.3790
12073WAT      O49011   6.562   1.575   7.105  0.2115  0.2845 -0.3197
12073WAT     H149012   6.644   1.579   7.135 -0.4207  0.8003  1.5104
12073WAT     H249013   6.520   1.635   7.154 -1.3843 -0.4335 -0.7493
12073WAT    EPW49014   6.568   1.585   7.117 -0.1176  0.2546 -0.1128
12074WAT      O49015   3.683   4.617   0.646 -0.7264 -0.1830 -0.0827
12074WAT     H149016   3.647   4.620   0.566 -2.4562 -1.0939  0.6185
12074WAT     H249017   3.677   4.700   0.673 -0.8474 -0.0184 -0.5894
12074WAT    EPW49018   3.677   4.630   0.638 -0.9998 -0.2933 -0.0540
12075WAT      O49019   0.408   1.815   3.030  0.5359  0.3065  0.3323
12075WAT     H149020   0.408   1.797   2.945 -0.2054  0.3091  0.3311
12075WAT     H249021   0.324   1.810   3.053  0.7839 -0.2415  1.1798
12075WAT    EPW49022   0.396   1.812   3.021  0.4630  0.2260  0.4573
12076WAT      O49023   1.649   4.757   1.554 -0.2162 -0.0634 -0.6242
12076WAT     H149024   1.716   4.701   1.558  0.2012  0.2997 -1.8971
12076WAT     H249025   1.652   4.786   1.471 -1.2519  0.8167 -0.3748
12076WAT    EPW49026   1.660   4.753   1.542 -0.3076  0.1203 -0.7754
12077WAT      O49027   5.189   0.949   0.847 -0.6317  0.0848  0.0993
12077WAT     H149028   5.106   0.950   0.875 -0.5827 -2.7246  0.6566
12077WAT     H249029   5.236   0.953   0.920 -0.3263 -0.1094 -0.0825
12077WAT    EPW49030   5.184   0.950   0.862 -0.5793 -0.3589  0.1548
12078WAT      O49031   0.460   4.888   3.249 -0.5163 -0.0094 -0.3016
12078WAT     H149032   0.506   4.844   3.308  0.2128  0.2522 -0.6667
12078WAT     H249033   0.444   4.964   3.288 -0.8869 -0.2025 -0.0691
12078WAT    EPW49034   0.464   4.892   3.264 -0.4634  0.0007 -0.3212
12079WAT      O49035   2.677   1.172   6.886 -0.6372  0.2307 -0.0095
12079WAT     H149036   2.645   1.111   6.939 -0.9518 -0.6050 -1.1278
12079WAT     H249037   2.653   1.145   6.807 -0.6710  1.7489 -0.5409
12079WAT    EPW49038   2.669   1.159   6.882 -0.6887  0.3315 -0.2532
12080WAT      O49039   4.108   2.879   1.138 -0.2984  0.6045 -0.4684
12080WAT     H149040   4.117   2.850   1.056  0.5955  0.0372 -0.1680
12080WAT     H249041   4.044   2.830   1.170 -0.9271  1.0900 -0.9295
12080WAT    EPW49042   4.100   2.868   1.131 -0.2593  0.5924 -0.4921
12081WAT      O49043   1.061   5.457   4.355  0.2579  0.3444  1.1461
12081WAT     H149044   1.061   5.545   4.356 -0.8370  0.3631  0.8206
12081WAT     H249045   1.005   5.436   4.419  2.8537 -0.2177  3.3813
12081WAT    EPW49046   1.052   5.467   4.364  0.4796  0.2641  1.4282
12082WAT      O49047   0.787   7.003   4.635  0.5766 -0.1394  0.1393
12082WAT     H149048   0.740   7.065   4.596  3.0357  0.6920 -1.7059
12082WAT     H249049   0.818   7.043   4.706 -2.2406 -1.0520  2.0803
12082WAT    EPW49050   0.785   7.018   4.640  0.5237 -0.1514  0.1534
12083WAT      O49051   4.749   3.385   1.049 -0.2522  0.8433 -0.6945
12083WAT     H149052   4.716   3.457   1.013 -1.3847  2.0937  2.5688
12083WAT     H249053   4.835   3.391   1.033 -0.6130  1.4811 -2.6976
12083WAT    EPW49054   4.757   3.396   1.041 -0.4728  1.1222 -0.5084
12084WAT      O49055   4.010   3.790   5.527 -0.4865  0.4466  0.2593
12084WAT     H149056   4.031   3.718   5.481 -0.1072  0.7459 -0.0413
12084WAT     H249057   3.976   3.844   5.468 -0.9079  0.4641  0.5135
12084WAT    EPW49058   4.008   3.787   5.511 -0.4927  0.4934  0.2525
12085WAT      O49059   0.847   6.026   6.160  0.0683  0.0630  0.1911
12085WAT     H149060   0.893   5.974   6.107 -1.2275 -0.9984  0.0622
12085WAT     H249061   0.876   6.106   6.140  0.7500 -0.4550 -0.9803
12085WAT    EPW49062   0.858   6.030   6.149 -0.0224 -0.1703 -0.0010
12086WAT      O49063   5.211   5.586   1.701  0.0677  0.1419 -0.9082
12086WAT     H149064   5.212   5.548   1.779  0.2614  0.9961 -0.4881
12086WAT     H249065   5.269   5.539   1.655 -1.8575 -1.9433 -1.3404
12086WAT    EPW49066   5.220   5.573   1.705 -0.1881 -0.0400 -0.9100
12087WAT      O49067   4.517   1.854   2.166 -0.8524 -0.0768 -0.3976
12087WAT     H149068   4.554   1.899   2.101 -0.1646  0.7637  0.5533
12087WAT     H249069   4.435   1.885   2.167 -0.2949  1.5192  0.4927
12087WAT    EPW49070   4.510   1.865   2.157 -0.6684  0.2831 -0.1256
12088WAT      O49071   4.215   6.166   3.730 -0.2590  0.4259  0.2067
12088WAT     H149072   4.237   6.203   3.805  2.1088 -1.2090  0.4496
12088WAT     H249073   4.157   6.105   3.752  0.4374 -0.0557  0.7527
12088WAT    EPW49074   4.210   6.162   3.744  0.1937  0.1133  0.3232
12089WAT      O49075   4.147   1.909   5.703 -0.1834  0.2433 -0.2236
12089WAT     H149076   4.077   1.945   5.740  0.4238 -0.3901  1.6723
12089WAT     H249077   4.210   1.921   5.762  1.2160  0.3734 -1.6550
12089WAT    EPW49078   4.146   1.916   5.717  0.1130  0.1690 -0.1550
12090WAT      O49079   5.391   0.039   2.775  0.0007  0.6154  0.1686
12090WAT     H149080   5.408  -0.019   2.712 -0.3638  2.3862 -1.6895
12090WAT     H249081   5.458   0.030   2.830 -0.2566 -1.7943  0.1936
12090WAT    EPW49082   5.404   0.029   2.773 -0.0911  0.5210 -0.1022
12091WAT      O49083   3.491   2.129   0.893 -0.2609  0.3132 -0.2971
12091WAT     H149084   3.449   2.205   0.895 -0.8210  0.0088 -0.3862
12091WAT     H249085   3.537   2.129   0.967  1.3194  1.6179 -1.2094
12091WAT    EPW49086   3.492   2.140   0.904 -0.1102  0.4610 -0.4450
12092WAT      O49087   0.693   2.798   0.201  0.0337 -0.2005  0.0181
12092WAT     H149088   0.627   2.838   0.242 -1.0974  0.4315 -2.2899
12092WAT     H249089   0.757   2.858   0.203 -0.5255  0.4279 -0.4633
12092WAT    EPW49090   0.693   2.813   0.207 -0.2160 -0.0143 -0.3939
12093WAT      O49091   4.982   1.348   4.223  0.0028  0.2837 -0.0892
12093WAT     H149092   4.917   1.337   4.165 -1.0589  0.9446  0.9448
12093WAT     H249093   4.950   1.404   4.281  1.5193  0.6441  0.4557
12093WAT    EPW49094   4.968   1.354   4.223  0.0700  0.4346  0.1440
12094WAT      O49095   5.310   6.296   3.336 -0.1130 -0.1792  0.1305
12094WAT     H149096   5.290   6.351   3.271 -0.6138 -0.5851 -0.0686
12094WAT     H249097   5.397   6.303   3.342 -0.1152  0.2526 -0.2305
12094WAT    EPW49098   5.320   6.305   3.327 -0.1873 -0.1754  0.0478
12095WAT      O49099   7.233   6.655   5.126  0.1586 -0.3295 -0.0814
12095WAT     H149100   7.149   6.644   5.144  0.2956 -1.7916 -0.2394
12095WAT     H249101   7.273   6.638   5.202  0.2815  1.5579  0.3338
12095WAT    EPW49102   7.227   6.651   5.140  0.1970 -0.2667 -0.0434
12096WAT      O49103   2.718   5.550   6.373 -0.0091 -0.0254 -0.3078
12096WAT     H149104   2.682   5.583   6.301 -1.7876 -0.9453  0.1053
12096WAT     H249105   2.718   5.464   6.359 -0.9342 -0.2713  0.9981
12096WAT    EPW49106   2.712   5.542   6.360 -0.4085 -0.1976 -0.0539
12097WAT      O49107   6.250   5.848   5.597 -0.2037 -0.1818  0.6052
12097WAT     H149108   6.270   5.765   5.614  0.7553  0.3938  2.6667
12097WAT     H249109   6.323   5.891   5.619 -1.5691  1.4378  2.3712
12097WAT    EPW49110   6.264   5.842   5.603 -0.2638  0.1425  1.1706
12098WAT      O49111   0.789   5.847   3.695  0.3356  0.0932  0.7986
12098WAT     H149112   0.839   5.914   3.720  1.9378 -0.3823 -0.8240
12098WAT     H249113   0.776   5.802   3.769  1.7614  0.6291  1.4217
12098WAT    EPW49114   0.795   5.850   3.710  0.7829  0.1021  0.6509
12099WAT      O49115   3.153   1.836   4.811  0.1859  0.0633 -0.3604
12099WAT     H149116   3.169   1.897   4.751  1.0947  0.9540  0.7527
12099WAT     H249117   3.081   1.865   4.851 -0.7384 -0.8032 -1.3199
12099WAT    EPW49118   3.145   1.849   4.808  0.1836  0.0668 -0.3377
12100WAT      O49119   6.118   1.443   4.239  0.1807  0.6974  0.0533
12100WAT     H149120   6.091   1.384   4.297 -0.2024  0.5661 -0.2491
12100WAT     H249121   6.093   1.408   4.162  3.0577 -0.4751 -0.4765
12100WAT    EPW49122   6.110   1.429   4.236  0.5491  0.5048 -0.0696
12101WAT      O49123   3.666   2.071   5.239 -0.1095 -0.2341 -0.0484
12101WAT     H149124   3.709   2.117   5.299 -0.7064 -1.8932  1.7493
12101WAT     H249125   3.584   2.101   5.244  0.0755  0.4444 -0.9107
12101WAT    EPW49126   3.660   2.082   5.248 -0.1704 -0.3789  0.0898
12102WAT      O49127   4.642   4.650   4.169  0.6278 -0.2245  0.3732
12102WAT     H149128   4.624   4.692   4.095 -0.1685  0.7522  1.0873
12102WAT     H249129   4.716   4.608   4.151  0.0174 -0.6969 -1.2343
12102WAT    EPW49130   4.650   4.650   4.155  0.4200 -0.1500  0.2412
12103WAT      O49131   5.890   0.662   3.886  0.1632  0.6583  0.0452
12103WAT     H149132   5.830   0.695   3.832 -1.2484 -0.0240  1.1267
12103WAT     H249133   5.875   0.576   3.882  0.6958  0.5288  0.7448
12103WAT    EPW49134   5.879   0.654   3.877  0.0334  0.5384  0.3083
12104WAT      O49135   2.310   3.291   0.975  0.1166  0.8743  0.2611
12104WAT     H149136   2.261   3.223   0.950 -1.3200  1.8223  0.4121
12104WAT     H249137   2.368   3.300   0.909  2.3228 -2.2663  1.5330
12104WAT    EPW49138   2.312   3.282   0.961  0.2303  0.5504  0.4713
12105WAT      O49139   5.860   0.369   6.070 -0.0227  0.0721 -0.3636
12105WAT     H149140   5.879   0.326   6.143 -0.8494  2.5713  1.4623
12105WAT     H249141   5.934   0.412   6.052  0.4282 -1.1298 -1.5002
12105WAT    EPW49142   5.873   0.369   6.078 -0.0782  0.2637 -0.2618
12106WAT      O49143   6.879   6.399   2.521  0.4043 -0.7124  0.4375
12106WAT     H149144   6.805   6.364   2.552  0.3558 -1.1677 -0.1624
12106WAT     H249145   6.928   6.329   2.502  0.7819 -0.4264  0.3514
12106WAT    EPW49146   6.875   6.383   2.523  0.4529 -0.7374  0.3361
12107WAT      O49147   0.585   4.605   3.879  0.5718  0.1865  0.8221
12107WAT     H149148   0.641   4.666   3.851  0.1652  0.1826 -0.0226
12107WAT     H249149   0.552   4.572   3.806 -1.4297  1.0029  1.3012
12107WAT    EPW49150   0.589   4.609   3.864  0.2161  0.3065  0.7681
12108WAT      O49151   3.399   5.653   5.283 -0.2207  0.3585 -0.5391
12108WAT     H149152   3.443   5.611   5.346 -2.5754 -0.9098  0.4135
12108WAT     H249153   3.457   5.663   5.220  1.7814  0.0877  1.1489
12108WAT    EPW49154   3.414   5.648   5.283 -0.2728  0.1311 -0.1491
12109WAT      O49155   0.310   0.812   3.498  0.4168  0.2416 -0.2608
12109WAT     H149156   0.258   0.879   3.514 -1.4735 -1.3165  0.4597
12109WAT     H249157   0.313   0.809   3.410 -2.8540 -1.0895 -0.4560
12109WAT    EPW49158   0.303   0.821   3.487 -0.3456 -0.1852 -0.1832
12110WAT      O49159   3.770   6.992   6.282 -0.6869  0.2065  0.5556
12110WAT     H149160   3.696   7.027   6.313 -0.7642  0.9852 -0.4427
12110WAT     H249161   3.822   6.988   6.352 -1.7692 -0.6646  1.3455
12110WAT    EPW49162   3.766   6.997   6.297 -0.8582  0.1928  0.5248
12111WAT      O49163   6.084   6.098   2.401  0.5255 -0.3244 -0.0400
12111WAT     H149164   6.065   6.014   2.390  0.6801 -0.6551  1.8933
12111WAT     H249165   6.025   6.125   2.459  1.4238  0.5091  0.5142
12111WAT    EPW49166   6.072   6.090   2.408  0.6810 -0.2501  0.3274
12112WAT      O49167   6.069   2.002   7.101 -0.6567 -0.1210  0.0119
12112WAT     H149168   6.132   1.942   7.103 -1.0423 -0.5846 -0.9691
12112WAT     H249169   6.020   1.978   7.033 -1.0024  1.1290 -0.2084
12112WAT    EPW49170   6.071   1.990   7.091 -0.7648 -0.0048 -0.1656
12113WAT      O49171   4.421   1.149   5.838 -0.1886 -0.3177 -0.4281
12113WAT     H149172   4.419   1.140   5.751  0.6398  0.3707 -0.5297
12113WAT     H249173   4.448   1.071   5.866  0.9013 -0.1254 -0.8860
12113WAT    EPW49174   4.424   1.136   5.829  0.0948 -0.1876 -0.5108
12114WAT      O49175   6.041   3.416   6.031 -0.5062  0.0319 -0.3718
12114WAT     H149176   6.044   3.502   6.039 -0.0643  0.2087 -2.1424
12114WAT     H249177   5.965   3.394   6.069  0.9923  0.7172  3.4242
12114WAT    EPW49178   6.030   3.425   6.038 -0.2196  0.1592 -0.0726
12115WAT      O49179   5.303   6.020   4.982 -0.2481 -0.4834 -0.8749
12115WAT     H149180   5.336   6.007   5.062  0.9830 -0.5625 -1.3695
12115WAT     H249181   5.277   6.103   4.984  0.5003 -0.2449 -0.6154
12115WAT    EPW49182   5.304   6.031   4.994  0.0443 -0.4599 -0.9096
12116WAT      O49183   7.047   0.654   3.042  0.0604 -0.1989 -0.5866
12116WAT     H149184   6.974   0.639   3.088 -0.8032  1.3753 -1.3234
12116WAT     H249185   7.021   0.643   2.959  0.5727  0.6185 -0.8670
12116WAT    EPW49186   7.032   0.650   3.036  0.0085  0.1544 -0.7368
12117WAT      O49187   3.643   6.614   5.114  0.4232 -0.4917 -0.3492
12117WAT     H149188   3.666   6.630   5.197 -0.1730 -0.2223 -0.2289
12117WAT     H249189   3.651   6.528   5.107 -2.6823 -1.0434  1.0071
12117WAT    EPW49190   3.647   6.604   5.126 -0.1236 -0.5334 -0.1311
12118WAT      O49191   4.617   2.158   4.719  0.3722 -0.6861  0.2021
12118WAT     H149192   4.668   2.214   4.675  0.0799  0.9336  1.7996
12118WAT     H249193   4.552   2.141   4.663  0.7073  0.2129 -0.4901
12118WAT    EPW49194   4.615   2.164   4.704  0.3785 -0.3141  0.3359
12119WAT      O49195   5.865   5.464   0.688  0.5620  0.7994  0.7459
12119WAT     H149196   5.805   5.524   0.664  2.7209  2.5902 -0.5884
12119WAT     H249197   5.908   5.503   0.753  2.4050  1.0514 -0.5463
12119WAT    EPW49198   5.862   5.479   0.694  1.1531  1.1012  0.3579
12120WAT      O49199   1.496   5.551   5.849 -0.6087 -0.4024  0.0601
12120WAT     H149200   1.523   5.619   5.895  0.9791 -1.2140  0.3785
12120WAT     H249201   1.410   5.565   5.840  0.0104  3.0065 -2.2057
12120WAT    EPW49202   1.487   5.563   5.854 -0.2827 -0.0187 -0.2276
12121WAT      O49203   2.274   4.088   5.861  0.4514  0.0065  0.1901
12121WAT     H149204   2.197   4.114   5.892  0.7170 -1.0821  1.8963
12121WAT     H249205   2.331   4.146   5.894  0.7565 -1.2569  2.0058
12121WAT    EPW49206   2.271   4.100   5.870  0.5357 -0.3409  0.7104
12122WAT      O49207   5.132   2.053   5.925 -0.2734 -0.5005  0.0984
12122WAT     H149208   5.201   2.005   5.901 -0.2499 -0.4071 -0.0231
12122WAT     H249209   5.098   2.079   5.849 -0.4784 -0.5970  0.1569
12122WAT    EPW49210   5.138   2.050   5.910 -0.3002 -0.5009  0.0891
12123WAT      O49211   6.372   3.917   4.268  0.5422  0.0739  0.6155
12123WAT     H149212   6.330   3.939   4.195 -0.2986 -0.3625  0.9489
12123WAT     H249213   6.450   3.954   4.259  0.3164  0.3458 -0.3300
12123WAT    EPW49214   6.377   3.926   4.256  0.3846  0.0496  0.5251
12124WAT      O49215   4.044   5.926   4.069 -0.0163 -0.7214  0.0945
12124WAT     H149216   4.024   5.865   4.129 -0.4273  1.4612  2.3543
12124WAT     H249217   3.977   5.981   4.072  0.2927 -0.1540 -1.9495
12124WAT    EPW49218   4.031   5.925   4.078 -0.0314 -0.3152  0.1264
12125WAT      O49219   4.663   3.048   1.800  0.0454 -0.5236  0.5034
12125WAT     H149220   4.719   3.049   1.732 -0.4758  0.2989  0.0606
12125WAT     H249221   4.657   3.132   1.822 -0.3091 -0.7110  1.1433
12125WAT    EPW49222   4.671   3.061   1.793 -0.0839 -0.4298  0.5325
12126WAT      O49223   6.714   3.619   2.141  0.2941  0.4264 -0.0175
12126WAT     H149224   6.695   3.551   2.091 -0.8465  0.4199  0.4095
12126WAT     H249225   6.731   3.683   2.084  0.4387  0.0429 -0.4050
12126WAT    EPW49226   6.714   3.619   2.126  0.1470  0.3688 -0.0116
12127WAT      O49227   1.896   2.789   5.669  0.3449 -0.5537  0.5414
12127WAT     H149228   1.927   2.816   5.592  0.1415  0.0309  0.6604
12127WAT     H249229   1.904   2.702   5.664  2.1739 -0.4355  0.6449
12127WAT    EPW49230   1.902   2.780   5.657  0.5851 -0.4499  0.5743
12128WAT      O49231   2.517   5.969   4.947 -0.3613  0.0953 -0.5425
12128WAT     H149232   2.504   5.919   5.018 -1.4795 -0.0224 -0.8075
12128WAT     H249233   2.521   5.910   4.882 -0.0475  0.2468 -0.6598
12128WAT    EPW49234   2.516   5.953   4.948 -0.4801  0.1003 -0.5990
12129WAT      O49235   2.495   0.716   1.752  0.2962  0.0728 -0.2486
12129WAT     H149236   2.502   0.629   1.746 -0.2423  0.0618 -0.8175
12129WAT     H249237   2.512   0.733   1.836 -0.9845 -0.7293  0.2008
12129WAT    EPW49238   2.498   0.706   1.763  0.0275 -0.0473 -0.2662
12130WAT      O49239   3.883   6.570   0.508  0.0745  0.1451 -0.0625
12130WAT     H149240   3.809   6.605   0.477  0.3150 -0.2342 -1.0972
12130WAT     H249241   3.890   6.495   0.465  0.2357 -0.5945  1.2062
12130WAT    EPW49242   3.873   6.564   0.497  0.1338 -0.0202 -0.0279
12131WAT      O49243   3.025   4.761   0.846 -0.4793  0.0109 -0.0204
12131WAT     H149244   3.068   4.836   0.847 -1.0799  0.3884 -1.2235
12131WAT     H249245   3.003   4.750   0.762 -0.8731 -1.2300  0.2184
12131WAT    EPW49246   3.028   4.770   0.834 -0.6262 -0.1167 -0.1629
12132WAT      O49247   0.741   1.735   5.848 -0.3754 -0.0035  0.0525
12132WAT     H149248   0.792   1.806   5.842 -0.6446  0.1886  0.0254
12132WAT     H249249   0.792   1.671   5.821 -0.1987  0.2148 -0.1376
12132WAT    EPW49250   0.756   1.736   5.843 -0.3890  0.0571  0.0204
12133WAT      O49251   7.217   3.671   6.248 -0.0794 -0.5313 -0.0823
12133WAT     H149252   7.205   3.700   6.330  0.6867 -0.0988 -0.1138
12133WAT     H249253   7.155   3.611   6.238 -1.7769  1.1262 -0.0254
12133WAT    EPW49254   7.206   3.667   6.259 -0.2170 -0.2226 -0.0785
12134WAT      O49255   3.750   1.565   5.730  0.0461  0.4693 -0.2312
12134WAT     H149256   3.773   1.531   5.652  0.1480  0.0290 -0.0124
12134WAT     H249257   3.824   1.566   5.775  0.2912  2.1114 -0.6295
12134WAT    EPW49258   3.764   1.560   5.725  0.0974  0.6468 -0.2577
12135WAT      O49259   0.128   1.334   1.268  0.1103 -0.6383  0.2168
12135WAT     H149260   0.106   1.252   1.290 -0.2341 -0.2814  1.2385
12135WAT     H249261   0.156   1.325   1.186 -0.9448 -1.6185 -0.0770
12135WAT    EPW49262   0.129   1.320   1.259 -0.0964 -0.7304  0.3243
12136WAT      O49263   5.996   2.509   0.664 -0.6516  0.7135  0.3892
12136WAT     H149264   6.001   2.432   0.622 -2.4477  0.9841 -0.4283
12136WAT     H249265   5.924   2.500   0.713 -0.0353  1.3567  1.4383
12136WAT    EPW49266   5.986   2.496   0.665 -0.8259  0.8485  0.4234
12137WAT      O49267   6.013   4.726   5.411  0.2236  0.1963 -0.1283
12137WAT     H149268   6.067   4.771   5.360 -0.2014  2.4402  1.2835
12137WAT     H249269   5.951   4.699   5.356  1.4279 -0.2511 -1.3150
12137WAT    EPW49270   6.011   4.729   5.395  0.3387  0.4617 -0.0951
12138WAT      O49271   2.205   6.004   2.082 -0.5224  0.0535 -0.1199
12138WAT     H149272   2.200   6.014   2.169 -0.8197 -0.1633 -0.1094
12138WAT     H249273   2.178   6.081   2.051  2.2319  1.1805 -0.0170
12138WAT    EPW49274   2.200   6.017   2.090 -0.1595  0.1880 -0.1032
12139WAT      O49275   2.411   4.935   2.507 -0.3078 -0.3417  0.1388
12139WAT     H149276   2.375   5.014   2.503 -1.9172 -1.0499 -0.4708
12139WAT     H249277   2.353   4.884   2.465  1.3643 -1.5954 -0.7897
12139WAT    EPW49278   2.397   4.939   2.500 -0.2986 -0.6315 -0.0884
12140WAT      O49279   2.051   4.922   1.796 -0.3916 -0.0929 -0.3321
12140WAT     H149280   2.056   4.995   1.749  0.5584 -1.0274 -1.7488
12140WAT     H249281   1.966   4.901   1.791 -0.6407  0.7757 -0.0653
12140WAT    EPW49282   2.039   4.930   1.788 -0.2881 -0.1027 -0.5019
12141WAT      O49283   5.545   3.170   1.728  0.1656  0.2063  0.2158
12141WAT     H149284   5.533   3.182   1.643  1.9061 -1.1097 -0.2828
12141WAT     H249285   5.475   3.123   1.752  0.5832 -1.1047 -0.9592
12141WAT    EPW49286   5.533   3.165   1.719  0.4844 -0.1818 -0.0314
12142WAT      O49287   4.768   2.008   5.577  0.1206  0.5989  0.2117
12142WAT     H149288   4.727   2.072   5.535  1.3938  0.0926 -1.9912
12142WAT     H249289   4.711   1.943   5.577  0.0218  0.6753 -0.6151
12142WAT    EPW49290   4.754   2.008   5.570  0.2941  0.5354 -0.2359
12143WAT      O49291   1.362   6.479   4.645  0.0160 -0.0141  0.5366
12143WAT     H149292   1.331   6.400   4.663 -0.6075  0.2147  0.4851
12143WAT     H249293   1.346   6.489   4.560 -2.2314  1.1624  1.0377
12143WAT    EPW49294   1.355   6.469   4.635 -0.4081  0.1935  0.6030
12144WAT      O49295   2.324   2.451   3.524  0.6502  0.4842 -0.0977
12144WAT     H149296   2.280   2.397   3.472  0.7157 -0.2221  0.5596
12144WAT     H249297   2.264   2.508   3.551  0.0165 -0.7023  1.1044
12144WAT    EPW49298   2.309   2.452   3.520  0.5663  0.2046  0.1770
12145WAT      O49299   1.113   1.509   6.009  0.2894  0.0477 -0.2335
12145WAT     H149300   1.130   1.425   5.990 -1.7958 -0.1572 -1.5190
12145WAT     H249301   1.104   1.509   6.096 -2.7730 -1.8259 -0.3827
12145WAT    EPW49302   1.114   1.497   6.019 -0.4710 -0.2594 -0.4455
12146WAT      O49303   3.694   3.741   3.023  0.3212 -0.6006  0.8744
12146WAT     H149304   3.667   3.689   2.959 -0.7401 -0.4857  1.2149
12146WAT     H249305   3.621   3.759   3.067  0.5341  1.6942  0.3967
12146WAT    EPW49306   3.679   3.736   3.020  0.1958 -0.2446  0.8541
12147WAT      O49307   0.735   2.649   5.782  0.5498  0.8229  0.1599
12147WAT     H149308   0.783   2.705   5.735  1.9580 -2.0666 -2.1499
12147WAT     H249309   0.792   2.616   5.840  0.4495 -0.0511 -0.2222
12147WAT    EPW49310   0.751   2.652   5.784  0.7430  0.2670 -0.2377
12148WAT      O49311   1.512   1.731   1.021  0.1289 -0.6844  0.4824
12148WAT     H149312   1.457   1.772   0.968  1.1804 -0.9040 -0.8197
12148WAT     H249313   1.498   1.646   1.005 -0.8917 -0.8552  1.9916
12148WAT    EPW49314   1.502   1.725   1.011  0.1334 -0.7420  0.5130
12149WAT      O49315   3.208   5.460   1.052  0.2078 -0.3985  0.1770
12149WAT     H149316   3.182   5.390   1.097  2.2805 -1.4634 -0.1796
12149WAT     H249317   3.273   5.493   1.100 -1.1383  1.7154  0.6633
12149WAT    EPW49318   3.214   5.455   1.065  0.3151 -0.2435  0.1962
12150WAT      O49319   3.407   6.439   2.985  0.4204  0.0024  0.2705
12150WAT     H149320   3.397   6.525   2.998  1.7247  0.2616 -0.3188
12150WAT     H249321   3.349   6.403   3.040 -0.7742  1.2633 -0.1084
12150WAT    EPW49322   3.397   6.446   2.995  0.4366  0.2269  0.1275
12151WAT      O49323   0.069   5.584   3.124 -0.0036  0.4634  0.4635
12151WAT     H149324  -0.017   5.599   3.131 -0.5078 -1.4019 -0.7040
12151WAT     H249325   0.086   5.606   3.041  0.5130  0.3059  0.5285
12151WAT    EPW49326   0.059   5.589   3.113 -0.0018  0.1646  0.3006
12152WAT      O49327   0.747   6.691   6.940 -0.3125 -0.3316  0.0140
12152WAT     H149328   0.807   6.739   6.898  0.0829  3.1685  3.8702
12152WAT     H249329   0.795   6.632   6.983 -0.2553 -0.8708 -0.7588
12152WAT    EPW49330   0.763   6.690   6.940 -0.2456  0.1058  0.4695
12153WAT      O49331   5.188   5.132   4.603  0.1894 -0.0331 -0.0140
12153WAT     H149332   5.156   5.176   4.672 -0.0642 -0.9111  0.4519
12153WAT     H249333   5.265   5.170   4.589  0.3659 -0.0029  0.9310
12153WAT    EPW49334   5.194   5.144   4.611  0.1780 -0.1584  0.1944
12154WAT      O49335   5.546   2.234   1.571 -0.4853  0.2048  0.0838
12154WAT     H149336   5.607   2.219   1.632 -1.4073 -1.0732  0.7276
12154WAT     H249337   5.593   2.253   1.500  0.6243  1.3554  1.0590
12154WAT    EPW49338   5.562   2.235   1.570 -0.4576  0.1860  0.3230
12155WAT      O49339   4.699   5.169   0.769 -0.5637 -0.3704 -0.1224
12155WAT     H149340   4.782   5.147   0.783 -0.6250 -1.0903 -0.8450
12155WAT     H249341   4.662   5.161   0.848  0.1941  0.7065  0.3763
12155WAT    EPW49342   4.706   5.165   0.783 -0.4608 -0.3176 -0.1555
12156WAT      O49343   3.812   1.090   6.092  0.3319  0.3261 -0.1669
12156WAT     H149344   3.758   1.059   6.153  0.1400 -0.2291 -0.6144
12156WAT     H249345   3.878   1.033   6.091 -0.4398 -0.6140 -1.6112
12156WAT    EPW49346   3.814   1.077   6.101  0.1896  0.1052 -0.4464
12157WAT      O49347   6.213   1.728   1.671  0.4325 -0.0709  0.2875
12157WAT     H149348   6.150   1.675   1.644 -2.1157  2.1403  1.3657
12157WAT     H249349   6.258   1.679   1.727  1.0350 -2.3224 -1.9658
12157WAT    EPW49350   6.210   1.713   1.675  0.1451 -0.0768  0.1139
12158WAT      O49351   3.755   3.189   1.084  0.1541  0.0259 -0.0978
12158WAT     H149352   3.837   3.182   1.112 -0.1133  0.9930  1.0050
12158WAT     H249353   3.715   3.120   1.118  0.8194 -1.3573 -1.9664
12158WAT    EPW49354   3.761   3.178   1.093  0.2129 -0.0356 -0.2110
12159WAT      O49355   6.313   5.658   0.351  0.9181 -0.4865  0.1218
12159WAT     H149356   6.334   5.619   0.426  0.3454  0.0410  0.5659
12159WAT     H249357   6.238   5.621   0.328  0.7559 -0.1816  0.1545
12159WAT    EPW49358   6.305   5.647   0.359  0.8095 -0.3635  0.1922
12160WAT      O49359   5.551   0.739   0.407 -0.1350  0.3521  0.0563
12160WAT     H149360   5.531   0.726   0.491  1.6506 -0.1814  0.4405
12160WAT     H249361   5.511   0.814   0.388 -2.8444 -0.8490  0.5475
12160WAT    EPW49362   5.542   0.748   0.417 -0.2715  0.0959  0.1856
12161WAT      O49363   7.277   4.616   6.287  0.0584 -0.3509 -0.0935
12161WAT     H149364   7.311   4.667   6.350  0.3511 -0.5336 -0.1036
12161WAT     H249365   7.279   4.667   6.216  1.1764 -0.6728 -0.3053
12161WAT    EPW49366   7.282   4.631   6.286  0.2667 -0.4254 -0.1263
12162WAT      O49367   3.436   3.198   3.892 -0.0803  0.0211 -0.5373
12162WAT     H149368   3.521   3.203   3.911  0.6026  0.0885 -3.1996
12162WAT     H249369   3.397   3.206   3.969  2.3029  0.9162  0.6698
12162WAT    EPW49370   3.443   3.200   3.906  0.3726  0.1633 -0.7522
12163WAT      O49371   6.181   5.712   0.822 -0.2085 -0.8315  0.7690
12163WAT     H149372   6.238   5.719   0.887 -1.3703 -1.9484  1.9655
12163WAT     H249373   6.226   5.668   0.760  0.8435  0.0916  0.8574
12163WAT    EPW49374   6.196   5.706   0.822 -0.2248 -0.8602  0.9588
12164WAT      O49375   3.772   1.211   5.220  0.2003 -0.4317  0.0950
12164WAT     H149376   3.772   1.124   5.224 -2.5863 -0.6514 -1.6759
12164WAT     H249377   3.783   1.227   5.135  0.1502  0.9291  0.3231
12164WAT    EPW49378   3.774   1.200   5.208 -0.2187 -0.2631 -0.1329
12165WAT      O49379   7.132   1.156   0.989  0.3455  0.1955  0.3216
12165WAT     H149380   7.114   1.198   1.064 -0.0643 -1.5584  1.2659
12165WAT     H249381   7.053   1.133   0.960  0.4523  1.3861 -1.0216
12165WAT    EPW49382   7.117   1.159   0.996  0.3007  0.1123  0.2626
12166WAT      O49383   4.820   3.555   4.817  0.5512  0.5454  0.2143
12166WAT     H149384   4.739   3.588   4.822 -0.1310 -0.6961 -1.7610
12166WAT     H249385   4.816   3.483   4.866 -0.6137 -1.3615 -2.4764
12166WAT    EPW49386   4.808   3.549   4.825  0.2784  0.0803 -0.4750
12167WAT      O49387   0.858   2.597   1.896  0.6222 -0.3467  0.2121
12167WAT     H149388   0.823   2.632   1.968 -2.3469 -0.0449 -1.2419
12167WAT     H249389   0.807   2.528   1.879 -1.9588  2.1009 -3.9728
12167WAT    EPW49390   0.845   2.592   1.904 -0.1977  0.0595 -0.6209
12168WAT      O49391   1.633   4.228   6.302 -0.0936  0.0164  0.3713
12168WAT     H149392   1.572   4.171   6.276  1.8320 -1.5964 -0.8162
12168WAT     H249393   1.667   4.257   6.227  0.3447  1.2411  1.0056
12168WAT    EPW49394   1.629   4.224   6.287  0.2556 -0.0409  0.2896
12169WAT      O49395   0.289   2.975   5.973  0.5260 -0.0957 -0.0861
12169WAT     H149396   0.211   3.011   5.960 -0.1658 -1.7511 -0.8219
12169WAT     H249397   0.342   3.043   5.986 -1.0234  1.0560  0.3884
12169WAT    EPW49398   0.286   2.990   5.973  0.1949 -0.1701 -0.1247
12170WAT      O49399   4.121   2.134   5.454 -0.7547 -0.2008 -0.3538
12170WAT     H149400   4.184   2.146   5.395 -1.1812 -0.8263 -0.9397
12170WAT     H249401   4.160   2.156   5.529  1.8781 -5.2220  0.1618
12170WAT    EPW49402   4.136   2.139   5.456 -0.4288 -1.0349 -0.3642
12171WAT      O49403   2.297   3.452   2.830  0.5414  0.0222 -0.4984
12171WAT     H149404   2.259   3.408   2.765 -1.7370 -1.7361  1.8078
12171WAT     H249405   2.329   3.388   2.881  1.6592  1.3093  0.4916
12171WAT    EPW49406   2.296   3.436   2.828  0.3700 -0.0474 -0.0115
12172WAT      O49407   5.678   2.955   7.262 -0.4696  0.7400  0.1853
12172WAT     H149408   5.730   3.008   7.216  1.7625 -0.3031  1.3602
12172WAT     H249409   5.733   2.911   7.314 -2.5056 -0.7063  1.2857
12172WAT    EPW49410   5.694   2.957   7.263 -0.4407  0.3722  0.5214
12173WAT      O49411   3.242   0.005   6.651  0.0812 -0.4754  0.2262
12173WAT     H149412   3.216   0.037   6.574  0.0716  0.5911  0.6480
12173WAT     H249413   3.178  -0.051   6.673 -0.1971 -0.3601 -0.2793
12173WAT    EPW49414   3.228   0.002   6.643  0.0387 -0.3008  0.2138
12174WAT      O49415   6.731   4.847   1.520  0.0124 -0.4423 -0.1133
12174WAT     H149416   6.811   4.882   1.522 -0.0208 -0.3757  0.6528
12174WAT     H249417   6.742   4.773   1.475  0.6124 -0.6708  0.3904
12174WAT    EPW49418   6.745   4.841   1.514  0.0961 -0.4662  0.0743
12175WAT      O49419   3.439   6.565   6.459 -0.4620  0.0077 -0.6345
12175WAT     H149420   3.390   6.635   6.439  0.6021  0.8792 -0.3148
12175WAT     H249421   3.392   6.524   6.520 -1.6619 -0.2404 -1.6698
12175WAT    EPW49422   3.425   6.570   6.465 -0.4821  0.0998 -0.7402
12176WAT      O49423   5.177   1.067   0.604 -0.2156 -0.8771  0.7790
12176WAT     H149424   5.095   1.095   0.593 -0.3798 -1.4294  0.6014
12176WAT     H249425   5.178   1.038   0.686 -0.2784 -1.1412  0.6869
12176WAT    EPW49426   5.165   1.067   0.615 -0.2491 -0.9977  0.7391
12177WAT      O49427   3.887   5.771   7.181  0.1752  0.1118  0.1185
12177WAT     H149428   3.946   5.712   7.155 -0.0524 -0.0527 -0.0331
12177WAT     H249429   3.811   5.735   7.159  0.0491  0.6357 -0.3400
12177WAT    EPW49430   3.885   5.757   7.174  0.1229  0.1649  0.0284
12178WAT      O49431   0.603   7.100   2.169  0.1808 -0.3549  0.4254
12178WAT     H149432   0.521   7.124   2.182  0.2675 -0.1006  0.5168
12178WAT     H249433   0.644   7.176   2.150  0.2496 -0.5729 -0.3436
12178WAT    EPW49434   0.597   7.115   2.168  0.2038 -0.3496  0.3253
12179WAT      O49435   5.715   1.037   7.374 -0.0865 -0.1834 -0.3511
12179WAT     H149436   5.760   0.979   7.328 -0.2450  1.0675 -2.1928
12179WAT     H249437   5.689   0.992   7.444  0.9005 -1.9312 -1.0479
12179WAT    EPW49438   5.717   1.021   7.378  0.0359 -0.2568 -0.7261
12180WAT      O49439   6.754   6.423   4.602 -0.9667  0.4827  0.0800
12180WAT     H149440   6.805   6.413   4.532 -0.0702  1.2547  0.6035
12180WAT     H249441   6.673   6.413   4.569 -0.5238 -0.0218 -0.8948
12180WAT    EPW49442   6.749   6.420   4.586 -0.7688  0.5222  0.0134
12181WAT      O49443   5.490   2.959   5.077  0.4583 -0.1735  0.1142
12181WAT     H149444   5.485   2.886   5.030  0.2156 -0.4099  0.4970
12181WAT     H249445   5.576   2.967   5.094  0.4962 -0.3234 -0.0051
12181WAT    EPW49446   5.502   2.949   5.073  0.4280 -0.2305  0.1531
12182WAT      O49447   7.221   4.052   5.100 -0.1797  0.2009  0.2639
12182WAT     H149448   7.236   4.124   5.053  0.4303  0.0794  0.2684
12182WAT     H249449   7.177   4.081   5.169 -1.0605  0.3923 -0.3556
12182WAT    EPW49450   7.217   4.067   5.103 -0.2197  0.2112  0.1730
12183WAT      O49451   6.800   2.263   1.638 -0.2800 -0.2974 -0.3185
12183WAT     H149452   6.746   2.328   1.616 -0.7299 -0.2497  0.8920
12183WAT     H249453   6.754   2.191   1.620 -0.0759 -0.2874 -0.9172
12183WAT    EPW49454   6.785   2.262   1.632 -0.3163 -0.2889 -0.2281
12184WAT      O49455   1.737   0.250   3.599 -0.0045  0.0546  0.5019
12184WAT     H149456   1.735   0.273   3.514 -0.1507  1.2976  0.8198
12184WAT     H249457   1.821   0.254   3.619  0.3728 -2.5869 -0.1404
12184WAT    EPW49458   1.749   0.254   3.589  0.0296 -0.1520  0.4540
12185WAT      O49459   0.698   2.829   5.459  0.1876 -0.6006  0.0629
12185WAT     H149460   0.713   2.856   5.378 -1.6897  0.1632 -0.0949
12185WAT     H249461   0.776   2.831   5.497  0.6995  1.6972 -0.9630
12185WAT    EPW49462   0.712   2.833   5.453 -0.0141 -0.1484 -0.1120
12186WAT      O49463   1.269   3.592   7.219  0.6668 -0.1727 -0.4468
12186WAT     H149464   1.246   3.587   7.135 -0.2389  0.3860 -0.2452
12186WAT     H249465   1.230   3.665   7.247  0.4934 -0.6431  0.5911
12186WAT    EPW49466   1.260   3.602   7.211  0.5074 -0.1597 -0.2637
12187WAT      O49467   1.398   1.464   0.241  0.5247 -0.2380  0.1601
12187WAT     H149468   1.464   1.517   0.217  0.0551  0.3623  0.1731
12187WAT     H249469   1.420   1.388   0.206  2.3970 -0.6711  2.0737
12187WAT    EPW49470   1.411   1.461   0.232  0.7319 -0.2133  0.4447
12188WAT      O49471   0.952   3.122   1.547 -0.1475 -0.2128  0.0712
12188WAT     H149472   0.991   3.052   1.513 -0.5251 -0.0453 -0.7296
12188WAT     H249473   0.911   3.158   1.479 -0.5236  0.4045  0.6099
12188WAT    EPW49474   0.952   3.117   1.532 -0.2588 -0.0969  0.0325
12189WAT      O49475   2.845   3.423   6.780 -0.2275  0.2687 -0.5091
12189WAT     H149476   2.903   3.383   6.729  0.8026  0.0380  0.7735
12189WAT     H249477   2.868   3.397   6.860 -0.8391  1.7985  0.1904
12189WAT    EPW49478   2.857   3.413   6.784 -0.1657  0.4606 -0.2163
12190WAT      O49479   2.088   2.390   5.999  0.5845  0.3801 -0.0570
12190WAT     H149480   2.035   2.350   5.942 -0.5443  0.2976  1.0212
12190WAT     H249481   2.082   2.474   5.977 -2.4507  0.8078  1.8861
12190WAT    EPW49482   2.080   2.397   5.987 -0.0306  0.4311  0.3893
12191WAT      O49483   0.433   3.873   4.411 -0.3139 -0.0433  0.0009
12191WAT     H149484   0.436   3.958   4.432  1.2826  0.5402 -2.2059
12191WAT     H249485   0.425   3.833   4.488  4.2951  1.8680  1.8437
12191WAT    EPW49486   0.432   3.880   4.426  0.6028  0.3253 -0.0529
12192WAT      O49487   0.275   3.274   2.491  0.0156 -0.2302 -0.2448
12192WAT     H149488   0.347   3.322   2.484 -0.2668  0.2051 -0.1765
12192WAT     H249489   0.216   3.319   2.445  0.0067 -1.0304 -1.0429
12192WAT    EPW49490   0.277   3.288   2.483 -0.0275 -0.2841 -0.3526
12193WAT      O49491   6.490   1.293   5.969  0.1012 -0.1902  0.9309
12193WAT     H149492   6.554   1.350   5.985  0.0782 -0.0063  0.3582
12193WAT     H249493   6.472   1.304   5.885 -3.0907  2.2341  1.7270
12193WAT    EPW49494   6.497   1.303   5.959 -0.3737  0.1951  0.9639
12194WAT      O49495   6.889   1.324   2.747 -0.1138  0.2409 -0.3534
12194WAT     H149496   6.870   1.407   2.768  0.5259  0.6435 -1.2851
12194WAT     H249497   6.956   1.304   2.799 -0.1937  0.3476 -0.2075
12194WAT    EPW49498   6.896   1.333   2.758 -0.0311  0.3162 -0.4695
12195WAT      O49499   2.530   6.519   0.858  0.4124 -0.2418  0.1751
12195WAT     H149500   2.497   6.465   0.918 -2.8780  1.0094 -0.2705
12195WAT     H249501   2.526   6.597   0.897 -1.0883  0.4890 -1.3054
12195WAT    EPW49502   2.524   6.523   0.873 -0.2953  0.0509 -0.1094
12196WAT      O49503   5.576   0.251   4.810  0.2191  0.3259  0.3362
12196WAT     H149504   5.558   0.328   4.846 -1.3738  0.7651 -1.2651
12196WAT     H249505   5.499   0.210   4.810  1.1775 -1.6626  1.9354
12196WAT    EPW49506   5.562   0.256   4.815  0.1254  0.0970  0.3359
12197WAT      O49507   4.155   3.029   4.209 -0.6377 -0.4027 -0.0542
12197WAT     H149508   4.187   2.982   4.276 -0.8707 -2.0557 -1.0563
12197WAT     H249509   4.226   3.043   4.160 -0.3781  1.2078  0.7047
12197WAT    EPW49510   4.170   3.024   4.212 -0.6338 -0.4090 -0.0901
12198WAT      O49511   0.137   5.700   6.540 -0.7809 -0.3752 -0.0321
12198WAT     H149512   0.202   5.652   6.572  0.9955  1.4628 -0.5899
12198WAT     H249513   0.167   5.724   6.461 -2.5315 -0.1419 -0.6751
12198WAT    EPW49514   0.151   5.697   6.533 -0.7771 -0.0693 -0.2095
12199WAT      O49515   3.419   1.475   3.134  0.0541  0.0169 -0.1935
12199WAT     H149516   3.349   1.461   3.185  0.6082 -1.5775  0.1992
12199WAT     H249517   3.481   1.500   3.190 -0.0739  1.0261 -0.4876
12199WAT    EPW49518   3.418   1.477   3.150  0.1170 -0.0695 -0.1790
12200WAT      O49519   1.143   5.998   3.542 -0.3003 -0.3038 -0.1591
12200WAT     H149520   1.097   6.023   3.612  0.2203 -0.3046  0.1903
12200WAT     H249521   1.121   6.056   3.481 -1.7358 -1.0498 -0.3882
12200WAT    EPW49522   1.133   6.010   3.544 -0.4355 -0.4141 -0.1413
12201WAT      O49523   4.312   4.006   4.359 -0.6669  0.2961 -0.3599
12201WAT     H149524   4.298   3.920   4.359  0.0308  0.1393 -1.8167
12201WAT     H249525   4.285   4.031   4.280 -0.8374  1.4116  0.0399
12201WAT    EPW49526   4.306   3.997   4.347 -0.5891  0.4377 -0.5160
12202WAT      O49527   6.507   5.984   5.595  0.4202 -0.2416 -0.0362
12202WAT     H149528   6.588   6.007   5.573 -0.1139  3.0881  0.8636
12202WAT     H249529   6.508   5.985   5.683 -0.7463  0.7097 -0.0033
12202WAT    EPW49530   6.519   5.988   5.605  0.1690  0.3908  0.1016
12203WAT      O49531   2.510   4.094   1.216  0.5382 -0.0654  0.7047
12203WAT     H149532   2.507   4.048   1.291 -1.5620 -2.0901 -0.4788
12203WAT     H249533   2.457   4.050   1.163  1.3697  1.7087 -1.7952
12203WAT    EPW49534   2.502   4.081   1.220  0.3508 -0.1024  0.1606
12204WAT      O49535   7.087   3.067   2.457  0.0176  0.3443 -0.2354
12204WAT     H149536   7.042   3.116   2.513 -2.6883 -1.4735 -0.6149
12204WAT     H249537   7.110   2.997   2.504 -0.4616 -0.2361 -0.8403
12204WAT    EPW49538   7.083   3.064   2.472 -0.4529 -0.0100 -0.3808
12205WAT      O49539   3.083   2.881   6.004 -0.3421  0.0796  0.1870
12205WAT     H149540   3.143   2.819   6.020 -1.2956 -0.3294  2.5038
12205WAT     H249541   3.121   2.953   6.034 -0.5215  0.0296  0.5384
12205WAT    EPW49542   3.098   2.882   6.011 -0.5095  0.0118  0.5812
12206WAT      O49543   3.417   6.674   4.170  0.5103  0.3974  0.1310
12206WAT     H149544   3.469   6.669   4.100  0.0925 -1.3001 -0.0956
12206WAT     H249545   3.337   6.669   4.137  0.2722  0.6480  0.6515
12206WAT    EPW49546   3.413   6.672   4.155  0.4134  0.1837  0.1744
12207WAT      O49547   5.428   3.133   3.121 -0.4912  0.1606  0.8855
12207WAT     H149548   5.468   3.068   3.078 -1.4143  1.1359 -1.6010
12207WAT     H249549   5.461   3.205   3.085 -1.5628  1.0307  1.5949
12207WAT    EPW49550   5.439   3.134   3.109 -0.7858  0.4332  0.6230
12208WAT      O49551   6.830   1.944   3.190 -0.2082 -0.6002  0.6178
12208WAT     H149552   6.841   1.944   3.276 -1.5335 -0.0251  0.8127
12208WAT     H249553   6.744   1.931   3.181  0.1035 -1.9663 -0.6530
12208WAT    EPW49554   6.819   1.942   3.201 -0.3579 -0.7171  0.4589
12209WAT      O49555   2.927   4.252   6.347 -0.2088 -0.4128 -0.2256
12209WAT     H149556   2.956   4.331   6.325 -0.9759 -0.1514 -0.3347
12209WAT     H249557   2.964   4.237   6.424  0.3043 -0.1427 -0.4193
12209WAT    EPW49558   2.937   4.261   6.355 -0.2463 -0.3343 -0.2703
12210WAT      O49559   5.293   3.579   0.128 -0.0778  0.0040 -1.1169
12210WAT     H149560   5.285   3.511   0.074  0.6342 -1.0961  0.1055
12210WAT     H249561   5.213   3.614   0.129 -0.4545 -0.8046 -1.7862
12210WAT    EPW49562   5.280   3.574   0.121 -0.0283 -0.2780 -1.0352
12211WAT      O49563   1.581   7.109   4.802  0.3307 -0.1015 -0.0914
12211WAT     H149564   1.531   7.061   4.855 -0.6433  1.5333  0.5431
12211WAT     H249565   1.555   7.085   4.722 -1.3297  0.4978  0.2193
12211WAT    EPW49566   1.570   7.099   4.798 -0.0585  0.2285  0.0482
12212WAT      O49567   3.234   3.189   7.003  0.4438 -0.5904 -0.4769
12212WAT     H149568   3.154   3.224   7.007  0.9087  0.4084  2.5468
12212WAT     H249569   3.224   3.112   7.042  1.0528 -0.1413  0.6076
12212WAT    EPW49570   3.220   3.183   7.010  0.6025 -0.3765  0.1300
12213WAT      O49571   7.007   0.085   4.267  0.3059  0.6497 -0.3447
12213WAT     H149572   6.963   0.159   4.262  0.8976  1.0753  0.4980
12213WAT     H249573   7.089   0.111   4.282  0.4582 -0.1774  0.3141
12213WAT    EPW49574   7.013   0.099   4.268  0.4158  0.5904 -0.1229
12214WAT      O49575   0.639   0.124   1.141 -0.0500 -0.3220 -0.1381
12214WAT     H149576   0.661   0.203   1.109  0.2560 -0.6946 -0.8760
12214WAT     H249577   0.677   0.069   1.085  0.7088 -1.0052  1.0141
12214WAT    EPW49578   0.648   0.128   1.128  0.1073 -0.4779 -0.0769
12215WAT      O49579   1.007   2.307   1.846  0.0090 -0.2394 -0.0994
12215WAT     H149580   1.057   2.358   1.896  0.1078 -1.0907  0.6980
12215WAT     H249581   0.930   2.349   1.845 -0.6857 -1.2391  2.6417
12215WAT    EPW49582   1.003   2.321   1.853 -0.0791 -0.5128  0.4233
12216WAT      O49583   5.218   4.559   1.774  0.1486  0.5938  0.2032
12216WAT     H149584   5.141   4.601   1.766 -1.4581 -2.3680 -1.9446
12216WAT     H249585   5.222   4.539   1.858 -1.6325  0.6136  0.3438
12216WAT    EPW49586   5.207   4.562   1.785 -0.3519  0.1592 -0.0933
12217WAT      O49587   4.596   3.598   5.072  0.4198 -0.4532 -0.0942
12217WAT     H149588   4.570   3.658   5.015  0.9812  0.2889  0.4109
12217WAT     H249589   4.671   3.630   5.103 -0.6347  0.0020  2.2190
12217WAT    EPW49590   4.603   3.611   5.068  0.3470 -0.2763  0.3221
12218WAT      O49591   1.667   6.812   3.662  0.3722  0.1108  0.0727
12218WAT     H149592   1.654   6.737   3.705  1.5695 -0.2384 -0.1598
12218WAT     H249593   1.668   6.872   3.725  1.3713 -0.3126  0.4798
12218WAT    EPW49594   1.665   6.810   3.678  0.6966 -0.0034  0.0985
12219WAT      O49595   4.054   2.044   3.062  0.3698 -0.2453  0.6596
12219WAT     H149596   4.088   1.992   3.001  1.1709  2.0707 -1.0309
12219WAT     H249597   4.118   2.050   3.122  1.0405  0.2660 -0.0899
12219WAT    EPW49598   4.069   2.038   3.062  0.5872  0.1723  0.2991
12220WAT      O49599   1.615   5.463   2.413  0.1373  0.3307  0.5095
12220WAT     H149600   1.615   5.395   2.467  0.3445 -0.5317 -0.5293
12220WAT     H249601   1.596   5.428   2.335  2.0925  1.1118 -0.4144
12220WAT    EPW49602   1.612   5.448   2.409  0.4567  0.3187  0.2196
12221WAT      O49603   5.362   6.525   1.033 -0.2956 -0.2354 -0.1469
12221WAT     H149604   5.391   6.442   1.035 -1.5394 -0.8342 -2.6473
12221WAT     H249605   5.423   6.566   0.987 -0.1992  0.0300  0.2113
12221WAT    EPW49606   5.375   6.519   1.027 -0.4651 -0.2846 -0.4634
12222WAT      O49607   1.476   0.776   5.585 -0.6779  0.4087 -0.3098
12222WAT     H149608   1.562   0.780   5.597 -0.6576 -0.4893 -0.0650
12222WAT     H249609   1.467   0.711   5.527 -1.1483  0.9815 -0.8932
12222WAT    EPW49610   1.488   0.767   5.578 -0.7444  0.3607 -0.3598
12223WAT      O49611   1.006   6.953   1.485  0.0455 -0.0269 -0.8122
12223WAT     H149612   1.052   6.958   1.559  0.8666  1.0205 -1.3742
12223WAT     H249613   1.067   6.948   1.423 -0.6297 -0.2673 -1.4761
12223WAT    EPW49614   1.022   6.953   1.487  0.0671  0.0923 -0.9933
12224WAT      O49615   0.050   5.537   5.476 -0.2960  0.3682  0.2046
12224WAT     H149616   0.086   5.538   5.397 -1.0511  1.9096 -0.1525
12224WAT     H249617   0.002   5.464   5.475 -0.6624  0.6099 -0.9368
12224WAT    EPW49618   0.048   5.526   5.464 -0.4616  0.6316 -0.0168
12225WAT      O49619   4.470   7.132   5.367 -0.3294  0.5928 -0.1295
12225WAT     H149620   4.396   7.096   5.395  0.6821 -1.2692  0.3126
12225WAT     H249621   4.460   7.136   5.280 -0.6662 -0.3206 -0.1411
12225WAT    EPW49622   4.457   7.128   5.358 -0.2298  0.1828 -0.0659
12226WAT      O49623   5.888   1.372   6.345  0.5589  0.3191  0.3032
12226WAT     H149624   5.912   1.454   6.326  0.2037  0.1484 -0.9864
12226WAT     H249625   5.802   1.378   6.357  0.6810  0.3012  1.2540
12226WAT    EPW49626   5.879   1.385   6.344  0.5245  0.2913  0.2532
12227WAT      O49627   0.339   2.883   7.182 -0.0207  0.4504 -0.2380
12227WAT     H149628   0.380   2.939   7.130 -2.1787  0.7114 -1.7903
12227WAT     H249629   0.344   2.920   7.261 -0.7194  2.4863 -1.0812
12227WAT    EPW49630   0.346   2.896   7.186 -0.4427  0.7897 -0.5919
12228WAT      O49631   0.446   5.679   3.035 -0.6050 -0.7211  0.0012
12228WAT     H149632   0.510   5.624   3.058 -0.2524 -0.1019  0.5406
12228WAT     H249633   0.401   5.691   3.109  0.4983  1.2316  0.4180
12228WAT    EPW49634   0.449   5.673   3.049 -0.3900 -0.3412  0.1424
12229WAT      O49635   1.237   6.154   4.153  0.2663  0.2140  0.2596
12229WAT     H149636   1.180   6.108   4.105  2.2325  0.2302 -2.3054
12229WAT     H249637   1.199   6.233   4.159 -1.2670 -0.5393  1.1881
12229WAT    EPW49638   1.223   6.159   4.146  0.3302  0.1051  0.0179
12230WAT      O49639   6.835   4.531   4.672 -0.1314 -0.0805  0.3626
12230WAT     H149640   6.770   4.502   4.722 -0.8623  3.2768  1.6077
12230WAT     H249641   6.801   4.599   4.630  1.6415 -0.3321 -1.6361
12230WAT    EPW49642   6.821   4.537   4.673  0.0225  0.3783  0.2513
12231WAT      O49643   5.949   2.674   3.359  0.1839  0.2900  0.0522
12231WAT     H149644   5.903   2.631   3.419 -0.5653 -0.1584 -0.8181
12231WAT     H249645   5.927   2.758   3.372 -0.2110  0.1643  0.1841
12231WAT    EPW49646   5.939   2.680   3.370  0.0149  0.2052 -0.0569
12232WAT      O49647   5.082   3.319   5.766  0.1896 -0.0276  0.7448
12232WAT     H149648   5.060   3.389   5.719  0.9267  0.5621  1.2351
12232WAT     H249649   5.074   3.347   5.848  2.7464  0.2703  0.9627
12232WAT    EPW49650   5.078   3.334   5.771  0.6762  0.1035  0.8494
12233WAT      O49651   3.702   6.496   3.540  0.2967 -0.0540 -0.1749
12233WAT     H149652   3.687   6.467   3.460 -0.6427 -0.2509  0.0610
12233WAT     H249653   3.624   6.491   3.579  0.1684  2.3142  0.0249
12233WAT    EPW49654   3.688   6.491   3.534  0.1390  0.2668 -0.1105
12234WAT      O49655   6.457   1.141   3.726  0.3631  0.1930  0.0922
12234WAT     H149656   6.476   1.129   3.641 -1.5586 -3.5356 -0.0469
12234WAT     H249657   6.370   1.153   3.725  0.4073  0.7124  1.4910
12234WAT    EPW49658   6.447   1.141   3.713  0.0857 -0.2810  0.2783
12235WAT      O49659   4.974   6.456   4.301 -0.6020  0.2189  0.1572
12235WAT     H149660   5.060   6.466   4.314 -0.7297  2.7094 -0.3452
12235WAT     H249661   4.970   6.407   4.229  0.3790 -0.1702  0.3465
12235WAT    EPW49662   4.986   6.451   4.292 -0.4759  0.5293  0.1109
12236WAT      O49663   1.318   4.208   0.255  0.2681  0.4660  0.3106
12236WAT     H149664   1.337   4.280   0.210 -0.3175  0.9497  0.8117
12236WAT     H249665   1.396   4.173   0.272  0.6361  1.5270  0.9259
12236WAT    EPW49666   1.332   4.213   0.251  0.2360  0.6942  0.4755
12237WAT      O49667   5.932   2.478   6.589  0.1070 -0.3954  0.2316
12237WAT     H149668   5.887   2.412   6.623 -1.0111 -1.2634 -2.6037
12237WAT     H249669   5.890   2.496   6.515  0.3688  3.5319  0.7868
12237WAT    EPW49670   5.919   2.471   6.583 -0.0195  0.0565 -0.1052
12238WAT      O49671   4.691   4.822   2.020 -0.1048  0.2809  0.1257
12238WAT     H149672   4.655   4.890   2.061 -2.1455 -2.1576  2.8466
12238WAT     H249673   4.749   4.791   2.078  1.2451 -0.0002 -1.2978
12238WAT    EPW49674   4.695   4.827   2.035 -0.2068 -0.1209  0.3174
12239WAT      O49675   2.597   0.897   4.759 -0.0884 -0.0378  0.3061
12239WAT     H149676   2.637   0.891   4.681 -0.2975  1.2898  0.0716
12239WAT     H249677   2.514   0.912   4.737 -0.9026 -3.1573  0.7732
12239WAT    EPW49678   2.591   0.899   4.744 -0.2396 -0.3025  0.3404
12240WAT      O49679   6.565   1.241   6.266  0.2621 -0.2775  0.4247
12240WAT     H149680   6.500   1.245   6.208  0.6296  0.1148  0.0444
12240WAT     H249681   6.627   1.292   6.233  0.3382  0.2513  1.3348
12240WAT    EPW49682   6.564   1.249   6.253  0.3277 -0.1415  0.5029
12241WAT      O49683   1.730   4.789   2.227 -0.0650  0.2374 -0.1472
12241WAT     H149684   1.784   4.743   2.176  0.4338  0.9647 -0.2954
12241WAT     H249685   1.652   4.754   2.212  0.4675 -1.4241  0.7284
12241WAT    EPW49686   1.727   4.777   2.217  0.0874  0.0994 -0.0398
12242WAT      O49687   1.434   2.496   3.307 -0.4164 -0.9755 -0.4406
12242WAT     H149688   1.436   2.460   3.386  0.7724 -1.2623 -0.5854
12242WAT     H249689   1.452   2.429   3.253  0.7274 -0.4014 -0.7939
12242WAT    EPW49690   1.437   2.481   3.310 -0.0718 -0.9331 -0.5142
12243WAT      O49691   2.470   4.262   2.970 -0.4152  0.2043 -0.0139
12243WAT     H149692   2.414   4.327   2.989 -1.2465 -0.1024 -1.3457
12243WAT     H249693   2.536   4.276   3.026 -1.3537  1.1689  0.9062
12243WAT    EPW49694   2.472   4.274   2.981 -0.6767  0.3015 -0.0747
12244WAT      O49695   0.831   1.286   3.152 -0.0636  0.4887 -0.1356
12244WAT     H149696   0.768   1.252   3.202  0.6628  1.1617  1.2863
12244WAT     H249697   0.791   1.301   3.076 -1.4424  0.3232  0.5332
12244WAT    EPW49698   0.816   1.283   3.148 -0.1599  0.5637  0.1732
12245WAT      O49699   6.938   5.560   6.572  0.3448 -0.0662  0.1103
12245WAT     H149700   7.005   5.604   6.605 -0.1517  0.2607  0.7146
12245WAT     H249701   6.913   5.508   6.638 -2.4813  2.6362  1.4259
12245WAT    EPW49702   6.944   5.558   6.586 -0.1460  0.3813  0.3939
12246WAT      O49703   1.643   2.894   2.413 -0.4779  0.0460  0.6578
12246WAT     H149704   1.708   2.934   2.456 -1.5957  4.3535 -1.1571
12246WAT     H249705   1.571   2.928   2.448 -1.6979 -1.8597  0.1512
12246WAT    EPW49706   1.642   2.905   2.425 -0.8232  0.4008  0.3148
12247WAT      O49707   6.221   6.941   7.373 -0.7528 -0.1102 -0.6631
12247WAT     H149708   6.189   6.861   7.385 -0.9917 -0.3487 -2.6140
12247WAT     H249709   6.165   6.978   7.318  0.7023  0.4996 -1.8141
12247WAT    EPW49710   6.208   6.935   7.366 -0.5731 -0.0554 -1.1213
12248WAT      O49711   5.502   3.784   0.119 -0.1241 -0.3169 -0.4978
12248WAT     H149712   5.513   3.800   0.034 -2.6285  1.2429 -0.6364
12248WAT     H249713   5.434   3.730   0.122  0.1065 -0.5853  0.5302
12248WAT    EPW49714   5.494   3.778   0.107 -0.4600 -0.1261 -0.3664
12249WAT      O49715   1.398   2.960   2.540 -0.0066  0.4655  0.1856
12249WAT     H149716   1.343   2.893   2.551 -2.0497  1.4763 -2.5596
12249WAT     H249717   1.360   3.026   2.582 -0.0710  0.7910 -0.3689
12249WAT    EPW49718   1.384   2.960   2.548 -0.3180  0.6629 -0.3018
12250WAT      O49719   4.630   2.659   6.120 -0.6653 -0.5972  0.3346
12250WAT     H149720   4.598   2.681   6.198  1.1430  0.1003  0.9337
12250WAT     H249721   4.653   2.736   6.086 -0.6870 -0.9773 -0.5529
12250WAT    EPW49722   4.629   2.674   6.127 -0.4014 -0.5503  0.2920
12251WAT      O49723   6.406   2.865   1.827  0.0260 -0.2718 -0.0061
12251WAT     H149724   6.481   2.870   1.782  1.0296 -0.4344  1.5629
12251WAT     H249725   6.345   2.869   1.765  1.2672  1.6659 -1.2194
12251WAT    EPW49726   6.408   2.866   1.811  0.3576 -0.0096  0.0465
12252WAT      O49727   5.105   2.851   6.815  0.0517  0.7488 -0.0029
12252WAT     H149728   5.097   2.857   6.729  0.6967 -0.4163 -0.1669
12252WAT     H249729   5.184   2.817   6.826  0.6279  2.3580  1.1295
12252WAT    EPW49730   5.115   2.847   6.804  0.2321  0.8144  0.1401
12253WAT      O49731   3.424   0.171   7.062 -0.2193 -0.5159 -0.1277
12253WAT     H149732   3.358   0.122   7.090 -1.1302 -0.1868 -1.5994
12253WAT     H249733   3.411   0.248   7.101 -1.5615 -0.0146 -1.4795
12253WAT    EPW49734   3.413   0.175   7.072 -0.5521 -0.3932 -0.5448
12254WAT      O49735   1.359   2.174   6.121 -0.1903 -0.5059  0.3771
12254WAT     H149736   1.370   2.116   6.185 -0.4249 -0.4500  0.4714
12254WAT     H249737   1.356   2.125   6.049  0.3825 -0.5423  0.3767
12254WAT    EPW49738   1.360   2.158   6.120 -0.1404 -0.5030  0.3910
12255WAT      O49739   0.763   2.180   2.990  0.3937 -0.2480 -0.4107
12255WAT     H149740   0.677   2.177   2.977  0.4762  1.7574 -1.7190
12255WAT     H249741   0.774   2.136   3.064 -1.7395 -0.6099 -0.2613
12255WAT    EPW49742   0.752   2.173   2.999  0.0908 -0.0052 -0.5819
12256WAT      O49743   2.787   3.804   6.062  0.5395 -0.3162  0.0125
12256WAT     H149744   2.793   3.799   5.975 -1.6176  0.8921 -0.2796
12256WAT     H249745   2.856   3.852   6.084  1.5991 -1.3553 -0.9073
12256WAT    EPW49746   2.798   3.811   6.052  0.3774 -0.2912 -0.1665
12257WAT      O49747   2.725   3.826   2.699  0.2274  0.1614 -0.1447
12257WAT     H149748   2.704   3.747   2.730  0.6502  0.9924  2.4541
12257WAT     H249749   2.682   3.830   2.623 -1.1068 -1.9155  0.4163
12257WAT    EPW49750   2.716   3.815   2.692  0.0927 -0.0226  0.3221
12258WAT      O49751   6.240   5.179   3.739  0.1827 -0.0120  0.1663
12258WAT     H149752   6.157   5.172   3.711 -0.2842  2.0101  0.8454
12258WAT     H249753   6.285   5.186   3.664 -0.6183  1.6033 -0.2234
12258WAT    EPW49754   6.234   5.179   3.724 -0.0046  0.5253  0.2091
12259WAT      O49755   6.542   6.875   6.179  0.0291  0.2256 -0.0391
12259WAT     H149756   6.504   6.949   6.205 -0.1317 -0.8536  3.3694
12259WAT     H249757   6.615   6.871   6.226  0.3422 -1.4549 -0.5754
12259WAT    EPW49758   6.547   6.885   6.190  0.0516 -0.1820  0.3852
12260WAT      O49759   4.997   7.190   3.122  0.1402  0.3314 -0.4219
12260WAT     H149760   4.971   7.241   3.056  2.3837  0.4289 -1.3332
12260WAT     H249761   5.003   7.245   3.189  0.6370  0.8753 -0.8971
12260WAT    EPW49762   4.994   7.206   3.122  0.5450  0.4262 -0.6267
12261WAT      O49763   0.836   3.059   6.169  0.5973 -0.0702 -0.0214
12261WAT     H149764   0.862   3.065   6.251 -0.3759  0.3798  0.2696
12261WAT     H249765   0.797   2.980   6.165 -0.3066  0.3515  0.2446
12261WAT    EPW49766   0.834   3.048   6.180  0.3200  0.0586  0.0609
12262WAT      O49767   0.737   1.142   6.469  0.2399  0.0982  0.6180
12262WAT     H149768   0.769   1.158   6.390  1.4557  0.3975  1.1445
12262WAT     H249769   0.782   1.196   6.521 -1.2602  0.6685  1.4008
12262WAT    EPW49770   0.748   1.152   6.465  0.1979  0.2266  0.8114
12263WAT      O49771   4.297   6.862   4.241  0.5820 -0.2766  0.4214
12263WAT     H149772   4.268   6.781   4.258 -0.2519 -0.2751 -0.8893
12263WAT     H249773   4.224   6.907   4.225  1.1533  0.3314 -0.5139
12263WAT    EPW49774   4.282   6.856   4.241  0.5432 -0.1865  0.0896
12264WAT      O49775   4.737   7.200   6.835  0.4899 -0.5409  0.1723
12264WAT     H149776   4.747   7.279   6.800  0.8557  0.1335  1.7548
12264WAT     H249777   4.707   7.216   6.915  1.3195 -1.9646  0.7991
12264WAT    EPW49778   4.734   7.214   6.842  0.6665 -0.6516  0.4987
12265WAT      O49779   2.562   4.960   1.036 -0.0327  0.2065  0.2282
12265WAT     H149780   2.613   4.890   1.030  0.8252  0.9119 -1.3802
12265WAT     H249781   2.534   4.972   0.955  0.2714  2.0080  0.3430
12265WAT    EPW49782   2.566   4.952   1.023  0.1390  0.5768  0.0076
12266WAT      O49783   4.442   4.022   5.706  0.3964 -0.9873 -0.5187
12266WAT     H149784   4.499   4.064   5.657 -1.5063  1.6712 -0.6444
12266WAT     H249785   4.374   4.009   5.653 -0.6195 -0.5412  0.6223
12266WAT    EPW49786   4.440   4.026   5.691 -0.0348 -0.5287 -0.3687
12267WAT      O49787   2.039   5.628   0.969 -0.0999 -0.2009  0.1754
12267WAT     H149788   1.975   5.604   0.915 -0.8552 -0.1138  1.0249
12267WAT     H249789   2.059   5.554   1.011 -1.5311  0.3085  1.8543
12267WAT    EPW49790   2.033   5.613   0.967 -0.4229 -0.1128  0.5489
12268WAT      O49791   1.136   3.848   0.948  0.5318  0.7225 -0.5038
12268WAT     H149792   1.180   3.774   0.935 -1.5883 -0.8333  0.5408
12268WAT     H249793   1.077   3.848   0.883 -0.4665  0.6608  0.3853
12268WAT    EPW49794   1.134   3.837   0.936  0.0712  0.4836 -0.2181
12269WAT      O49795   0.847   1.110   5.053 -1.0919 -0.3369  0.3114
12269WAT     H149796   0.771   1.073   5.074 -2.0985  0.8465 -1.1281
12269WAT     H249797   0.870   1.152   5.127 -0.1011 -3.3143  1.8773
12269WAT    EPW49798   0.839   1.111   5.067 -1.0943 -0.6019  0.3301
12270WAT      O49799   0.561   4.271   3.717 -0.9549  0.0993 -0.1498
12270WAT     H149800   0.519   4.343   3.693  0.3736  1.3705  1.1858
12270WAT     H249801   0.497   4.212   3.727 -2.4120  1.8352  1.3693
12270WAT    EPW49802   0.545   4.273   3.715 -0.9739  0.5435  0.2719
12271WAT      O49803   5.928   0.268   4.325 -0.3704 -0.1265  0.2592
12271WAT     H149804   5.982   0.230   4.269 -1.0500 -0.6809 -0.0449
12271WAT     H249805   5.954   0.351   4.327 -1.1824  0.2464 -1.9721
12271WAT    EPW49806   5.940   0.274   4.317 -0.5907 -0.1533 -0.1153
12272WAT      O49807   4.235   5.159   2.302 -0.2558  0.1521  0.3495
12272WAT     H149808   4.187   5.090   2.328 -0.6493  0.2114 -0.1900
12272WAT     H249809   4.259   5.137   2.221  0.4898  0.2054  0.5510
12272WAT    EPW49810   4.231   5.145   2.294 -0.2038  0.1688  0.2995
12273WAT      O49811   2.074   6.149   3.823 -0.0077  0.3528  0.0554
12273WAT     H149812   2.007   6.191   3.861  0.6531  1.1386  0.3730
12273WAT     H249813   2.052   6.148   3.739 -0.1343  1.1812  0.0663
12273WAT    EPW49814   2.061   6.155   3.816  0.0712  0.5912  0.1039
12274WAT      O49815   4.132   4.816   3.908 -0.3735  0.5477 -0.2924
12274WAT     H149816   4.201   4.828   3.959  0.5820 -2.6687 -0.6138
12274WAT     H249817   4.065   4.817   3.963  0.2613  0.5231  0.4960
12274WAT    EPW49818   4.132   4.818   3.924 -0.1386  0.0690 -0.2234
12275WAT      O49819   1.073   0.354   3.045  0.1610  0.0596 -0.3024
12275WAT     H149820   1.035   0.295   2.993  0.9338 -0.7222 -0.0032
12275WAT     H249821   1.143   0.379   2.999 -0.4781  1.2008 -0.6852
12275WAT    EPW49822   1.078   0.349   3.030  0.1807  0.1127 -0.3147
12276WAT      O49823   2.961   5.150   2.800  0.1889  0.4264 -0.4137
12276WAT     H149824   2.993   5.127   2.722  1.1959 -0.3087  0.1936
12276WAT     H249825   2.915   5.080   2.825  1.0788  0.0793  0.2824
12276WAT    EPW49826   2.959   5.136   2.792  0.4691  0.2666 -0.2212
12277WAT      O49827   2.685   0.125   0.314  0.0788  0.1813  0.2735
12277WAT     H149828   2.710   0.133   0.231  0.2234  0.0765  0.3072
12277WAT     H249829   2.705   0.042   0.334  1.6894  0.7040  0.9630
12277WAT    EPW49830   2.692   0.114   0.305  0.3381  0.2430  0.3803
12278WAT      O49831   4.312   5.842   3.776 -0.1261  0.1958  0.4914
12278WAT     H149832   4.324   5.873   3.857  1.8944  0.5864  0.0782
12278WAT     H249833   4.389   5.853   3.738  0.0711 -3.2561 -0.4134
12278WAT    EPW49834   4.325   5.848   3.783  0.2015 -0.2564  0.2967
12279WAT      O49835   0.332   7.076   6.084  0.1182  0.3191 -0.6131
12279WAT     H149836   0.403   7.034   6.111  0.6897  1.5047 -0.2093
12279WAT     H249837   0.363   7.133   6.025 -0.8551 -0.9376 -2.4364
12279WAT    EPW49838   0.347   7.078   6.079  0.0588  0.3086 -0.8228
12280WAT      O49839   4.308   5.606   4.121  0.5525 -0.2338 -0.0662
12280WAT     H149840   4.330   5.660   4.056 -1.1553 -1.1000 -1.4802
12280WAT     H249841   4.381   5.562   4.138  0.7730 -0.8576 -2.3361
12280WAT    EPW49842   4.322   5.608   4.114  0.3328 -0.4539 -0.6104
12281WAT      O49843   5.073   2.784   1.777 -0.0167  0.2322 -0.1055
12281WAT     H149844   5.155   2.754   1.774 -0.6002 -1.8995  1.8748
12281WAT     H249845   5.028   2.724   1.733 -0.7845  0.0716  0.8680
12281WAT    EPW49846   5.079   2.771   1.770 -0.2163 -0.1064  0.3308
12282WAT      O49847   5.978   3.443   0.922 -0.1741 -0.3780 -0.2797
12282WAT     H149848   5.997   3.521   0.957  0.5293 -1.1175  1.0539
12282WAT     H249849   5.901   3.456   0.884  0.7454  1.4482 -1.6862
12282WAT    EPW49850   5.970   3.456   0.921  0.0657 -0.2175 -0.2905
12283WAT      O49851   2.197   4.254   3.722  0.3206 -0.3189  0.1114
12283WAT     H149852   2.257   4.195   3.700  0.6589 -0.5586  1.5979
12283WAT     H249853   2.212   4.269   3.806  0.1036  1.7384 -0.1586
12283WAT    EPW49854   2.208   4.248   3.731  0.3385 -0.0504  0.2911
12284WAT      O49855   1.451   6.602   2.194 -0.3109 -0.1688 -0.0355
12284WAT     H149856   1.386   6.548   2.172 -0.6255  0.2838 -0.2307
12284WAT     H249857   1.419   6.644   2.263  1.0959 -2.3984  2.1236
12284WAT    EPW49858   1.437   6.600   2.201 -0.1496 -0.4313  0.2546
12285WAT      O49859   6.693   6.630   1.891  0.1540 -0.1302  0.5160
12285WAT     H149860   6.763   6.650   1.843 -0.8661 -0.3696 -1.1575
12285WAT     H249861   6.699   6.684   1.960  0.6134  1.7229 -0.8932
12285WAT    EPW49862   6.704   6.641   1.894  0.0712  0.1082  0.0606
12286WAT      O49863   1.987   4.599   3.055 -0.1712  0.0775  0.2336
12286WAT     H149864   1.950   4.528   3.089 -0.2897 -0.3844 -0.8231
12286WAT     H249865   1.969   4.593   2.970  2.9576 -0.5777 -0.4767
12286WAT    EPW49866   1.979   4.588   3.048  0.2735 -0.0875 -0.0274
12287WAT      O49867   5.395   1.224   0.561 -0.2030  0.1036  0.0076
12287WAT     H149868   5.324   1.174   0.572  0.6925 -1.4949 -1.0064
12287WAT     H249869   5.417   1.210   0.478  0.7440  1.3566  0.0140
12287WAT    EPW49870   5.388   1.214   0.551  0.0692  0.0526 -0.1412
12288WAT      O49871   2.238   4.062   6.220  0.4435 -0.8816  0.2218
12288WAT     H149872   2.212   4.115   6.155  1.1581 -1.3388 -0.4602
12288WAT     H249873   2.170   4.061   6.274 -0.0072 -0.1422 -0.3057
12288WAT    EPW49874   2.224   4.070   6.218  0.4825 -0.8399  0.0431
12289WAT      O49875   4.189   3.711   3.046  0.0490  0.4820  0.1489
12289WAT     H149876   4.190   3.781   3.097 -0.8469  1.2980 -0.9092
12289WAT     H249877   4.237   3.735   2.977  0.8494 -0.4338  0.3653
12289WAT    EPW49878   4.196   3.725   3.044  0.0349  0.4672  0.0245
12290WAT      O49879   0.811   1.148   5.506  0.1065 -0.2261  0.1194
12290WAT     H149880   0.847   1.090   5.561  0.8413 -0.7713 -0.9108
12290WAT     H249881   0.752   1.102   5.462 -0.1384  0.0961  0.1027
12290WAT    EPW49882   0.808   1.133   5.508  0.1788 -0.2591 -0.0353
12291WAT      O49883   5.607   3.857   5.767  0.2674  0.1814  0.0985
12291WAT     H149884   5.615   3.902   5.693 -0.0749  0.7167  0.3834
12291WAT     H249885   5.588   3.918   5.826  3.2560  0.2291  1.2039
12291WAT    EPW49886   5.605   3.873   5.765  0.6583  0.2675  0.3038
12292WAT      O49887   1.552   4.157   2.439 -0.1886  0.3772 -0.0350
12292WAT     H149888   1.571   4.232   2.400  0.7955 -0.0635 -0.4507
12292WAT     H249889   1.631   4.122   2.454 -0.6339 -0.5928  0.1048
12292WAT    EPW49890   1.567   4.163   2.436 -0.1090  0.1688 -0.0758
12293WAT      O49891   1.318   6.672   2.756  0.4265  0.4527  0.7274
12293WAT     H149892   1.334   6.599   2.802 -0.0997 -0.4730 -0.4945
12293WAT     H249893   1.240   6.698   2.784 -0.3902 -0.7168 -0.3251
12293WAT    EPW49894   1.309   6.665   2.767  0.2281  0.1432  0.3914
12294WAT      O49895   0.792   4.867   1.338 -0.0885  0.3424  0.3912
12294WAT     H149896   0.846   4.911   1.286 -1.3262  1.5891  0.0834
12294WAT     H249897   0.841   4.848   1.407  0.2134  3.6329  1.2745
12294WAT    EPW49898   0.807   4.871   1.340 -0.2267  1.0127  0.4762
12295WAT      O49899   3.232   2.777   3.848 -0.3903 -0.0870  0.2659
12295WAT     H149900   3.219   2.713   3.790  1.6533 -0.9315  0.6497
12295WAT     H249901   3.167   2.833   3.832 -1.0872 -1.3047 -1.4211
12295WAT    EPW49902   3.220   2.776   3.837 -0.1914 -0.3917  0.0734
12296WAT      O49903   3.967   4.912   4.421  0.3965 -0.4430  0.1436
12296WAT     H149904   4.006   4.971   4.472  1.7460 -0.7363 -0.5104
12296WAT     H249905   3.882   4.929   4.432  0.6936  0.3609  1.4384
12296WAT    EPW49906   3.960   4.923   4.430  0.6398 -0.3676  0.2383
12297WAT      O49907   4.386   6.054   6.820 -0.1378  0.2887 -0.3224
12297WAT     H149908   4.437   6.125   6.820 -0.3607  0.4556 -0.9203
12297WAT     H249909   4.306   6.087   6.812 -0.1804 -0.0591 -1.4958
12297WAT    EPW49910   4.382   6.069   6.818 -0.1771  0.2620 -0.5841
12298WAT      O49911   1.478   5.131   4.942 -1.0363 -0.4761  0.5684
12298WAT     H149912   1.446   5.084   5.008 -1.1017 -2.3040 -0.6964
12298WAT     H249913   1.500   5.072   4.883 -1.9791  1.1211 -1.5165
12298WAT    EPW49914   1.476   5.116   4.943 -1.1852 -0.5102  0.0735
12299WAT      O49915   6.285   4.111   2.326  0.0223 -0.9238 -0.2978
12299WAT     H149916   6.229   4.046   2.340 -0.5577 -0.3268  0.2357
12299WAT     H249917   6.339   4.079   2.266 -0.7625 -1.5851 -0.6696
12299WAT    EPW49918   6.285   4.097   2.319 -0.1793 -0.9333 -0.2739
12300WAT      O49919   7.265   6.748   5.988 -0.4443  0.1544  0.6677
12300WAT     H149920   7.320   6.791   6.040 -0.1030  0.2804  0.2081
12300WAT     H249921   7.318   6.714   5.926 -0.9231  0.6658 -0.0429
12300WAT    EPW49922   7.281   6.749   5.986 -0.4646  0.2485  0.4948
12301WAT      O49923   5.553   4.324   2.030  0.1806 -0.1347 -0.3021
12301WAT     H149924   5.574   4.240   2.027 -0.3298 -0.3135  0.6468
12301WAT     H249925   5.472   4.326   1.996  0.2618 -0.0023 -0.4879
12301WAT    EPW49926   5.544   4.312   2.024  0.1172 -0.1416 -0.1894
12302WAT      O49927   3.353   4.070   5.947  0.5716 -0.4097  0.3735
12302WAT     H149928   3.286   4.052   5.894  0.5633 -0.8243  0.5256
12302WAT     H249929   3.365   3.996   5.992  0.9310 -0.2379  0.5667
12302WAT    EPW49930   3.345   4.057   5.946  0.6235 -0.4456  0.4245
12303WAT      O49931   4.050   3.750   2.474 -0.2597  0.4701 -0.1929
12303WAT     H149932   4.102   3.799   2.424  0.3065  0.7771  0.6720
12303WAT     H249933   4.065   3.669   2.446 -0.2437  0.6726 -0.7784
12303WAT    EPW49934   4.060   3.746   2.463 -0.1737  0.5454 -0.1516
12304WAT      O49935   6.170   3.745   3.541  0.2261 -0.2842 -0.0137
12304WAT     H149936   6.240   3.782   3.503 -0.5238  0.8665 -0.3306
12304WAT     H249937   6.199   3.724   3.621  0.9224  0.2215 -0.1254
12304WAT    EPW49938   6.185   3.747   3.547  0.2182 -0.0395 -0.0770
12305WAT      O49939   2.995   5.342   2.005  0.1505  0.7438  0.1501
12305WAT     H149940   3.047   5.388   1.951 -0.8081  1.1690 -0.4306
12305WAT     H249941   2.935   5.399   2.030 -0.6430  0.0034 -0.0131
12305WAT    EPW49942   2.994   5.357   2.001 -0.1083  0.6973  0.0402
12306WAT      O49943   5.562   2.552   1.841 -0.0607 -0.4448  0.3110
12306WAT     H149944   5.509   2.483   1.856 -0.1078 -0.0789  2.0653
12306WAT     H249945   5.614   2.524   1.777 -2.5977 -0.6820 -1.8032
12306WAT    EPW49946   5.562   2.537   1.834 -0.4424 -0.4258  0.2578
12307WAT      O49947   2.670   6.483   3.599 -0.3060  0.0445 -0.1848
12307WAT     H149948   2.613   6.427   3.634 -1.2337  0.6643 -0.6456
12307WAT     H249949   2.711   6.435   3.538  0.4834 -0.7126  0.9169
12307WAT    EPW49950   2.668   6.467   3.595 -0.3264  0.0242 -0.0901
12308WAT      O49951   4.818   0.217   6.740 -0.0325 -0.2557 -0.0738
12308WAT     H149952   4.900   0.194   6.720 -0.1330 -1.2627  0.6066
12308WAT     H249953   4.773   0.196   6.668  0.5435  2.0825 -1.2289
12308WAT    EPW49954   4.823   0.211   6.726  0.0377 -0.0591 -0.1439
12309WAT      O49955   1.364   2.136   3.965 -0.0353  0.1361  0.0127
12309WAT     H149956   1.298   2.107   3.916  0.1114  0.8121 -0.6023
12309WAT     H249957   1.324   2.178   4.030 -0.2184  0.4993 -0.3304
12309WAT    EPW49958   1.348   2.138   3.968 -0.0406  0.2896 -0.1288
12310WAT      O49959   0.052   4.634   2.744  0.3059  0.0264  0.3127
12310WAT     H149960   0.020   4.645   2.663 -1.4333  0.1123  0.9655
12310WAT     H249961   0.132   4.669   2.739  0.0229  0.5591 -1.2159
12310WAT    EPW49962   0.059   4.641   2.731  0.0071  0.1178  0.1833
12311WAT      O49963   3.795   1.249   4.297  0.3527  0.3086  0.9060
12311WAT     H149964   3.731   1.191   4.286 -0.2503  1.3327 -1.5970
12311WAT     H249965   3.754   1.325   4.295  1.4287  0.9250  1.4627
12311WAT    EPW49966   3.780   1.251   4.295  0.4226  0.5509  0.6185
12312WAT      O49967   5.159   2.328   0.058 -0.0579  0.2194 -0.1096
12312WAT     H149968   5.103   2.346  -0.006 -1.2800  1.0463  1.1327
12312WAT     H249969   5.113   2.279   0.113  1.7935 -2.8918 -1.0864
12312WAT    EPW49970   5.144   2.324   0.056  0.0350 -0.1180 -0.0704
12313WAT      O49971   3.646   1.414   7.242  0.5163  0.1003 -0.6852
12313WAT     H149972   3.684   1.336   7.230  2.1700  0.7240  0.1179
12313WAT     H249973   3.615   1.410   7.323 -0.5117 -0.1345 -1.0744
12313WAT    EPW49974   3.647   1.402   7.252  0.6087  0.1578 -0.6241
12314WAT      O49975   1.867   7.101   1.974  0.6617  0.2670 -0.5536
12314WAT     H149976   1.921   7.043   1.938  0.8328 -1.3531  2.0483
12314WAT     H249977   1.841   7.150   1.906  2.4369 -1.2658 -2.4751
12314WAT    EPW49978   1.871   7.100   1.958  0.9492 -0.1987 -0.4531
12315WAT      O49979   3.231   6.131   0.384 -0.1339 -0.0191 -0.3688
12315WAT     H149980   3.258   6.186   0.322 -1.9840  0.8097 -0.5128
12315WAT     H249981   3.284   6.147   0.451  0.1468  1.0735 -0.8288
12315WAT    EPW49982   3.243   6.141   0.385 -0.3657  0.2647 -0.4581
12316WAT      O49983   1.505   3.870   1.726  0.1263  0.1851 -0.5652
12316WAT     H149984   1.426   3.834   1.723 -0.3478  1.0257  0.8248
12316WAT     H249985   1.506   3.913   1.802  2.0365 -0.0472 -0.3974
12316WAT    EPW49986   1.494   3.871   1.737  0.3385  0.2749 -0.3351
12317WAT      O49987   1.112   5.055   6.892 -0.7369  0.1267 -0.0520
12317WAT     H149988   1.058   5.084   6.830 -0.9959  2.5433  1.1834
12317WAT     H249989   1.182   5.106   6.884 -0.4181 -0.1055  1.0894
12317WAT    EPW49990   1.114   5.067   6.881 -0.7281  0.4494  0.2991
12318WAT      O49991   2.241   1.775   6.879  0.2927 -0.5424  0.4378
12318WAT     H149992   2.262   1.859   6.892  1.1311 -1.0752  3.1392
12318WAT     H249993   2.240   1.768   6.792  0.7027  2.1284  0.1145
12318WAT    EPW49994   2.244   1.787   6.868  0.4771 -0.2266  0.7891
12319WAT      O49995   5.784   6.336   2.783 -0.1301  0.2676 -0.0847
12319WAT     H149996   5.798   6.398   2.842 -1.4060 -0.0935  0.6462
12319WAT     H249997   5.700   6.347   2.761  0.5571  1.0617 -2.6519
12319WAT    EPW49998   5.774   6.346   2.788 -0.2171  0.3316 -0.3560
12320WAT      O49999   3.234   1.193   3.130  0.0012  0.3832  0.2457
12320WAT     H150000   3.316   1.221   3.140 -0.5282  2.1274  0.1199
12320WAT     H250001   3.197   1.211   3.207  0.1084 -1.9407  0.8964
12320WAT    EPW50002   3.241   1.200   3.143 -0.0612  0.2975  0.3232
12321WAT      O50003   2.406   6.506   5.353 -0.1501 -0.1026 -0.2899
12321WAT     H150004   2.484   6.517   5.389 -0.3431  0.8104 -0.1309
12321WAT     H250005   2.373   6.587   5.349 -0.6083 -0.3246 -1.4298
12321WAT    EPW50006   2.412   6.520   5.358 -0.2463 -0.0005 -0.4348
12322WAT      O50007   0.168   1.737   3.196 -0.4090 -0.2378 -0.3510
12322WAT     H150008   0.104   1.787   3.229 -1.4469 -0.3596 -2.0634
12322WAT     H250009   0.134   1.705   3.122  1.1329 -1.4725 -0.5902
12322WAT    EPW50010   0.154   1.740   3.190 -0.3346 -0.4382 -0.6393
12323WAT      O50011   2.167   1.437   5.220  0.0724  0.0110  0.3305
12323WAT     H150012   2.171   1.461   5.137  1.1952 -0.4905  0.2210
12323WAT     H250013   2.183   1.511   5.264 -1.0140  0.3806  0.1348
12323WAT    EPW50014   2.170   1.451   5.215  0.0778 -0.0084  0.2854
12324WAT      O50015   7.257   4.443   0.866 -0.3842  0.4731 -0.6180
12324WAT     H150016   7.274   4.357   0.869 -0.6456  0.4285 -0.3593
12324WAT     H250017   7.258   4.461   0.781  0.1444  0.3082 -0.6497
12324WAT    EPW50018   7.259   4.433   0.854 -0.3447  0.4422 -0.5844
12325WAT      O50019   3.991   6.348   3.244 -0.2336 -0.2169  0.1801
12325WAT     H150020   3.978   6.434   3.244 -0.3062 -0.2283  0.0748
12325WAT     H250021   3.981   6.326   3.328 -0.6967 -0.1973  0.1325
12325WAT    EPW50022   3.988   6.357   3.256 -0.3127 -0.2157  0.1575
12326WAT      O50023   4.057   2.366   0.862 -0.7696  0.2540  0.2107
12326WAT     H150024   3.987   2.385   0.911 -0.7268  0.6716  0.1186
12326WAT     H250025   4.023   2.344   0.785 -0.7675  1.8076 -0.2683
12326WAT    EPW50026   4.042   2.366   0.858 -0.7630  0.5452  0.1263
12327WAT      O50027   7.246   4.510   3.967 -0.2035  0.3208  0.5238
12327WAT     H150028   7.271   4.441   4.013 -1.1026 -0.5519 -0.2564
12327WAT     H250029   7.166   4.489   3.940 -0.5414  1.7203  0.3636
12327WAT    EPW50030   7.238   4.497   3.970 -0.3863  0.3986  0.3849
12328WAT      O50031   2.522   1.066   6.342 -0.2894 -0.0848  0.1155
12328WAT     H150032   2.542   1.090   6.423 -2.5879  2.6762  0.0595
12328WAT     H250033   2.549   1.134   6.294  0.8138 -1.5614 -1.4568
12328WAT    EPW50034   2.529   1.080   6.347 -0.4660  0.1049 -0.1250
12329WAT      O50035   3.976   3.550   0.697  0.2429  0.3149 -0.1953
12329WAT     H150036   3.906   3.499   0.708  0.7968 -0.3408  0.3659
12329WAT     H250037   4.043   3.497   0.713  0.8565  1.0626 -0.2378
12329WAT    EPW50038   3.975   3.535   0.701  0.4153  0.3285 -0.1186
12330WAT      O50039   7.098   5.929   5.678  0.4477  0.6588  0.0737
12330WAT     H150040   7.039   5.922   5.742 -0.6936  2.9001 -0.6261
12330WAT     H250041   7.174   5.931   5.721 -0.0894 -0.5528  1.1264
12330WAT    EPW50042   7.101   5.928   5.694  0.1998  0.8109  0.1259
12331WAT      O50043   3.614   2.950   1.127  0.0337  0.0870  0.0080
12331WAT     H150044   3.617   2.908   1.203 -0.1823 -0.9568 -0.5512
12331WAT     H250045   3.529   2.967   1.117 -0.2595 -1.8990 -1.1256
12331WAT    EPW50046   3.602   2.947   1.137 -0.0415 -0.3606 -0.2421
12332WAT      O50047   0.887   2.608   0.138  0.4253  0.4144  0.5138
12332WAT     H150048   0.815   2.653   0.157  0.6718  0.4808  1.3278
12332WAT     H250049   0.899   2.557   0.208  0.9581  0.1307  0.2256
12332WAT    EPW50050   0.878   2.607   0.151  0.5404  0.3823  0.5915
12333WAT      O50051   2.802   5.286   3.259 -0.1179  0.9252 -0.0351
12333WAT     H150052   2.770   5.226   3.314 -0.9565  0.9592 -0.4619
12333WAT     H250053   2.735   5.301   3.205  0.5803  1.1419 -0.8553
12333WAT    EPW50054   2.787   5.279   3.259 -0.1386  0.9622 -0.2193
12334WAT      O50055   3.400   1.806   3.928 -0.2186 -0.2210 -0.1860
12334WAT     H150056   3.374   1.880   3.891 -0.4189 -0.7295 -1.0864
12334WAT     H250057   3.331   1.753   3.920  0.6197 -1.2024 -1.5332
12334WAT    EPW50058   3.386   1.809   3.921 -0.1243 -0.4411 -0.5181
12335WAT      O50059   1.584   0.986   3.828  0.1201 -0.4523 -0.1172
12335WAT     H150060   1.619   0.919   3.783  0.6109  0.3723 -1.0061
12335WAT     H250061   1.639   0.996   3.895  0.4763 -0.4572 -0.4029
12335WAT    EPW50062   1.597   0.977   3.831  0.2452 -0.3312 -0.2907
12336WAT      O50063   5.989   3.707   5.737  0.2498  0.1677  0.7056
12336WAT     H150064   6.009   3.791   5.726 -0.4337  0.2383 -0.0635
12336WAT     H250065   5.922   3.708   5.792  0.0712  0.1423  0.4892
12336WAT    EPW50066   5.982   3.719   5.744  0.1224  0.1744  0.5600
12337WAT      O50067   2.668   2.693   1.710 -0.4095 -0.1621  0.2937
12337WAT     H150068   2.728   2.748   1.678 -0.0265 -0.0830  1.1462
12337WAT     H250069   2.698   2.614   1.689  0.0423 -0.1266  0.8212
12337WAT    EPW50070   2.681   2.690   1.702 -0.2862 -0.1452  0.4976
12338WAT      O50071   6.119   0.520   6.325  0.4443 -0.2629  0.0228
12338WAT     H150072   6.089   0.440   6.338 -1.7665  0.2405 -1.4830
12338WAT     H250073   6.131   0.524   6.239  1.0836  0.8524  0.1373
12338WAT    EPW50074   6.117   0.509   6.314  0.2122 -0.0238 -0.1827
12339WAT      O50075   7.163   1.595   1.049 -0.1512 -0.5097  0.0215
12339WAT     H150076   7.134   1.526   1.094 -1.0163  0.5763  1.2009
12339WAT     H250077   7.153   1.661   1.105  1.1093  0.5121 -0.9075
12339WAT    EPW50078   7.158   1.594   1.064 -0.0928 -0.1984  0.0585
12340WAT      O50079   0.297   2.270   3.883 -0.1420 -0.0706 -0.6666
12340WAT     H150080   0.377   2.237   3.873 -0.0661 -0.2887  0.5345
12340WAT     H250081   0.246   2.199   3.892 -0.1733  0.0755  0.5161
12340WAT    EPW50082   0.301   2.255   3.883 -0.1354 -0.0812 -0.3144
12341WAT      O50083   4.317   4.932   3.391 -0.1739  0.4004  0.2489
12341WAT     H150084   4.259   4.957   3.451 -2.3709 -0.3239 -1.4436
12341WAT     H250085   4.307   4.846   3.388  1.2928  0.2173  0.1760
12341WAT    EPW50086   4.307   4.923   3.400 -0.2818  0.2664 -0.0119
12342WAT      O50087   2.986   4.069   7.225 -0.2687 -0.1044 -0.1537
12342WAT     H150088   3.049   4.038   7.277 -0.1652 -0.4172 -0.4652
12342WAT     H250089   2.923   4.092   7.281 -0.1771 -0.4847  0.1077
12342WAT    EPW50090   2.986   4.068   7.241 -0.2399 -0.2068 -0.1611
12343WAT      O50091   3.359   1.372   2.004  0.1740 -0.3358  0.2381
12343WAT     H150092   3.443   1.387   2.019 -0.0492 -0.5857  2.0052
12343WAT     H250093   3.349   1.288   2.027 -0.2646 -0.7832 -1.4639
12343WAT    EPW50094   3.370   1.362   2.010  0.0762 -0.4388  0.2477
12344WAT      O50095   1.645   4.847   0.434  0.1603  0.5689  0.0632
12344WAT     H150096   1.613   4.890   0.365 -0.6541 -0.7285 -0.4138
12344WAT     H250097   1.580   4.851   0.492 -0.8481 -1.7529 -0.7694
12344WAT    EPW50098   1.630   4.854   0.432 -0.1090  0.0343 -0.1303
12345WAT      O50099   3.420   4.608   2.735  0.1733 -0.0684  0.3411
12345WAT     H150100   3.449   4.575   2.810  1.9350 -1.3834 -0.8511
12345WAT     H250101   3.375   4.543   2.699 -1.3116  0.7967  0.5401
12345WAT    EPW50102   3.418   4.594   2.741  0.2142 -0.1348  0.1944
12346WAT      O50103   4.149   3.679   2.759 -0.1029 -0.5928  0.8271
12346WAT     H150104   4.084   3.670   2.817 -0.4247  1.4419  0.8519
12346WAT     H250105   4.109   3.707   2.687  0.5979 -0.6096  0.4219
12346WAT    EPW50106   4.133   3.682   2.757 -0.0469 -0.2947  0.7709
12347WAT      O50107   0.791   3.544   2.448  0.4565 -0.7194  0.1787
12347WAT     H150108   0.806   3.599   2.514 -1.2920  1.6774 -1.2494
12347WAT     H250109   0.863   3.549   2.400  0.5391 -0.0557  0.3604
12347WAT    EPW50110   0.804   3.553   2.451  0.2104 -0.2673 -0.0054
12348WAT      O50111   0.017   2.611   3.756  0.3744 -0.3393 -0.2404
12348WAT     H150112  -0.039   2.591   3.820  0.0394  0.5648 -0.2357
12348WAT     H250113  -0.028   2.593   3.683 -0.0280  0.5731 -0.2414
12348WAT    EPW50114   0.002   2.605   3.755  0.2655 -0.0710 -0.2398
12349WAT      O50115   0.236   0.319   2.317  0.0897 -0.0208  0.5018
12349WAT     H150116   0.176   0.283   2.369  0.3992 -0.2920  0.6780
12349WAT     H250117   0.200   0.315   2.238  0.1319 -0.7608  0.5133
12349WAT    EPW50118   0.222   0.313   2.313  0.1417 -0.1702  0.5296
12350WAT      O50119   3.778   6.720   6.153  0.1211 -0.9700  0.1974
12350WAT     H150120   3.808   6.752   6.228  0.6394  0.3438 -0.5396
12350WAT     H250121   3.850   6.692   6.112  0.2030  0.6098 -0.8375
12350WAT    EPW50122   3.793   6.720   6.158  0.2098 -0.5426 -0.0644
12351WAT      O50123   1.825   6.110   4.780 -0.2144  0.1151  0.1471
12351WAT     H150124   1.738   6.116   4.773 -0.1813  0.5989  0.1241
12351WAT     H250125   1.847   6.060   4.713 -0.3212  1.3053 -0.8106
12351WAT    EPW50126   1.815   6.104   4.769 -0.2253  0.3624  0.0022
12352WAT      O50127   0.375   4.135   2.127 -0.2093 -0.2799 -0.0171
12352WAT     H150128   0.339   4.174   2.196 -2.6801 -2.2063 -0.0621
12352WAT     H250129   0.373   4.197   2.066  1.4938  1.2817  1.3958
12352WAT    EPW50130   0.369   4.150   2.128 -0.3227 -0.3338  0.1850
12353WAT      O50131   3.314   5.083   3.977  0.4363  0.6771 -0.0466
12353WAT     H150132   3.321   5.040   4.053 -0.7025  1.2276  0.4094
12353WAT     H250133   3.321   5.020   3.917  2.6929  0.3939  0.4269
12353WAT    EPW50134   3.316   5.067   3.980  0.6014  0.7166  0.0907
12354WAT      O50135   2.706   2.736   1.985  0.8495  0.3050  0.9733
12354WAT     H150136   2.701   2.715   1.900  0.7060 -0.2538  1.1112
12354WAT     H250137   2.626   2.766   2.004  1.1688  1.3548  0.6831
12354WAT    EPW50138   2.693   2.737   1.975  0.8755  0.3775  0.9508
12355WAT      O50139   0.805   1.850   1.307  0.0298  0.0221 -0.5541
12355WAT     H150140   0.797   1.816   1.387  1.0241  0.2628 -0.3289
12355WAT     H250141   0.779   1.932   1.318  0.8775  0.2683 -0.2831
12355WAT    EPW50142   0.800   1.857   1.321  0.3019  0.0940 -0.4808
12356WAT      O50143   5.523   5.009   3.296 -0.2117 -0.0330  0.0312
12356WAT     H150144   5.445   4.971   3.286 -0.1536 -0.7587  1.8156
12356WAT     H250145   5.530   5.063   3.228 -2.6506  0.6778  0.2512
12356WAT    EPW50146   5.512   5.012   3.285 -0.5634 -0.0352  0.3273
12357WAT      O50147   6.968   0.595   3.853  0.3140 -0.4246  0.5749
12357WAT     H150148   6.970   0.578   3.768  1.0959 -0.7422  0.6545
12357WAT     H250149   7.008   0.672   3.860  1.7010 -1.1374  0.8178
12357WAT    EPW50150   6.974   0.604   3.842  0.6344 -0.5768  0.6225
12358WAT      O50151   5.378   6.080   4.316 -0.0544 -0.5609  0.2074
12358WAT     H150152   5.389   6.041   4.394 -1.3750 -1.5067 -0.0500
12358WAT     H250153   5.422   6.029   4.261 -1.3220 -1.4227 -0.0447
12358WAT    EPW50154   5.386   6.067   4.320 -0.4367 -0.8279  0.1321
12359WAT      O50155   3.917   1.421   3.645 -0.2596  1.1429 -0.2392
12359WAT     H150156   3.923   1.431   3.731  0.8616 -1.7801  0.1272
12359WAT     H250157   4.000   1.425   3.618 -0.0276 -2.1878 -0.4710
12359WAT    EPW50158   3.930   1.423   3.654 -0.0597  0.2191 -0.2193
12360WAT      O50159   5.301   6.332   6.176  0.0592  0.1026  1.3072
12360WAT     H150160   5.256   6.377   6.116  0.1379  0.3484  1.4292
12360WAT     H250161   5.379   6.320   6.138 -0.8398 -2.4781  0.0691
12360WAT    EPW50162   5.306   6.337   6.161 -0.0620 -0.2423  1.1423
12361WAT      O50163   2.992   7.011   6.511  0.3120 -0.1739  0.5664
12361WAT     H150164   2.998   6.928   6.484  0.7820 -0.6292  1.9911
12361WAT     H250165   3.028   7.056   6.446  0.2213 -1.0981 -0.1524
12361WAT    EPW50166   2.998   7.005   6.497  0.3680 -0.3777  0.6707
12362WAT      O50167   7.269   4.282   6.953  0.8495 -0.2314  0.3361
12362WAT     H150168   7.297   4.350   6.906 -1.7797 -0.3227 -1.6349
12362WAT     H250169   7.257   4.220   6.893  0.7155 -1.6020  1.7143
12362WAT    EPW50170   7.272   4.283   6.937  0.4413 -0.4473  0.2485
12363WAT      O50171   5.340   6.732   7.363 -0.0764 -0.3595  0.1447
12363WAT     H150172   5.361   6.665   7.312 -0.0817 -1.6356  1.7419
12363WAT     H250173   5.307   6.694   7.435  2.2751  1.1689  2.2410
12363WAT    EPW50174   5.338   6.716   7.366  0.2702 -0.3222  0.6903
12364WAT      O50175   7.184   4.320   2.529 -0.0516 -0.5406  0.0765
12364WAT     H150176   7.101   4.305   2.551 -0.6116  0.1339 -1.4458
12364WAT     H250177   7.226   4.315   2.605 -1.5426 -0.4524  0.9553
12364WAT    EPW50178   7.178   4.317   2.544 -0.3546 -0.4279 -0.0186
12365WAT      O50179   2.299   1.005   5.044  0.2225 -0.0909 -0.1421
12365WAT     H150180   2.309   0.919   5.052  0.8911 -0.2921 -2.3845
12365WAT     H250181   2.340   1.038   5.114 -0.2806 -1.5767  0.8853
12365WAT    EPW50182   2.307   0.997   5.056  0.2470 -0.3401 -0.3215
12366WAT      O50183   6.412   3.878   2.735  0.5143 -0.0583 -0.6773
12366WAT     H150184   6.363   3.951   2.736  0.0671 -0.3247 -1.6142
12366WAT     H250185   6.411   3.854   2.651 -0.2027 -1.7055 -0.2453
12366WAT    EPW50186   6.404   3.885   2.723  0.3423 -0.3410 -0.7519
12367WAT      O50187   0.608   5.280   2.844 -0.1139 -0.2943  0.2871
12367WAT     H150188   0.685   5.244   2.826 -0.6968 -1.1550 -0.5884
12367WAT     H250189   0.560   5.214   2.874 -0.4045  0.3051  1.1684
12367WAT    EPW50190   0.612   5.265   2.845 -0.2430 -0.3329  0.2880
12368WAT      O50191   1.724   5.191   2.300 -0.1490 -0.3673  0.0784
12368WAT     H150192   1.791   5.248   2.307 -1.7604  1.5067  1.5485
12368WAT     H250193   1.744   5.145   2.229  2.8940 -0.1805  0.6628
12368WAT    EPW50194   1.737   5.193   2.290  0.0625 -0.0629  0.3819
12369WAT      O50195   2.128   0.369   2.342  0.5227  1.0674  0.4312
12369WAT     H150196   2.085   0.294   2.353  0.5685  1.1762  1.4383
12369WAT     H250197   2.121   0.408   2.420  0.7279  1.9871  0.0027
12369WAT    EPW50198   2.120   0.364   2.355  0.5598  1.2194  0.5167
12370WAT      O50199   4.922   4.458   5.944 -0.1533 -0.0066  0.1160
12370WAT     H150200   4.974   4.420   5.885 -1.7312 -0.6115 -0.9303
12370WAT     H250201   4.891   4.527   5.902  1.0169  1.2831  1.2928
12370WAT    EPW50202   4.925   4.462   5.929 -0.2135  0.0945  0.1353
12371WAT      O50203   0.472   1.038   6.387  0.3172  0.2841  0.3329
12371WAT     H150204   0.546   1.062   6.427  0.1965 -0.9202  1.3721
12371WAT     H250205   0.417   1.024   6.454 -0.0636 -1.2683 -0.2615
12371WAT    EPW50206   0.474   1.039   6.403  0.2431 -0.1231  0.3986
12372WAT      O50207   6.815   4.284   1.368  0.6245 -0.0306  0.8495
12372WAT     H150208   6.837   4.347   1.425 -4.0397  2.1191  0.7151
12372WAT     H250209   6.765   4.230   1.415 -1.8092  0.7877 -0.6372
12372WAT    EPW50210   6.811   4.285   1.383 -0.4240  0.4078  0.6100
12373WAT      O50211   3.569   5.428   4.359  0.1078 -0.6184 -0.2393
12373WAT     H150212   3.612   5.410   4.285  4.4508 -1.3597  2.1453
12373WAT     H250213   3.594   5.366   4.414  0.5280  2.0923  2.9979
12373WAT    EPW50214   3.579   5.416   4.356  0.8114 -0.3275  0.5911
12374WAT      O50215   1.233   4.364   1.135 -0.2032 -0.1498 -0.1167
12374WAT     H150216   1.198   4.315   1.071 -2.0760 -1.0436  1.4621
12374WAT     H250217   1.280   4.307   1.180  0.6892  0.3649 -0.3839
12374WAT    EPW50218   1.235   4.348   1.132 -0.3480 -0.2058  0.0771
12375WAT      O50219   2.282   5.604   2.118 -0.0446  0.3128 -0.2768
12375WAT     H150220   2.243   5.560   2.183  1.0453  1.7901  1.4925
12375WAT     H250221   2.216   5.649   2.082 -1.0019 -1.9083 -1.5024
12375WAT    EPW50222   2.266   5.604   2.122 -0.0251  0.2029 -0.1965
12376WAT      O50223   2.428   5.580   6.733  0.3562 -0.7636  0.2860
12376WAT     H150224   2.406   5.654   6.693 -0.2556 -0.7326  0.6770
12376WAT     H250225   2.488   5.545   6.680  0.3099 -0.2160 -0.1285
12376WAT    EPW50226   2.434   5.586   6.719  0.2590 -0.6781  0.2825
12377WAT      O50227   3.483   0.581   7.386 -0.8360 -0.1229 -0.4777
12377WAT     H150228   3.470   0.532   7.457 -0.7669 -1.1537 -1.1441
12377WAT     H250229   3.569   0.595   7.387 -0.2093 -2.9498 -2.0270
12377WAT    EPW50230   3.494   0.576   7.396 -0.7332 -0.6927 -0.8050
12378WAT      O50231   3.283   7.067   6.883  0.0523  0.2375  0.1188
12378WAT     H150232   3.273   6.982   6.865 -1.2252  0.4409 -0.2073
12378WAT     H250233   3.370   7.078   6.882  0.1784 -0.6510 -1.7924
12378WAT    EPW50234   3.294   7.056   6.880 -0.1178  0.1363 -0.2117
12379WAT      O50235   4.838   6.812   6.247  0.1679 -0.1690  0.2712
12379WAT     H150236   4.769   6.759   6.241  0.5062 -0.4392 -2.1167
12379WAT     H250237   4.876   6.788   6.322 -2.2939  0.0122  1.6990
12379WAT    EPW50238   4.833   6.801   6.257 -0.1458 -0.1821  0.1294
12380WAT      O50239   3.961   0.211   1.271 -0.2123 -0.7847  0.4602
12380WAT     H150240   3.900   0.232   1.331  0.2709  1.7504  0.1935
12380WAT     H250241   4.035   0.213   1.316  0.0001 -0.3304  0.1044
12380WAT    EPW50242   3.963   0.214   1.287 -0.1095 -0.3431  0.3682
12381WAT      O50243   2.602   5.953   5.312 -0.4380 -0.3090  0.0940
12381WAT     H150244   2.648   5.903   5.257  1.4710  1.0797  0.3062
12381WAT     H250245   2.593   5.903   5.383  1.1138 -0.5189  0.1751
12381WAT    EPW50246   2.607   5.938   5.314  0.0732 -0.1349  0.1373
12382WAT      O50247   6.389   3.664   1.000  0.3290 -0.1327  0.0032
12382WAT     H150248   6.363   3.694   0.923  3.5868 -1.6025 -1.8418
12382WAT     H250249   6.465   3.703   1.014  0.4843 -0.9509  1.8414
12382WAT    EPW50250   6.396   3.674   0.991  0.8332 -0.4707  0.0022
12383WAT      O50251   0.552   6.607   6.777  0.4619 -0.1258  0.5837
12383WAT     H150252   0.605   6.639   6.839  1.0521 -0.4343  0.2450
12383WAT     H250253   0.556   6.668   6.714  1.0585 -0.5352  0.2186
12383WAT    EPW50254   0.560   6.621   6.777  0.6372 -0.2319  0.4798
12384WAT      O50255   1.010   2.060   0.823 -0.2943  0.0785  0.1378
12384WAT     H150256   0.981   2.026   0.898  0.4177 -1.9657 -0.4571
12384WAT     H250257   0.940   2.103   0.792 -0.5413  1.1028  2.0131
12384WAT    EPW50258   0.995   2.061   0.829 -0.2256 -0.0722  0.3269
12385WAT      O50259   5.488   1.374   2.640 -0.2260 -0.0913  0.1686
12385WAT     H150260   5.546   1.318   2.607  0.4503  0.6800  0.0053
12385WAT     H250261   5.491   1.358   2.726  0.5072  0.1706  0.2049
12385WAT    EPW50262   5.497   1.363   2.648 -0.0178  0.0613  0.1498
12386WAT      O50263   2.747   2.707   4.356 -0.4521  0.6362  0.4300
12386WAT     H150264   2.827   2.689   4.386  0.3741  1.3883 -1.1758
12386WAT     H250265   2.731   2.788   4.386 -1.3077 -0.1020  2.0524
12386WAT    EPW50266   2.756   2.717   4.365 -0.4564  0.6382  0.4325
12387WAT      O50267   5.972   3.436   0.496 -0.5934 -0.3914  0.0823
12387WAT     H150268   5.889   3.414   0.514 -1.6010  2.6378 -0.2548
12387WAT     H250269   5.976   3.520   0.518  2.3724 -0.3685 -0.1599
12387WAT    EPW50270   5.960   3.445   0.502 -0.3041  0.0594 -0.0033
12388WAT      O50271   0.726   3.665   1.342 -0.2435  0.3852 -0.4226
12388WAT     H150272   0.666   3.711   1.299  1.6832  2.1859 -1.3789
12388WAT     H250273   0.759   3.723   1.398  1.0700 -0.3366 -0.4222
12388WAT    EPW50274   0.722   3.680   1.344  0.2352  0.5446 -0.5638
12389WAT      O50275   4.856   3.953   7.139 -0.2632 -1.0021  0.4161
12389WAT     H150276   4.829   4.031   7.111 -1.1948 -1.2149  0.6649
12389WAT     H250277   4.927   3.937   7.091  0.9217  0.7092  1.5065
12389WAT    EPW50278   4.862   3.962   7.127 -0.2258 -0.7807  0.6139
12390WAT      O50279   1.775   3.318   3.069  0.0434 -0.2710 -0.2494
12390WAT     H150280   1.782   3.237   3.101 -1.1592 -0.9239 -1.5476
12390WAT     H250281   1.690   3.334   3.072 -0.2829 -0.6588 -3.6682
12390WAT    EPW50282   1.764   3.309   3.074 -0.1824 -0.4247 -0.9462
12391WAT      O50283   1.246   3.683   4.320  0.0695  0.6216  0.1904
12391WAT     H150284   1.293   3.745   4.280 -0.9493  1.6621  0.5586
12391WAT     H250285   1.166   3.693   4.287  0.0497 -1.0521 -0.3467
12391WAT    EPW50286   1.241   3.694   4.309 -0.0839  0.5281  0.1655
12392WAT      O50287   1.541   6.037   5.591 -0.2294  0.3051  0.1103
12392WAT     H150288   1.484   5.973   5.606  1.3986 -1.1975  0.2000
12392WAT     H250289   1.605   5.998   5.546  1.4713  1.5379  1.3361
12392WAT    EPW50290   1.542   6.022   5.586  0.2623  0.2653  0.3046
12393WAT      O50291   4.960   2.515   0.631  0.5117 -0.3911  0.2727
12393WAT     H150292   4.893   2.494   0.684 -1.3275 -0.8104 -2.0646
12393WAT     H250293   4.928   2.577   0.580  1.7958 -0.8458 -1.1673
12393WAT    EPW50294   4.945   2.521   0.631  0.4297 -0.5202 -0.2853
12394WAT      O50295   3.407   0.006   0.058  0.1605 -0.1441 -0.0463
12394WAT     H150296   3.465  -0.037   0.107  0.9069  2.6669  1.7523
12394WAT     H250297   3.361   0.052   0.116 -0.7433  1.2502 -1.7685
12394WAT    EPW50298   3.409   0.006   0.074  0.1372  0.4771 -0.0350
12395WAT      O50299   0.045   3.168   2.166  0.1516 -0.1905  0.1231
12395WAT     H150300   0.063   3.209   2.091 -1.3895  0.6517  0.1812
12395WAT     H250301  -0.042   3.168   2.170  0.1431 -1.9480  0.9971
12395WAT    EPW50302   0.035   3.174   2.156 -0.0773 -0.3257  0.2608
12396WAT      O50303   2.360   4.656   4.174  0.5745 -0.4732 -0.0452
12396WAT     H150304   2.303   4.613   4.223 -0.4468  1.3428  0.4786
12396WAT     H250305   2.430   4.666   4.226 -0.8164  2.1971  1.5161
12396WAT    EPW50306   2.362   4.651   4.189  0.2181  0.1895  0.2628
12397WAT      O50307   4.018   0.975   6.247  0.2895  0.3891 -0.4242
12397WAT     H150308   3.990   1.056   6.263 -1.2798  0.1514 -1.7122
12397WAT     H250309   4.094   0.987   6.206  1.4910  1.0882  1.8126
12397WAT    EPW50310   4.025   0.989   6.243  0.2352  0.4573 -0.2840
12398WAT      O50311   4.178   6.409   0.344  0.1303 -0.2173 -0.2468
12398WAT     H150312   4.193   6.465   0.279  1.9338  1.2656  1.3255
12398WAT     H250313   4.091   6.398   0.342  0.0116  0.5901 -2.2000
12398WAT    EPW50314   4.167   6.415   0.334  0.3792  0.1210 -0.3030
12399WAT      O50315   1.514   6.738   3.423  0.2967 -0.1768  0.4485
12399WAT     H150316   1.429   6.744   3.444  0.5535  1.5041  1.0967
12399WAT     H250317   1.555   6.761   3.496  1.3521 -1.3073  0.2499
12399WAT    EPW50318   1.507   6.742   3.437  0.4905 -0.0955  0.5149
12400WAT      O50319   0.716   0.715   6.338  0.6931 -0.0076  0.2194
12400WAT     H150320   0.648   0.743   6.292  1.0425 -1.2069 -1.1293
12400WAT     H250321   0.689   0.638   6.370  0.3964  0.8846  2.2422
12400WAT    EPW50322   0.702   0.708   6.336  0.7009 -0.0530  0.3190
12401WAT      O50323   5.526   1.174   0.844 -0.2985 -0.5320  0.2811
12401WAT     H150324   5.466   1.210   0.792  0.3501  0.6545  0.3169
12401WAT     H250325   5.539   1.235   0.905  1.6007 -0.3736 -0.2287
12401WAT    EPW50326   5.519   1.188   0.845  0.0779 -0.3333  0.2111
12402WAT      O50327   6.135   1.347   2.288 -0.3939 -0.1128 -0.0570
12402WAT     H150328   6.199   1.405   2.279 -0.9164  0.2617 -1.7286
12402WAT     H250329   6.159   1.300   2.357  1.7925 -0.1407 -0.7793
12402WAT    EPW50330   6.148   1.349   2.297 -0.1481 -0.0616 -0.4106
12403WAT      O50331   7.264   0.731   2.233  0.0611 -0.2378  0.5428
12403WAT     H150332   7.178   0.729   2.221  0.0933 -0.2449  0.3157
12403WAT     H250333   7.296   0.746   2.154  0.3100 -0.9803  0.4938
12403WAT    EPW50334   7.256   0.733   2.220  0.1026 -0.3486  0.5020
12404WAT      O50335   0.777   0.212   3.106  0.0204  0.2734  0.1143
12404WAT     H150336   0.806   0.166   3.174  0.5473 -0.2327 -0.4418
12404WAT     H250337   0.804   0.166   3.037 -3.0554 -0.9122 -0.4795
12404WAT    EPW50338   0.785   0.198   3.106 -0.3561  0.0235 -0.0556
12405WAT      O50339   6.210   5.043   0.548 -0.2347  0.4100  0.2490
12405WAT     H150340   6.149   4.981   0.549  0.8665 -0.7000  1.2654
12405WAT     H250341   6.192   5.089   0.476 -1.2969 -0.8644 -0.3232
12405WAT    EPW50342   6.199   5.041   0.538 -0.2290  0.0578  0.3147
12406WAT      O50343   6.469   1.316   4.799  1.1242  0.2849 -0.1316
12406WAT     H150344   6.427   1.385   4.832 -0.7067 -0.2720 -1.1613
12406WAT     H250345   6.405   1.262   4.774  2.4279 -0.4925 -2.0751
12406WAT    EPW50346   6.453   1.318   4.800  1.0463  0.0878 -0.5708
12407WAT      O50347   4.450   2.434   5.972  0.1727  0.3583  0.5214
12407WAT     H150348   4.464   2.520   5.960  0.4948  0.4261  1.3534
12407WAT     H250349   4.365   2.425   5.951  0.2358  0.8019  0.0367
12407WAT    EPW50350   4.439   2.445   5.967  0.2296  0.4338  0.5727
12408WAT      O50351   6.197   5.865   0.519  0.4457  0.5837 -0.1068
12408WAT     H150352   6.245   5.830   0.583  0.4254  0.8142  0.0328
12408WAT     H250353   6.213   5.812   0.451 -0.7352 -0.5784  0.4703
12408WAT    EPW50354   6.207   5.852   0.518  0.2682  0.4461 -0.0009
12409WAT      O50355   6.811   5.814   1.607 -0.4757  0.0969  0.3768
12409WAT     H150356   6.805   5.896   1.577  0.4267  0.2048  0.4385
12409WAT     H250357   6.797   5.765   1.537 -0.7569  0.3111  0.2813
12409WAT    EPW50358   6.808   5.819   1.592 -0.3839  0.1445  0.3718
12410WAT      O50359   5.488   4.387   2.588 -0.2677 -0.0169 -0.1152
12410WAT     H150360   5.404   4.410   2.587  0.1471  2.0142  2.1208
12410WAT     H250361   5.508   4.384   2.673  2.1926  0.9272 -0.5567
12410WAT    EPW50362   5.479   4.390   2.600  0.1570  0.4226  0.1499
12411WAT      O50363   1.135   4.842   0.963 -0.4036  0.4111  0.1321
12411WAT     H150364   1.076   4.906   0.963 -2.8168 -1.5987 -1.8227
12411WAT     H250365   1.162   4.839   0.880 -2.5913 -2.7861 -0.6545
12411WAT    EPW50366   1.130   4.851   0.951 -1.0832 -0.3581 -0.2729
12412WAT      O50367   4.444   1.318   7.252  0.0162 -0.0795  0.4065
12412WAT     H150368   4.480   1.394   7.230 -0.0107 -0.0277  0.5455
12412WAT     H250369   4.458   1.312   7.337  0.9721 -0.7338  0.2212
12412WAT    EPW50370   4.451   1.328   7.261  0.1534 -0.1685  0.3997
12413WAT      O50371   3.691   6.401   1.793 -1.0276 -0.2624 -0.2080
12413WAT     H150372   3.697   6.451   1.722  1.1911 -0.2686 -0.1042
12413WAT     H250373   3.627   6.345   1.774 -0.0114 -0.7539 -2.5369
12413WAT    EPW50374   3.682   6.400   1.780 -0.5497 -0.3359 -0.5367
12414WAT      O50375   3.486   0.717   5.034 -0.5965  0.4773  0.4855
12414WAT     H150376   3.425   0.713   4.972 -0.3882  0.0481  0.3110
12414WAT     H250377   3.518   0.798   5.027 -1.7832  1.0380  1.1795
12414WAT    EPW50378   3.482   0.729   5.024 -0.7411  0.4968  0.5623
12415WAT      O50379   3.098   6.718   1.170 -0.2520 -0.0044 -0.0649
12415WAT     H150380   3.185   6.716   1.177 -0.1986 -1.2841 -0.8687
12415WAT     H250381   3.084   6.790   1.122  0.5440 -0.9564 -1.8086
12415WAT    EPW50382   3.109   6.729   1.164 -0.1266 -0.3340 -0.4412
12416WAT      O50383   2.458   2.177   2.282 -0.3357  0.6061  0.4449
12416WAT     H150384   2.488   2.251   2.318 -1.0921  0.7929  0.7070
12416WAT     H250385   2.426   2.133   2.350  0.3110 -0.0689  0.3204
12416WAT    EPW50386   2.458   2.182   2.297 -0.3519  0.5340  0.4652
12417WAT      O50387   0.944   3.815   2.272 -0.6034 -0.1819  0.5100
12417WAT     H150388   0.936   3.729   2.259 -1.8104  0.1258 -1.2065
12417WAT     H250389   0.993   3.821   2.343  2.4252 -2.2855 -1.1733
12417WAT    EPW50390   0.950   3.803   2.280 -0.3343 -0.4472  0.0078
12418WAT      O50391   1.531   0.937   5.355 -0.2618  0.4558 -0.2176
12418WAT     H150392   1.512   0.905   5.434  1.0000  0.3864  0.0646
12418WAT     H250393   1.566   0.870   5.313  0.5111  0.9128 -0.3093
12418WAT    EPW50394   1.533   0.923   5.360  0.0388  0.5131 -0.1895
12419WAT      O50395   1.894   4.211   5.642 -0.0215  0.2094 -0.1299
12419WAT     H150396   1.942   4.139   5.631 -0.1504 -0.0964  1.1097
12419WAT     H250397   1.837   4.188   5.704 -0.2529  1.2934  0.0776
12419WAT    EPW50398   1.893   4.197   5.650 -0.0747  0.3243  0.0839
12420WAT      O50399   3.025   2.460   4.392 -0.3749  0.0937  0.1550
12420WAT     H150400   2.953   2.433   4.433  0.5244  0.1752  1.9027
12420WAT     H250401   3.075   2.388   4.389  0.3008  0.5177  0.8938
12420WAT    EPW50402   3.022   2.445   4.398 -0.1422  0.1684  0.5223
12421WAT      O50403   3.218   1.673   2.337 -0.2162 -0.0461 -0.1686
12421WAT     H150404   3.193   1.595   2.307 -0.8670 -0.0640  0.3986
12421WAT     H250405   3.303   1.676   2.319 -0.4718 -0.2802 -1.5213
12421WAT    EPW50406   3.227   1.662   2.330 -0.3501 -0.0833 -0.2846
12422WAT      O50407   5.443   6.436   1.763 -0.4342 -0.0708 -0.8095
12422WAT     H150408   5.397   6.362   1.766  0.9904 -0.9764  1.2204
12422WAT     H250409   5.525   6.410   1.779  0.2526  1.8502 -0.9478
12422WAT    EPW50410   5.448   6.422   1.766 -0.1223  0.0792 -0.5301
12423WAT      O50411   6.916   0.966   5.069  0.1321  0.5300 -0.2975
12423WAT     H150412   6.899   1.004   5.145  1.5655  1.3891 -0.3721
12423WAT     H250413   6.868   0.893   5.072  0.7914  0.1086  1.8005
12423WAT    EPW50414   6.906   0.960   5.081  0.4412  0.5946  0.0014
12424WAT      O50415   3.038   6.743   5.257  0.0557  0.3569 -0.2296
12424WAT     H150416   3.046   6.753   5.171 -0.7614 -0.9026 -0.4865
12424WAT     H250417   2.977   6.801   5.279 -3.2128 -2.2732 -1.3521
12424WAT    EPW50418   3.030   6.753   5.248 -0.5478 -0.2177 -0.4334
12425WAT      O50419   0.032   5.820   1.033 -0.2824  0.4177  0.9411
12425WAT     H150420   0.012   5.900   1.005 -0.2926  0.0408 -0.1549
12425WAT     H250421   0.111   5.805   1.001  0.0998  0.3161  1.8814
12425WAT    EPW50422   0.041   5.829   1.024 -0.2274  0.3470  0.9181
12426WAT      O50423   5.431   1.476   5.943  0.7297  0.6430  0.0246
12426WAT     H150424   5.393   1.403   5.914 -0.2126 -0.1098  2.8560
12426WAT     H250425   5.516   1.458   5.941  0.5385 -0.2909  0.0905
12426WAT    EPW50426   5.438   1.463   5.938  0.5622  0.3938  0.4526
12427WAT      O50427   6.638   4.581   1.165  0.1095  0.7087 -0.4399
12427WAT     H150428   6.684   4.531   1.111 -0.7144  0.1864 -0.6689
12427WAT     H250429   6.555   4.564   1.144 -0.2007  1.5166  0.0676
12427WAT    EPW50430   6.632   4.571   1.154 -0.0581  0.7509 -0.3988
12428WAT      O50431   1.969   2.764   0.532  0.3994  0.3976 -0.0257
12428WAT     H150432   1.959   2.711   0.601 -1.4804  0.9680  0.2015
12428WAT     H250433   2.047   2.801   0.545 -0.1856  1.0049  2.2106
12428WAT    EPW50434   1.979   2.762   0.544  0.0353  0.5716  0.3382
12429WAT      O50435   6.934   7.123   2.882 -0.6953 -0.9442  0.7364
12429WAT     H150436   6.922   7.059   2.823 -2.8552  0.8529 -0.9826
12429WAT     H250437   6.996   7.172   2.845  1.0663 -2.0085  2.1251
12429WAT    EPW50438   6.941   7.120   2.868 -0.7541 -0.8360  0.6876
12430WAT      O50439   0.468   3.156   1.682 -0.4053  0.1830 -0.1621
12430WAT     H150440   0.553   3.143   1.669 -0.4165  0.8145 -0.9520
12430WAT     H250441   0.430   3.101   1.625 -0.5961 -1.4729  1.4526
12430WAT    EPW50442   0.475   3.146   1.671 -0.4352  0.0317 -0.0402
12431WAT      O50443   1.302   5.362   3.504  0.1887 -0.2318 -0.5145
12431WAT     H150444   1.349   5.290   3.520  1.0224  0.7569  2.1059
12431WAT     H250445   1.354   5.409   3.453  1.3735  0.1108  0.9449
12431WAT    EPW50446   1.317   5.358   3.499  0.4869 -0.0352  0.0881
12432WAT      O50447   5.001   3.110   6.861 -0.1761 -0.1665  0.1445
12432WAT     H150448   4.927   3.081   6.825 -0.0618 -1.3886  0.8168
12432WAT     H250449   5.050   3.038   6.868  0.4706  0.3340  1.1282
12432WAT    EPW50450   4.997   3.095   6.857 -0.0637 -0.2731  0.3892
12433WAT      O50451   5.513   0.676   7.215 -0.0175  0.3433 -0.3569
12433WAT     H150452   5.530   0.591   7.220 -0.5279  0.2790  0.7372
12433WAT     H250453   5.510   0.701   7.299 -2.5283  0.8630 -0.5063
12433WAT    EPW50454   5.515   0.667   7.228 -0.4638  0.4106 -0.2173
12434WAT      O50455   2.678   5.036   2.521  0.1842 -0.3326 -0.1479
12434WAT     H150456   2.607   4.989   2.498 -0.0024 -0.1268  0.0081
12434WAT     H250457   2.712   5.060   2.444 -0.7816  0.8674 -0.2310
12434WAT    EPW50458   2.673   5.033   2.506  0.0140 -0.1250 -0.1371
12435WAT      O50459   5.831   2.574   2.274  0.2565  0.2065 -0.2137
12435WAT     H150460   5.906   2.578   2.230 -0.2422  2.1730 -1.0086
12435WAT     H250461   5.774   2.613   2.220 -0.7956  1.0078  1.3891
12435WAT    EPW50462   5.834   2.581   2.259  0.0274  0.6154 -0.0943
12436WAT      O50463   6.443   3.725   6.451  0.2370  0.2216 -0.5775
12436WAT     H150464   6.371   3.762   6.484  0.7546  2.4505 -1.7526
12436WAT     H250465   6.419   3.703   6.370  0.7004  0.4299 -0.7742
12436WAT    EPW50466   6.429   3.727   6.444  0.3819  0.5816 -0.7801
12437WAT      O50467   5.063   3.194   1.927 -0.0906  0.2794  0.2475
12437WAT     H150468   5.097   3.210   2.005  0.3905  1.2084 -0.1354
12437WAT     H250469   5.017   3.121   1.939  0.3140  0.1783  1.2899
12437WAT    EPW50470   5.061   3.186   1.940  0.0402  0.4017  0.3449
12438WAT      O50471   6.299   5.564   5.292  0.9145  0.6317  0.0922
12438WAT     H150472   6.312   5.482   5.266  5.0904  0.9267  0.5213
12438WAT     H250473   6.270   5.555   5.374 -2.6483 -0.2295 -1.0716
12438WAT    EPW50474   6.297   5.551   5.300  1.0051  0.5481 -0.0163
12439WAT      O50475   5.950   3.071   4.408 -0.2189 -0.4076  0.1403
12439WAT     H150476   5.887   3.019   4.377 -0.2624 -0.4552  0.3056
12439WAT     H250477   5.906   3.131   4.453 -0.1544 -0.3575  0.1361
12439WAT    EPW50478   5.934   3.072   4.410 -0.2158 -0.4073  0.1641
12440WAT      O50479   1.117   4.955   5.334 -0.4856 -0.4139 -0.4661
12440WAT     H150480   1.115   4.988   5.253  1.8336 -2.2788 -1.3916
12440WAT     H250481   1.177   5.004   5.375 -1.4953  0.3845  0.0964
12440WAT    EPW50482   1.126   4.967   5.328 -0.2921 -0.5715 -0.5197
12441WAT      O50483   3.136   1.424   1.346 -0.0850  0.6076  0.2181
12441WAT     H150484   3.209   1.472   1.338  0.6215 -0.4641  0.1424
12441WAT     H250485   3.145   1.384   1.422 -0.5143  0.3097  0.1169
12441WAT    EPW50486   3.148   1.425   1.356 -0.0441  0.4053  0.1919
12442WAT      O50487   3.330   1.746   6.810  0.0180  0.1757  0.5791
12442WAT     H150488   3.297   1.725   6.888 -0.1514 -0.2933  0.3815
12442WAT     H250489   3.409   1.778   6.829 -0.3434  0.8509  1.0165
12442WAT    EPW50490   3.337   1.748   6.824 -0.0604  0.2061  0.6145
12443WAT      O50491   0.531   3.252   1.998  0.0334  0.8500  0.3187
12443WAT     H150492   0.450   3.221   1.991 -0.0902  1.4581 -1.7035
12443WAT     H250493   0.579   3.181   2.014 -0.2929 -0.5358 -3.6958
12443WAT    EPW50494   0.526   3.237   1.999 -0.0331  0.7352 -0.5731
12444WAT      O50495   1.639   6.281   5.392  0.1795 -0.0530  0.1702
12444WAT     H150496   1.697   6.254   5.451  0.3356  1.0680  0.5488
12444WAT     H250497   1.661   6.364   5.378 -0.6818  0.0810 -0.4787
12444WAT    EPW50498   1.651   6.289   5.398  0.0753  0.1324  0.1302
12445WAT      O50499   0.922   1.061   4.086  0.5829  0.7449  0.0716
12445WAT     H150500   0.891   1.131   4.043 -0.1283 -0.5560 -1.6282
12445WAT     H250501   0.952   1.009   4.023  2.1047 -0.0614  1.3740
12445WAT    EPW50502   0.922   1.064   4.070  0.7026  0.4336  0.0129
12446WAT      O50503   1.173   5.888   6.950  0.5566 -0.2531 -0.0573
12446WAT     H150504   1.165   5.960   6.901  1.3694 -0.0931  0.0229
12446WAT     H250505   1.212   5.916   7.022  1.0839 -0.8006 -0.1161
12446WAT    EPW50506   1.178   5.903   6.953  0.7546 -0.3104 -0.0542
12447WAT      O50507   0.060   2.804   1.184 -0.7530 -0.3640  0.0711
12447WAT     H150508   0.014   2.788   1.256 -0.9567  0.2869  0.0970
12447WAT     H250509   0.056   2.730   1.139  0.0156 -1.0313  1.0741
12447WAT    EPW50510   0.053   2.791   1.188 -0.6695 -0.3664  0.2231
12448WAT      O50511   1.451   4.993   6.353  0.2523 -0.5717 -0.3199
12448WAT     H150512   1.521   4.968   6.398  1.1824  2.2351 -0.0373
12448WAT     H250513   1.438   5.076   6.378 -1.9715 -0.3512 -1.8536
12448WAT    EPW50514   1.459   5.001   6.364  0.0612 -0.1245 -0.5047
12449WAT      O50515   2.896   1.942   0.299 -0.2422 -0.0994  0.0346
12449WAT     H150516   2.823   1.980   0.270 -0.7082 -0.8434  0.2047
12449WAT     H250517   2.874   1.911   0.377  0.3060 -0.1839  0.1630
12449WAT    EPW50518   2.882   1.943   0.306 -0.2300 -0.2218  0.0787
12450WAT      O50519   4.911   4.140   0.625 -0.1095  0.2072 -0.1606
12450WAT     H150520   4.873   4.131   0.547  1.1512  0.1836 -0.8038
12450WAT     H250521   4.933   4.224   0.627 -0.7524  0.3705  0.4845
12450WAT    EPW50522   4.908   4.151   0.614 -0.0182  0.2278 -0.1603
12451WAT      O50523   1.377   3.589   1.116  0.1493  0.3724 -0.0514
12451WAT     H150524   1.416   3.511   1.113  1.0880  0.8664 -2.5104
12451WAT     H250525   1.440   3.643   1.144  0.3946  0.6921 -1.1757
12451WAT    EPW50526   1.392   3.586   1.120  0.3242  0.4926 -0.5807
12452WAT      O50527   5.367   0.221   3.686  0.2636 -0.1717  0.4147
12452WAT     H150528   5.399   0.142   3.665  0.9404  0.2587 -0.2394
12452WAT     H250529   5.438   0.266   3.708 -0.0328  0.4649  0.0770
12452WAT    EPW50530   5.382   0.216   3.686  0.3198 -0.0141  0.2682
12453WAT      O50531   2.591   1.611   4.880  1.0072 -0.0342  0.3417
12453WAT     H150532   2.567   1.687   4.845  1.0409 -0.1906 -0.0194
12453WAT     H250533   2.674   1.624   4.904  1.3925 -0.3321 -0.7911
12453WAT    EPW50534   2.599   1.624   4.879  1.0691 -0.1013  0.1210
12454WAT      O50535   4.812   5.616   6.912 -0.3723 -0.4709  0.0828
12454WAT     H150536   4.898   5.615   6.902 -0.3687 -2.1211 -0.0460
12454WAT     H250537   4.801   5.586   6.994 -0.8247 -0.3066  0.0848
12454WAT    EPW50538   4.823   5.611   6.923 -0.4386 -0.6904  0.0641
12455WAT      O50539   6.064   2.180   2.645  0.2371  0.2855  0.2641
12455WAT     H150540   6.048   2.241   2.585 -1.2461 -0.3367 -0.0246
12455WAT     H250541   6.149   2.186   2.659  0.5523  0.7222 -1.6262
12455WAT    EPW50542   6.074   2.190   2.638  0.0646  0.2581 -0.0578
12456WAT      O50543   3.066   2.158   0.715  0.0692  0.5033 -0.2947
12456WAT     H150544   3.120   2.224   0.697 -0.4553  1.0160 -0.0526
12456WAT     H250545   2.996   2.175   0.665  0.3285 -0.4380 -1.0060
12456WAT    EPW50546   3.063   2.171   0.705  0.0300  0.4400 -0.3640
12457WAT      O50547   1.882   5.323   4.602 -0.3418  0.0679  0.1574
12457WAT     H150548   1.798   5.300   4.596  0.0238 -1.0693 -1.3387
12457WAT     H250549   1.879   5.400   4.643 -2.0162 -0.4206  1.0464
12457WAT    EPW50550   1.869   5.331   4.607 -0.5351 -0.1723  0.0678
12458WAT      O50551   0.314   3.988   5.335 -0.2296 -0.0601  0.1967
12458WAT     H150552   0.339   3.996   5.418 -0.2785 -0.0784  0.2132
12458WAT     H250553   0.385   4.010   5.289  0.2735 -1.5287  0.2447
12458WAT    EPW50554   0.328   3.993   5.340 -0.1625 -0.2798  0.2062
12459WAT      O50555   0.422   1.604   2.032  0.8958  0.0153 -0.2895
12459WAT     H150556   0.341   1.596   2.064  1.0617  4.6178  2.0588
12459WAT     H250557   0.409   1.631   1.950 -0.1169  1.9778  0.4574
12459WAT    EPW50558   0.408   1.607   2.024  0.7707  0.9851  0.1677
12460WAT      O50559   5.763   2.178   1.744 -0.2152  0.0558  0.3325
12460WAT     H150560   5.748   2.174   1.830  0.7527 -2.7352  0.4858
12460WAT     H250561   5.764   2.094   1.720 -2.0617  0.7458 -2.7471
12460WAT    EPW50562   5.761   2.165   1.754 -0.3450 -0.2545 -0.0998
12461WAT      O50563   2.501   6.015   5.956 -0.0947 -0.4259  0.7964
12461WAT     H150564   2.541   5.989   6.029 -2.3383 -1.0197  1.9002
12461WAT     H250565   2.546   5.975   5.893  2.2669  0.5442  1.7284
12461WAT    EPW50566   2.514   6.005   5.958 -0.0772 -0.3703  1.0971
12462WAT      O50567   5.201   1.485   6.113 -0.1820  0.1657  0.1409
12462WAT     H150568   5.278   1.479   6.073 -0.5850  0.5487 -0.7073
12462WAT     H250569   5.206   1.561   6.156 -0.7495  1.0937 -1.3826
12462WAT    EPW50570   5.213   1.495   6.114 -0.3254  0.3594 -0.2095
12463WAT      O50571   2.564   6.073   4.472  0.3207  0.0137  0.3041
12463WAT     H150572   2.565   6.119   4.546  0.3504  0.3046  0.1270
12463WAT     H250573   2.645   6.040   4.467 -0.0208 -0.9411  0.9693
12463WAT    EPW50574   2.576   6.075   4.482  0.2746 -0.0844  0.3762
12464WAT      O50575   3.110   5.649   2.649 -0.3131 -0.6801 -0.3251
12464WAT     H150576   3.043   5.701   2.629 -1.7415 -2.8609 -1.6975
12464WAT     H250577   3.075   5.590   2.702  0.5285 -1.8344 -1.0036
12464WAT    EPW50578   3.095   5.648   2.654 -0.3998 -1.1728 -0.6281
12465WAT      O50579   0.380   6.557   2.947  0.1042  0.0091 -0.2848
12465WAT     H150580   0.311   6.547   3.000  1.1351  0.6667  1.2552
12465WAT     H250581   0.422   6.625   2.981  0.4055  1.0098 -2.4612
12465WAT    EPW50582   0.376   6.565   2.960  0.3010  0.2541 -0.3788
12466WAT      O50583   5.471   2.626   2.940  0.1145  0.2755 -0.1211
12466WAT     H150584   5.404   2.621   2.994 -0.1290  0.1804 -0.4275
12466WAT     H250585   5.518   2.554   2.957 -0.7207 -0.5205 -1.0248
12466WAT    EPW50586   5.468   2.614   2.950 -0.0448  0.1439 -0.2998
12467WAT      O50587   4.869   0.178   1.422  0.2529 -0.5569  0.3702
12467WAT     H150588   4.899   0.133   1.354  1.0745  0.0426  0.3097
12467WAT     H250589   4.887   0.261   1.401 -0.1959 -0.2978  0.9667
12467WAT    EPW50590   4.876   0.184   1.409  0.3080 -0.4300  0.4494
12468WAT      O50591   6.646   5.630   3.703 -0.2504  0.4015  0.0785
12468WAT     H150592   6.720   5.601   3.668  0.3315 -1.8883  2.8344
12468WAT     H250593   6.645   5.715   3.681  2.4592  0.2023 -1.2105
12468WAT    EPW50594   6.657   5.638   3.695  0.2359  0.0338  0.2952
12469WAT      O50595   3.830   1.859   3.121  0.3460 -0.5741 -0.1003
12469WAT     H150596   3.895   1.917   3.119  0.4402 -0.5969  1.3153
12469WAT     H250597   3.871   1.783   3.134  0.2534 -1.0595 -2.3275
12469WAT    EPW50598   3.846   1.857   3.123  0.3462 -0.6492 -0.2202
12470WAT      O50599   5.157   1.665   4.500  0.1836  0.4328  0.0837
12470WAT     H150600   5.194   1.725   4.551  0.2053  0.3502  0.1667
12470WAT     H250601   5.196   1.591   4.524  0.7166  0.4997 -0.5655
12470WAT    EPW50602   5.168   1.663   4.511  0.2656  0.4305  0.0001
12471WAT      O50603   4.469   1.712   4.665 -0.0762 -0.3497 -0.1736
12471WAT     H150604   4.548   1.700   4.702 -0.3909 -1.5026  0.1626
12471WAT     H250605   4.419   1.653   4.705 -0.9506 -0.1012 -0.8858
12471WAT    EPW50606   4.473   1.701   4.676 -0.2519 -0.4833 -0.2292
12472WAT      O50607   3.486   3.524   5.659  0.1998  0.0079 -0.2115
12472WAT     H150608   3.439   3.552   5.728  0.4145  1.2403 -0.5440
12472WAT     H250609   3.437   3.547   5.591  0.2685 -0.6824 -0.5009
12472WAT    EPW50610   3.472   3.532   5.659  0.2416  0.0880 -0.3034
12473WAT      O50611   3.084   2.565   3.216 -0.4190  0.5134 -0.7808
12473WAT     H150612   3.122   2.525   3.149 -0.1033 -0.0893 -0.2589
12473WAT     H250613   3.087   2.650   3.195  0.7504  0.4402 -0.9915
12473WAT    EPW50614   3.090   2.572   3.203 -0.1996  0.4136 -0.7348
12474WAT      O50615   4.016   1.211   1.266  0.4169 -0.3520 -0.5013
12474WAT     H150616   4.028   1.125   1.273 -1.2501 -0.7863 -2.1233
12474WAT     H250617   4.053   1.231   1.189 -1.4502 -0.1565 -1.3993
12474WAT    EPW50618   4.024   1.201   1.256 -0.1051 -0.3873 -0.8736
12475WAT      O50619   5.494   1.491   3.950 -0.3719 -0.2469 -0.1022
12475WAT     H150620   5.519   1.412   3.979  1.5166  0.4721  0.3648
12475WAT     H250621   5.412   1.478   3.924  0.3248 -2.7230 -1.3694
12475WAT    EPW50622   5.485   1.477   3.950  0.0100 -0.5065 -0.2204
12476WAT      O50623   4.742   0.220   0.272 -0.8212  0.2673 -0.3086
12476WAT     H150624   4.754   0.289   0.323 -0.0390 -1.0506  1.4201
12476WAT     H250625   4.805   0.226   0.213 -0.8933  1.1256 -0.3074
12476WAT    EPW50626   4.753   0.231   0.271 -0.7163  0.1994 -0.0531
12477WAT      O50627   5.642   2.196   7.077 -0.1803 -0.0255 -0.0092
12477WAT     H150628   5.577   2.141   7.058  0.9729 -1.5104  0.2229
12477WAT     H250629   5.619   2.229   7.154 -0.5399 -0.7150  0.1817
12477WAT    EPW50630   5.629   2.193   7.085 -0.0631 -0.3467  0.0533
12478WAT      O50631   6.305   5.848   3.258 -0.6684  0.5658  0.0015
12478WAT     H150632   6.349   5.832   3.332 -0.2881  2.1148  0.1438
12478WAT     H250633   6.221   5.850   3.284 -0.5567  0.8445  0.3467
12478WAT    EPW50634   6.299   5.846   3.273 -0.5957  0.8358  0.0735
12479WAT      O50635   3.277   1.522   5.429  0.1958  0.3295  0.8401
12479WAT     H150636   3.289   1.495   5.347  0.8874  1.6618  0.4636
12479WAT     H250637   3.255   1.606   5.419  0.1265  0.4643  2.0184
12479WAT    EPW50638   3.275   1.531   5.415  0.2877  0.5462  0.9585
12480WAT      O50639   3.983   3.816   1.846  0.0720 -0.4157  0.1289
12480WAT     H150640   3.945   3.764   1.905 -0.6426  0.1187  0.1510
12480WAT     H250641   3.921   3.873   1.826  0.9034  0.5655  0.2649
12480WAT    EPW50642   3.968   3.817   1.852  0.0892 -0.1918  0.1522
12481WAT      O50643   3.869   6.809   5.147  0.2943 -0.3683 -0.0312
12481WAT     H150644   3.794   6.766   5.132  0.0513 -0.2910  0.9301
12481WAT     H250645   3.843   6.887   5.177  0.6970 -1.2054  2.7945
12481WAT    EPW50646   3.854   6.814   5.149  0.3179 -0.4806  0.5282
12482WAT      O50647   1.387   4.285   6.037  0.6389 -0.6038 -0.6304
12482WAT     H150648   1.392   4.278   5.950  0.2159 -0.7144 -0.6485
12482WAT     H250649   1.345   4.361   6.049  0.4625 -0.7171 -0.5268
12482WAT    EPW50650   1.382   4.295   6.026  0.5504 -0.6369 -0.6178
12483WAT      O50651   6.253   5.411   2.111 -0.7567 -0.2168 -0.3936
12483WAT     H150652   6.256   5.324   2.114 -0.0986 -0.2156 -0.7906
12483WAT     H250653   6.327   5.432   2.070 -1.9107  0.4209 -2.2761
12483WAT    EPW50654   6.265   5.401   2.105 -0.8300 -0.1224 -0.7303
12484WAT      O50655   2.861   0.456   2.334  0.3399 -0.4585  0.1107
12484WAT     H150656   2.841   0.454   2.249  1.3548  0.3468 -0.1630
12484WAT     H250657   2.842   0.537   2.358 -0.6735 -0.8929  0.8637
12484WAT    EPW50658   2.855   0.468   2.325  0.3401 -0.4037  0.1815
12485WAT      O50659   7.103   4.273   4.184 -0.1660  0.4044  0.3768
12485WAT     H150660   7.180   4.289   4.223  0.4741  0.7365 -0.9298
12485WAT     H250661   7.097   4.186   4.186  0.8572  0.2827 -0.5411
12485WAT    EPW50662   7.114   4.263   4.190  0.0797  0.4355  0.0482
12486WAT      O50663   5.520   4.868   5.726 -0.2792 -0.6970  0.3358
12486WAT     H150664   5.532   4.910   5.651 -0.2647  0.9346  1.1984
12486WAT     H250665   5.447   4.822   5.713  0.8113 -2.0718 -1.3234
12486WAT    EPW50666   5.511   4.867   5.713 -0.1160 -0.6590  0.2181
12487WAT      O50667   3.947   0.296   6.267  0.2095  0.0179  0.6635
12487WAT     H150668   3.930   0.226   6.317  1.3980 -1.1757 -0.5032
12487WAT     H250669   3.875   0.306   6.219  1.1098 -2.5163 -1.4611
12487WAT    EPW50670   3.934   0.287   6.267  0.5181 -0.5328  0.1773
12488WAT      O50671   2.432   1.863   5.473 -0.2880  0.4377 -0.0994
12488WAT     H150672   2.411   1.948   5.475  0.8825  0.7283  1.6949
12488WAT     H250673   2.411   1.834   5.552  0.8387 -0.5600 -0.1385
12488WAT    EPW50674   2.426   1.871   5.485  0.0514  0.3332  0.1598
12489WAT      O50675   0.175   2.731   0.511  0.5880  0.1465 -0.5633
12489WAT     H150676   0.214   2.760   0.583 -1.5177  0.2709  0.5886
12489WAT     H250677   0.241   2.720   0.455  2.1508  1.1131  1.0048
12489WAT    EPW50678   0.191   2.734   0.513  0.5078  0.3077 -0.1615
12490WAT      O50679   0.352   7.146   4.370  0.1810  0.1796  0.3444
12490WAT     H150680   0.289   7.135   4.429  0.7722  2.7267  1.5847
12490WAT     H250681   0.335   7.224   4.335  0.7752 -0.5524 -1.7437
12490WAT    EPW50682   0.340   7.156   4.374  0.3561  0.4477  0.2192
12491WAT      O50683   5.563   5.972   4.126  0.0736  0.3064  0.0030
12491WAT     H150684   5.542   6.017   4.054  0.2326  0.2386 -0.0859
12491WAT     H250685   5.626   5.918   4.099  1.0403  1.1633  0.4782
12491WAT    EPW50686   5.570   5.971   4.111  0.2399  0.4230  0.0600
12492WAT      O50687   1.047   0.822   3.327 -0.2663  0.0410  0.5608
12492WAT     H150688   1.061   0.903   3.354  0.6375 -0.3514  1.3188
12492WAT     H250689   0.960   0.814   3.330 -0.5545  1.6146 -1.5222
12492WAT    EPW50690   1.036   0.833   3.331 -0.1754  0.2155  0.3651
12493WAT      O50691   2.051   0.519   2.125 -0.1361  0.1814 -0.1427
12493WAT     H150692   2.015   0.585   2.168  0.4597  1.2216 -1.1996
12493WAT     H250693   2.070   0.462   2.188 -0.8306  0.9231  0.7661
12493WAT    EPW50694   2.048   0.520   2.141 -0.1507  0.4446 -0.1646
12494WAT      O50695   4.340   1.717   2.525  0.4880  0.2761 -0.1229
12494WAT     H150696   4.273   1.746   2.478 -0.0455 -1.6117 -0.6121
12494WAT     H250697   4.329   1.630   2.525  1.5188  0.0906  1.9244
12494WAT    EPW50698   4.329   1.708   2.518  0.5615 -0.0302  0.1073
12495WAT      O50699   0.981   3.541   2.238  0.4301 -0.2073  0.3338
12495WAT     H150700   1.049   3.499   2.273 -0.0156 -0.8251  0.4584
12495WAT     H250701   0.939   3.480   2.193  0.6884  0.4654 -0.8561
12495WAT    EPW50702   0.985   3.526   2.237  0.4024 -0.1992  0.1764
12496WAT      O50703   3.222   6.071   5.566  0.7974  0.3641  0.2469
12496WAT     H150704   3.246   6.147   5.602  1.7859 -0.3615  1.2163
12496WAT     H250705   3.297   6.041   5.532  0.6214 -0.5845  0.6800
12496WAT    EPW50706   3.237   6.078   5.566  0.9174  0.1168  0.4541
12497WAT      O50707   5.502   3.457   1.142 -0.0327 -0.0861 -0.0927
12497WAT     H150708   5.469   3.377   1.150 -0.3198  0.0504  0.1437
12497WAT     H250709   5.575   3.455   1.190 -0.5280  0.0564  0.6759
12497WAT    EPW50710   5.508   3.445   1.150 -0.1483 -0.0449  0.0558
12498WAT      O50711   6.711   5.293   2.143 -0.3262  0.4570  0.6550
12498WAT     H150712   6.783   5.300   2.192  1.1486 -0.5714 -1.2503
12498WAT     H250713   6.707   5.369   2.101  0.5493 -0.0414 -0.3631
12498WAT    EPW50714   6.721   5.305   2.144  0.0210  0.2314  0.2231
12499WAT      O50715   2.820   7.157   1.990 -0.1647  0.1272  0.4502
12499WAT     H150716   2.873   7.224   2.009 -1.6161  1.6845 -0.6533
12499WAT     H250717   2.824   7.153   1.902 -1.2722 -0.1909  0.3967
12499WAT    EPW50718   2.828   7.167   1.980 -0.5427  0.3103  0.2793
12500WAT      O50719   3.260   1.289   4.536 -0.6073 -0.3556 -1.1269
12500WAT     H150720   3.226   1.268   4.613 -0.1861 -1.1068 -1.1290
12500WAT     H250721   3.241   1.373   4.526  0.1708 -0.0059  0.2287
12500WAT    EPW50722   3.252   1.298   4.546 -0.4301 -0.4149 -0.9269
12501WAT      O50723   1.873   6.261   3.946 -0.2204 -0.2607  0.3989
12501WAT     H150724   1.861   6.221   4.022 -0.7481 -1.1055 -0.1189
12501WAT     H250725   1.797   6.251   3.904  0.1610 -0.0736 -0.3669
12501WAT    EPW50726   1.860   6.254   3.951 -0.2420 -0.3579  0.2093
12502WAT      O50727   4.674   6.775   0.024 -0.7836 -0.1326  0.0122
12502WAT     H150728   4.658   6.695   0.055 -0.9668 -0.7336 -1.5705
12502WAT     H250729   4.595   6.807   0.006 -0.6545  0.0721 -0.2008
12502WAT    EPW50730   4.660   6.768   0.026 -0.7916 -0.1912 -0.2531
12503WAT      O50731   5.683   3.834   2.905 -0.4551 -0.3229  0.1834
12503WAT     H150732   5.745   3.774   2.917 -1.0800 -0.8938  0.6636
12503WAT     H250733   5.663   3.826   2.821  0.2749  0.0200 -0.0265
12503WAT    EPW50734   5.689   3.824   2.894 -0.4395 -0.3566  0.2233
12504WAT      O50735   3.813   4.524   0.867 -0.4866  0.3472 -0.3869
12504WAT     H150736   3.760   4.559   0.808  0.6416  1.5739 -0.7079
12504WAT     H250737   3.887   4.569   0.859  1.0259 -2.0144 -0.7113
12504WAT    EPW50738   3.816   4.536   0.857 -0.0965  0.1795 -0.4822
12505WAT      O50739   6.367   6.655   6.177  0.3374  0.1023 -0.0787
12505WAT     H150740   6.360   6.648   6.263  1.7326 -0.7135 -0.0135
12505WAT     H250741   6.410   6.730   6.166 -1.7004  1.3368 -0.1973
12505WAT    EPW50742   6.372   6.665   6.188  0.2425  0.1642 -0.0866
12506WAT      O50743   2.814   4.070   0.074 -0.5831  0.1447 -0.1999
12506WAT     H150744   2.782   3.991   0.057 -1.6256  0.2130  1.2135
12506WAT     H250745   2.893   4.054   0.108 -0.9562 -0.3276  0.4612
12506WAT    EPW50746   2.821   4.056   0.077 -0.7922  0.0850  0.1066
12507WAT      O50747   6.660   2.310   6.980 -0.4177 -0.3087 -0.0082
12507WAT     H150748   6.638   2.368   6.919  0.7537 -0.5738 -0.7327
12507WAT     H250749   6.626   2.235   6.950  1.9333 -0.8894 -1.5627
12507WAT    EPW50750   6.652   2.308   6.966  0.1027 -0.4336 -0.3449
12508WAT      O50751   0.376   5.051   0.107  0.3685  0.6083 -0.9096
12508WAT     H150752   0.323   5.116   0.086  0.2542  0.8101 -0.0356
12508WAT     H250753   0.421   5.082   0.175  0.1215 -0.3188 -0.3078
12508WAT    EPW50754   0.375   5.065   0.114  0.3151  0.5012 -0.6916
12509WAT      O50755   6.884   4.111   3.232  0.2484  0.9637  0.4356
12509WAT     H150756   6.894   4.184   3.186  0.6651  0.3363 -0.4910
12509WAT     H250757   6.810   4.077   3.200  0.2725  0.7743  0.5827
12509WAT    EPW50758   6.875   4.117   3.221  0.3135  0.8430  0.3205
12510WAT      O50759   2.119   3.715   2.431  0.0098 -0.3166 -1.1170
12510WAT     H150760   2.041   3.727   2.394  0.7574 -0.2444 -2.7453
12510WAT     H250761   2.108   3.746   2.512 -0.9957  2.0390 -2.0475
12510WAT    EPW50762   2.106   3.721   2.438 -0.0283  0.0420 -1.4950
12511WAT      O50763   5.551   5.993   5.386 -0.0883 -0.0765  0.3751
12511WAT     H150764   5.558   5.949   5.461 -0.4339  0.3926  0.6950
12511WAT     H250765   5.550   6.076   5.411  1.5294  0.1766 -0.2976
12511WAT    EPW50766   5.552   5.999   5.401  0.0996  0.0302  0.3230
12512WAT      O50767   4.109   2.035   1.410 -0.4302 -0.0527  0.4127
12512WAT     H150768   4.081   2.032   1.327  0.2493 -0.1923  0.1804
12512WAT     H250769   4.184   1.992   1.407 -0.9901 -1.1221  1.3552
12512WAT    EPW50770   4.116   2.029   1.397 -0.4125 -0.2313  0.5176
12513WAT      O50771   4.007   5.572   1.208 -0.3159  0.3513  0.6171
12513WAT     H150772   4.077   5.616   1.178  0.6085  0.6720  3.0213
12513WAT     H250773   3.940   5.618   1.177  0.6093  2.3250  1.3820
12513WAT    EPW50774   4.008   5.586   1.199 -0.0427  0.6902  1.0852
12514WAT      O50775   6.517   2.771   0.115  0.4412 -0.4369 -0.3649
12514WAT     H150776   6.554   2.698   0.084 -1.5994 -1.6734 -0.0767
12514WAT     H250777   6.566   2.835   0.082  2.2020 -1.9132 -0.7738
12514WAT    EPW50778   6.530   2.770   0.106  0.3999 -0.8376 -0.3827
12515WAT      O50779   1.751   1.609   6.808 -0.0674 -0.7211  0.4950
12515WAT     H150780   1.718   1.595   6.888  0.3307 -0.5500  0.6955
12515WAT     H250781   1.818   1.663   6.823 -0.8683  0.5032 -0.1170
12515WAT    EPW50782   1.756   1.615   6.822 -0.1269 -0.5150  0.4342
12516WAT      O50783   4.671   6.533   2.629 -0.2460  0.5900 -0.5576
12516WAT     H150784   4.662   6.620   2.625  0.8174  0.7365 -0.1353
12516WAT     H250785   4.589   6.504   2.636 -0.5653  1.6080  0.0864
12516WAT    EPW50786   4.658   6.542   2.629 -0.1361  0.7620 -0.4001
12517WAT      O50787   1.016   4.909   2.374 -0.5265  0.2026 -0.0174
12517WAT     H150788   0.933   4.884   2.364  0.1203 -1.7090 -1.0651
12517WAT     H250789   1.061   4.835   2.364  1.3493  1.2643  0.1112
12517WAT    EPW50790   1.010   4.894   2.371 -0.1539  0.0771 -0.1532
12518WAT      O50791   1.327   5.355   2.805 -0.1154  0.2792  0.4700
12518WAT     H150792   1.259   5.410   2.804 -0.0386  0.4320  1.5876
12518WAT     H250793   1.314   5.309   2.878  0.8763  0.1719  0.5878
12518WAT    EPW50794   1.315   5.357   2.816  0.0424  0.2859  0.6525
12519WAT      O50795   3.433   4.460   1.167 -0.5590 -0.0182 -0.0069
12519WAT     H150796   3.372   4.420   1.119 -0.1917  1.5087 -1.8747
12519WAT     H250797   3.508   4.426   1.138 -0.2551  1.6986 -1.4848
12519WAT    EPW50798   3.435   4.449   1.155 -0.4599  0.4610 -0.5011
12520WAT      O50799   3.898   6.270   3.500 -0.1636  0.4911 -0.6725
12520WAT     H150800   3.902   6.313   3.576 -0.7656 -1.9888  0.8833
12520WAT     H250801   3.813   6.275   3.478 -0.4061 -0.5547 -0.0347
12520WAT    EPW50802   3.886   6.277   3.508 -0.2883 -0.0297 -0.3484
12521WAT      O50803   3.859   5.269   0.501  0.0171 -0.0606  0.0586
12521WAT     H150804   3.904   5.337   0.532 -1.9223  0.7333  1.3043
12521WAT     H250805   3.804   5.249   0.566  0.9393 -3.2832  0.0179
12521WAT    EPW50806   3.858   5.276   0.515 -0.1332 -0.4194  0.2366
12522WAT      O50807   5.230   0.995   4.096 -0.3033  0.5661  0.4582
12522WAT     H150808   5.301   0.959   4.132 -1.1689  0.6874  2.4112
12522WAT     H250809   5.167   0.936   4.112 -0.6775  0.4441 -1.2644
12522WAT    EPW50810   5.231   0.981   4.104 -0.4865  0.5660  0.4922
12523WAT      O50811   0.973   2.869   2.820 -0.1224  0.0747 -0.6730
12523WAT     H150812   1.043   2.903   2.859  1.0476 -1.2851 -1.4505
12523WAT     H250813   0.936   2.820   2.882  0.5975 -0.5208 -0.7007
12523WAT    EPW50814   0.978   2.866   2.835  0.1568 -0.2141 -0.7920
12524WAT      O50815   0.960   3.110   5.156 -0.1947 -0.4662 -0.2939
12524WAT     H150816   0.948   3.182   5.107 -0.9616 -0.0839  0.4342
12524WAT     H250817   1.032   3.074   5.122  0.7975  1.1805 -0.0368
12524WAT    EPW50818   0.969   3.116   5.144 -0.1614 -0.1665 -0.1484
12525WAT      O50819   3.466   3.806   6.029  0.0157  0.0792 -0.3128
12525WAT     H150820   3.424   3.824   6.103  0.5724  2.5894 -0.5102
12525WAT     H250821   3.432   3.730   6.004 -0.0036 -0.9880  2.6051
12525WAT    EPW50822   3.455   3.798   6.036  0.0951  0.2923  0.0891
12526WAT      O50823   6.270   1.774   3.872  0.1573 -0.1134 -0.1461
12526WAT     H150824   6.188   1.805   3.863  0.1811 -0.6082 -2.6937
12526WAT     H250825   6.312   1.808   3.804  2.2055  0.3057  1.2322
12526WAT    EPW50826   6.264   1.784   3.861  0.4634 -0.1246 -0.3188
12527WAT      O50827   4.223   3.968   2.636 -0.2044  0.0734  0.1518
12527WAT     H150828   4.146   3.951   2.672 -1.1993  2.0371 -0.8700
12527WAT     H250829   4.221   3.924   2.560  0.3988 -1.1850  0.8406
12527WAT    EPW50830   4.212   3.959   2.630 -0.2623  0.1776  0.1026
12528WAT      O50831   0.399   2.134   3.206  0.2489  0.4500 -0.0750
12528WAT     H150832   0.454   2.147   3.139 -0.6543  0.0759 -0.9218
12528WAT     H250833   0.442   2.165   3.275  1.9731 -0.8010 -0.5209
12528WAT    EPW50834   0.414   2.141   3.206  0.3702  0.2099 -0.2659
12529WAT      O50835   3.485   1.658   2.182 -0.5407 -0.1733  0.0442
12529WAT     H150836   3.425   1.642   2.121 -1.1638 -0.0897  0.6178
12529WAT     H250837   3.530   1.583   2.186 -0.0325  0.0622 -1.0077
12529WAT    EPW50838   3.482   1.644   2.174 -0.5577 -0.1262 -0.0265
12530WAT      O50839   3.460   0.290   1.071 -0.0767 -0.2642  0.3887
12530WAT     H150840   3.529   0.249   1.037  0.3692  0.7416  0.0416
12530WAT     H250841   3.470   0.279   1.157  1.2756  1.0256  0.4221
12530WAT    EPW50842   3.471   0.282   1.079  0.1890  0.0749  0.3423
12531WAT      O50843   5.251   2.457   1.286 -0.1109 -0.0373 -0.1364
12531WAT     H150844   5.174   2.458   1.327  0.4878  0.4833  1.0087
12531WAT     H250845   5.231   2.488   1.206 -1.0982  0.0112  0.1114
12531WAT    EPW50846   5.237   2.462   1.280 -0.1683  0.0468  0.0694
12532WAT      O50847   3.811   2.424   5.241 -0.0140 -0.5289  0.3471
12532WAT     H150848   3.824   2.392   5.161  0.4345 -2.2452  1.0489
12532WAT     H250849   3.835   2.358   5.293  1.7738  1.2808  1.9604
12532WAT    EPW50850   3.817   2.409   5.237  0.3164 -0.5151  0.6891
12533WAT      O50851   1.238   2.797   4.169  0.4545 -0.1169  0.2192
12533WAT     H150852   1.295   2.813   4.105 -0.2967  0.2152 -0.3724
12533WAT     H250853   1.288   2.799   4.241  1.2987 -0.4642 -0.3391
12533WAT    EPW50854   1.254   2.800   4.170  0.4682 -0.1191  0.0494
12534WAT      O50855   0.692   2.010   4.232  0.1234  0.0786 -0.0441
12534WAT     H150856   0.688   1.998   4.146 -1.8262 -1.6449  0.1895
12534WAT     H250857   0.730   2.088   4.241 -0.4378  0.7059 -2.4859
12534WAT    EPW50858   0.697   2.020   4.221 -0.2475 -0.0833 -0.3703
12535WAT      O50859   4.818   3.143   3.393 -0.0821  0.0624 -0.2048
12535WAT     H150860   4.780   3.095   3.332 -0.1397 -0.5023  0.2723
12535WAT     H250861   4.763   3.140   3.460  0.5309 -0.3181  0.3021
12535WAT    EPW50862   4.805   3.136   3.394 -0.0000 -0.0772 -0.0595
12536WAT      O50863   1.252   2.442   3.549 -0.4654 -0.1906 -0.3022
12536WAT     H150864   1.275   2.474   3.628  0.1267 -1.5685  0.1028
12536WAT     H250865   1.211   2.510   3.512 -1.2708  0.3301  1.4056
12536WAT    EPW50866   1.249   2.457   3.555 -0.4969 -0.3173  0.0099
12537WAT      O50867   6.161   3.057   4.229  0.0045  1.1772 -0.1180
12537WAT     H150868   6.116   2.994   4.190 -0.7222  1.0555  0.8727
12537WAT     H250869   6.103   3.094   4.283 -0.2121  4.0574 -2.0866
12537WAT    EPW50870   6.146   3.053   4.232 -0.1349  1.5847 -0.2625
12538WAT      O50871   3.782   6.070   0.629 -0.1169  0.2704  0.3283
12538WAT     H150872   3.830   6.101   0.562 -0.0927  0.0789  0.2562
12538WAT     H250873   3.842   6.037   0.683 -0.2425 -1.6503 -0.6094
12538WAT    EPW50874   3.798   6.069   0.627 -0.1319 -0.0416  0.1791
12539WAT      O50875   5.123   5.255   1.733  0.4865 -0.1797 -0.0197
12539WAT     H150876   5.164   5.314   1.684  0.3071 -0.2434 -0.2468
12539WAT     H250877   5.042   5.256   1.703  0.8616 -1.7755 -1.2048
12539WAT    EPW50878   5.117   5.264   1.722  0.5154 -0.4248 -0.2283
12540WAT      O50879   1.230   6.507   0.069  0.3861 -0.1484 -0.5852
12540WAT     H150880   1.262   6.534   0.145  0.5682  0.8928 -1.0132
12540WAT     H250881   1.292   6.529   0.012 -0.3246  0.2875 -1.2000
12540WAT    EPW50882   1.244   6.514   0.072  0.3080  0.0698 -0.7393
12541WAT      O50883   0.063   1.309   6.113  0.0918 -0.2140 -0.1126
12541WAT     H150884   0.093   1.258   6.048 -0.0105 -0.4157 -0.0035
12541WAT     H250885   0.019   1.371   6.071  0.4672 -0.0484 -0.2625
12541WAT    EPW50886   0.061   1.310   6.097  0.1322 -0.2193 -0.1186
12542WAT      O50887   1.564   1.783   5.411  0.1643 -0.5377 -0.2250
12542WAT     H150888   1.639   1.811   5.445 -0.2308  2.0719 -1.3224
12542WAT     H250889   1.527   1.739   5.477  0.7643  1.7726  1.7869
12542WAT    EPW50890   1.570   1.780   5.426  0.1946  0.1891 -0.0899
12543WAT      O50891   4.919   2.195   5.302 -0.3306 -0.1038 -0.1328
12543WAT     H150892   4.898   2.222   5.221 -0.6210 -2.9586 -1.1130
12543WAT     H250893   4.851   2.222   5.349 -0.1410  1.6597 -0.7501
12543WAT    EPW50894   4.906   2.203   5.297 -0.3455 -0.2650 -0.3688
12544WAT      O50895   6.911   4.823   4.942  0.1794  0.2714 -0.1053
12544WAT     H150896   6.890   4.888   4.998 -0.2363 -0.6519  0.8505
12544WAT     H250897   6.958   4.863   4.881 -0.3451  1.5405  0.2900
12544WAT    EPW50898   6.915   4.839   4.941  0.0405  0.3224  0.0943
12545WAT      O50899   0.675   4.185   2.753  0.6156  0.0185 -0.4185
12545WAT     H150900   0.730   4.182   2.685  0.6250  0.0248 -0.4112
12545WAT     H250901   0.597   4.194   2.716  0.5069 -0.9951 -0.4623
12545WAT    EPW50902   0.672   4.186   2.738  0.6010 -0.1303 -0.4239
12546WAT      O50903   6.351   0.957   0.102  0.3240  0.1612  0.5938
12546WAT     H150904   6.416   0.908   0.133  2.0611  0.9326 -1.5685
12546WAT     H250905   6.391   1.011   0.046 -2.3199 -0.2610 -1.9348
12546WAT    EPW50906   6.367   0.958   0.099  0.1900  0.2127 -0.0992
12547WAT      O50907   4.463   3.286   0.054 -0.3643 -0.0566  0.1309
12547WAT     H150908   4.392   3.249   0.018 -1.2212 -0.3916  2.0222
12547WAT     H250909   4.466   3.365   0.016 -0.9094 -0.5767 -1.0276
12547WAT    EPW50910   4.453   3.293   0.043 -0.5714 -0.1829  0.2391
12548WAT      O50911   1.452   4.214   3.363  0.2404  0.0183 -0.2863
12548WAT     H150912   1.446   4.184   3.281 -1.6902 -1.9197  0.4835
12548WAT     H250913   1.535   4.197   3.384  0.1098 -1.8988 -1.0415
12548WAT    EPW50914   1.464   4.207   3.354 -0.0641 -0.5512 -0.2842
12549WAT      O50915   7.131   5.722   2.239 -0.4775 -0.1685 -0.3678
12549WAT     H150916   7.173   5.755   2.170 -0.1686  1.6603  0.6190
12549WAT     H250917   7.174   5.756   2.307 -1.4032 -1.0983  0.7203
12549WAT    EPW50918   7.143   5.732   2.239 -0.5686 -0.0357 -0.0613
12550WAT      O50919   0.101   2.719   4.142  0.0931  0.2180 -0.2139
12550WAT     H150920   0.119   2.638   4.115  0.0180  0.4423 -0.9522
12550WAT     H250921   0.144   2.770   4.085 -1.4759  0.7345 -0.9860
12550WAT    EPW50922   0.110   2.715   4.129 -0.1498  0.3275 -0.4370
12551WAT      O50923   5.317   6.969   3.676 -0.6707 -0.1127  0.5795
12551WAT     H150924   5.288   6.986   3.756 -1.8684 -0.6226  0.2732
12551WAT     H250925   5.306   6.883   3.668 -0.9414 -0.0101 -0.2679
12551WAT    EPW50926   5.311   6.959   3.687 -0.8876 -0.1729  0.4091
12552WAT      O50927   2.953   5.981   5.562  0.0279 -1.0704  0.1499
12552WAT     H150928   3.035   6.010   5.555 -1.4383  3.6440 -0.8947
12552WAT     H250929   2.937   5.984   5.647  0.7235 -1.3666  0.2960
12552WAT    EPW50930   2.963   5.986   5.573 -0.0859 -0.4178  0.0172
12553WAT      O50931   4.681   3.272   4.693 -0.9183  0.0037  0.1838
12553WAT     H150932   4.734   3.315   4.747  1.3861  0.0162 -1.9150
12553WAT     H250933   4.608   3.319   4.695 -0.5985  0.5550  2.4460
12553WAT    EPW50934   4.678   3.285   4.702 -0.5306  0.0870  0.2079
12554WAT      O50935   6.577   2.802   3.567 -0.2233  0.2223  0.0703
12554WAT     H150936   6.626   2.777   3.500  0.1468  0.6417  0.1813
12554WAT     H250937   6.544   2.879   3.542  1.0590  1.0821  0.9153
12554WAT    EPW50938   6.579   2.809   3.554  0.0208  0.4112  0.2115
12555WAT      O50939   1.518   2.975   2.848 -0.2386 -0.2618 -0.3729
12555WAT     H150940   1.572   2.932   2.795 -1.4098 -0.9515 -1.0362
12555WAT     H250941   1.539   3.059   2.835  1.1351 -0.5343 -0.0774
12555WAT    EPW50942   1.529   2.981   2.838 -0.2087 -0.4039 -0.4272
12556WAT      O50943   2.386   2.186   0.648  0.6794  0.1912  0.4272
12556WAT     H150944   2.308   2.153   0.668  0.7094  0.8282  1.6497
12556WAT     H250945   2.372   2.224   0.570  0.6752 -2.6605 -1.1188
12556WAT    EPW50946   2.373   2.187   0.639  0.6832 -0.1359  0.3794
12557WAT      O50947   3.061   2.746   1.021 -0.2028 -0.1296  0.0877
12557WAT     H150948   3.142   2.758   1.052 -0.5330  1.5860  0.3836
12557WAT     H250949   3.052   2.807   0.960 -2.0480  1.4218  1.7221
12557WAT    EPW50950   3.071   2.757   1.017 -0.5242  0.3530  0.3729
12558WAT      O50951   0.382   2.497   7.133 -0.1758  0.2547  0.2401
12558WAT     H150952   0.306   2.538   7.119 -0.6748 -1.0279 -1.0492
12558WAT     H250953   0.365   2.444   7.200 -0.2874  0.2805  0.2327
12558WAT    EPW50954   0.368   2.495   7.141 -0.2660  0.0690  0.0486
12559WAT      O50955   5.703   4.504   7.122 -0.3341 -0.1259  0.2936
12559WAT     H150956   5.653   4.573   7.103 -2.2963 -0.8633  2.3745
12559WAT     H250957   5.779   4.540   7.145  0.2508  1.0306 -2.8590
12559WAT    EPW50958   5.707   4.520   7.122 -0.5375 -0.0640  0.1353
12560WAT      O50959   0.142   6.907   3.582 -0.3251 -0.4347  0.1377
12560WAT     H150960   0.120   6.963   3.519 -0.5941 -0.7348 -0.0369
12560WAT     H250961   0.068   6.864   3.598 -0.3850 -0.0362  0.9888
12560WAT    EPW50962   0.128   6.909   3.575 -0.3737 -0.4201  0.2377
12561WAT      O50963   4.793   0.728   6.520 -0.1035  0.0827  0.1274
12561WAT     H150964   4.722   0.681   6.505  1.0763 -1.2950 -1.6557
12561WAT     H250965   4.762   0.804   6.550 -2.5754  0.5625 -3.0335
12561WAT    EPW50966   4.778   0.732   6.522 -0.2944 -0.0500 -0.6030
12562WAT      O50967   0.832   4.004   5.391 -0.4180  0.1569 -0.3653
12562WAT     H150968   0.862   4.035   5.467  1.4617  0.0970 -1.0342
12562WAT     H250969   0.902   3.968   5.354 -1.7570 -1.8148 -1.1811
12562WAT    EPW50970   0.847   4.003   5.397 -0.3382 -0.1432 -0.5846
12563WAT      O50971   0.366   7.226   2.175  0.3609  0.1580  0.3134
12563WAT     H150972   0.329   7.194   2.102  1.9996 -2.1742  0.3849
12563WAT     H250973   0.376   7.310   2.157  1.5177 -0.4743 -2.6227
12563WAT    EPW50974   0.362   7.233   2.161  0.7739 -0.2799 -0.1098
12564WAT      O50975   1.352   2.745   3.278  0.1195 -0.1808  0.4276
12564WAT     H150976   1.329   2.743   3.194  0.2644  1.5989  0.3032
12564WAT     H250977   1.377   2.663   3.295  2.2453 -0.1345 -1.8873
12564WAT    EPW50978   1.352   2.733   3.268  0.4549  0.0890  0.0673
12565WAT      O50979   2.801   2.376   4.525  0.2504 -0.2084 -0.6093
12565WAT     H150980   2.714   2.374   4.518  0.1712 -1.0911  0.3970
12565WAT     H250981   2.815   2.442   4.581  0.3313  0.7337 -1.6886
12565WAT    EPW50982   2.790   2.386   4.532  0.2506 -0.1996 -0.6201
12566WAT      O50983   2.492   3.714   6.221 -0.0135  0.3882  0.0914
12566WAT     H150984   2.567   3.700   6.264 -0.8941  1.9866  2.3757
12566WAT     H250985   2.494   3.799   6.204  0.1885 -0.1355 -3.0955
12566WAT    EPW50986   2.503   3.725   6.225 -0.1138  0.5470 -0.0419
12567WAT      O50987   0.827   3.251   1.339 -0.5228 -0.2676 -0.3633
12567WAT     H150988   0.755   3.294   1.362 -0.8758 -0.3485 -1.2823
12567WAT     H250989   0.875   3.310   1.298 -1.1768 -0.7974 -1.9703
12567WAT    EPW50990   0.823   3.266   1.337 -0.6715 -0.3578 -0.7364
12568WAT      O50991   0.788   4.995   1.712 -0.0971 -0.4210 -0.2064
12568WAT     H150992   0.714   4.976   1.754 -0.0105 -1.5097 -0.5246
12568WAT     H250993   0.819   5.064   1.755 -0.8906 -0.4480  0.4240
12568WAT    EPW50994   0.782   5.002   1.725 -0.2015 -0.5859 -0.1603
12569WAT      O50995   0.124   2.549   4.651  0.4546  0.3340 -0.0177
12569WAT     H150996   0.182   2.611   4.633 -0.0186  1.1537  1.1448
12569WAT     H250997   0.160   2.505   4.717  0.1719  0.2651  0.0938
12569WAT    EPW50998   0.138   2.551   4.658  0.3430  0.4449  0.1705
12570WAT      O50999   5.257   5.380   3.459 -0.0769  0.2689  0.3489
12570WAT     H151000   5.281   5.297   3.475 -2.1569  0.0019  2.7254
12570WAT     H251001   5.175   5.372   3.431 -0.3391  1.5402  0.7196
12570WAT    EPW51002   5.248   5.367   3.457 -0.4229  0.4173  0.7547
12571WAT      O51003   7.131   5.313   2.961  0.5325  0.1355 -0.1588
12571WAT     H151004   7.099   5.329   2.881 -0.5764 -3.9460 -0.7886
12571WAT     H251005   7.060   5.317   3.012  0.6934 -0.1656  0.0893
12571WAT    EPW51006   7.115   5.316   2.957  0.3925 -0.5119 -0.2152
   7.28691   7.23455   7.39342
